Title
82323
    1SAPS     N    1   2.821   3.150  10.611 -0.2314  0.0708 -0.0750
    1SAPS   HN1    2   2.854   3.199  10.526 -1.5062  0.1391 -0.5484
    1SAPS   HN2    3   2.893   3.078  10.632 -2.6711 -2.1158  1.4357
    1SAPS   HN3    4   2.730   3.102  10.597 -0.0079 -1.2015  2.2303
    1SAPS   C12    5   2.821   3.250  10.717  0.3842 -0.3281  0.3108
    1SAPS  H12A    6   2.718   3.257  10.748  0.2187  2.4309 -0.6291
    1SAPS   C13    7   2.899   3.202  10.838 -0.3948  0.3751 -0.0843
    1SAPS  O13A    8   2.946   3.084  10.844  0.4020  0.0275 -0.1851
    1SAPS  O13B    9   2.919   3.285  10.931  0.3837 -0.0163  0.0928
    1SAPS   C11   10   2.880   3.380  10.656 -0.4382 -0.4647 -0.1489
    1SAPS  H11A   11   2.991   3.385  10.658 -0.4595  0.0943 -0.2038
    1SAPS  H11B   12   2.841   3.452  10.731 -0.5807  0.0276 -0.6806
    1SAPS     P   13   2.879   3.558  10.463 -0.0426  0.1175 -0.3379
    1SAPS   O13   14   2.779   3.657  10.502  0.5126  0.1668 -0.5733
    1SAPS   O14   15   3.023   3.576  10.508  0.1999  0.2556 -0.8134
    1SAPS   O12   16   2.828   3.420  10.522  0.1375 -0.2600  0.0042
    1SAPS   O11   17   2.874   3.530  10.304  0.1983 -0.3334 -0.0924
    1SAPS    C1   18   2.764   3.456  10.241  0.0260  0.5507 -0.1919
    1SAPS    HA   19   2.774   3.350  10.275 -1.7386  0.4859  0.2240
    1SAPS    HB   20   2.669   3.505  10.272 -0.7474  0.9173 -2.9467
    1SAPS    C2   21   2.760   3.468  10.084 -0.0641  0.2871  0.8217
    1SAPS    HS   22   2.652   3.468  10.056  0.5844  1.9588 -2.0361
    1SAPS   O21   23   2.836   3.378  10.004 -0.2849  0.1610 -0.1709
    1SAPS   C21   24   2.811   3.252  10.027 -0.5407  0.4106  0.5538
    1SAPS   O22   25   2.731   3.198  10.102 -0.3619 -0.7070 -0.3796
    1SAPS   C22   26   2.877   3.168   9.916  0.5687  0.1984 -0.5424
    1SAPS   H2R   27   2.814   3.079   9.896  0.4777 -0.4030  1.9906
    1SAPS   H2S   28   2.892   3.237   9.831  1.7160  0.3222 -0.2474
    1SAPS    C3   29   2.794   3.620  10.049 -0.7230  0.6402  0.6254
    1SAPS    HX   30   2.903   3.638  10.046 -0.4979 -0.7716  0.0589
    1SAPS    HY   31   2.741   3.678  10.129 -1.0022 -0.4522  1.2499
    1SAPS   O31   32   2.732   3.658   9.924 -0.4927 -0.1358  0.1857
    1SAPS   C31   33   2.752   3.783   9.886  0.1260  0.2903 -0.0608
    1SAPS   O32   34   2.811   3.866   9.952  0.0193  0.1880  0.0603
    1SAPS   C32   35   2.675   3.810   9.757  0.3264 -0.8958 -0.0335
    1SAPS   H2X   36   2.567   3.803   9.778 -0.3154 -1.5553 -3.0714
    1SAPS   H2Y   37   2.708   3.730   9.688 -1.8667  0.1377 -2.4482
    1SAPS   C23   38   3.011   3.097   9.951  0.4869  0.4853  0.5676
    1SAPS   H3R   39   3.027   3.028   9.865  2.7827  1.7983 -0.1722
    1SAPS   H3S   40   2.988   3.034  10.039 -0.2548 -0.5199 -0.3182
    1SAPS   C24   41   3.129   3.192   9.973 -0.1637  0.3007 -1.2241
    1SAPS   H4R   42   3.125   3.232  10.076  3.1480 -1.7195 -0.1227
    1SAPS   H4S   43   3.122   3.273   9.897 -1.8303  1.2853 -0.0574
    1SAPS   C25   44   3.252   3.112   9.977  0.0573  0.5332 -0.2157
    1SAPS   H5R   45   3.289   3.082  10.076  1.0076 -1.3488 -1.0824
    1SAPS   C26   46   3.305   3.049   9.867 -0.4317 -0.4535 -0.2800
    1SAPS   H6R   47   3.397   2.992   9.885  0.7008  0.6791 -2.2224
    1SAPS   C27   48   3.265   3.074   9.723 -0.4430  0.4319  0.1775
    1SAPS   H7R   49   3.165   3.118   9.701 -1.5769 -1.5170  1.1197
    1SAPS   H7S   50   3.258   2.973   9.677 -1.2771 -0.3710  1.9960
    1SAPS   C28   51   3.368   3.153   9.652  0.0746  0.2265 -0.1586
    1SAPS   H8R   52   3.402   3.240   9.709 -0.6353  0.4176 -0.0151
    1SAPS   C29   53   3.426   3.125   9.534 -0.3033 -0.2174 -0.1019
    1SAPS   H9R   54   3.501   3.199   9.503  0.3209 -1.1979 -1.0155
    1SAPS  C210   55   3.393   3.016   9.438  0.7170  0.1174  1.1617
    1SAPS  H10R   56   3.305   2.957   9.474 -0.9295  0.6612 -1.6617
    1SAPS  H10S   57   3.474   2.941   9.426 -1.6240 -2.3622 -0.2931
    1SAPS  C211   58   3.363   3.085   9.300  0.0777  0.2235 -0.0644
    1SAPS  H11R   59   3.329   3.189   9.309  0.3855  0.3995 -0.8281
    1SAPS  C212   60   3.390   3.041   9.175 -0.0783  0.1617 -0.2282
    1SAPS  H12R   61   3.386   3.115   9.094 -0.3876 -0.4244 -0.7568
    1SAPS  C213   62   3.452   2.907   9.140 -0.5429 -0.0842  0.5450
    1SAPS  H13R   63   3.487   2.853   9.231 -0.4203 -1.0472 -0.0590
    1SAPS  H13S   64   3.549   2.936   9.095 -0.9690 -0.3264 -0.5571
    1SAPS  C214   65   3.374   2.821   9.044  0.1250  0.5827 -0.0554
    1SAPS  H14R   66   3.299   2.759   9.095 -0.7051  0.2896 -1.5669
    1SAPS  C215   67   3.382   2.813   8.910  0.5218 -0.3767 -0.0337
    1SAPS  H15R   68   3.316   2.738   8.863 -0.2441  0.0660  0.3069
    1SAPS  C216   69   3.477   2.894   8.824  0.2519  0.1287 -0.3513
    1SAPS  H16R   70   3.568   2.914   8.884  0.7537  0.8145 -1.3203
    1SAPS  H16S   71   3.415   2.986   8.814 -0.1038 -0.3879 -4.0908
    1SAPS  C217   72   3.501   2.824   8.688 -0.1186 -0.3651 -0.1016
    1SAPS  H17R   73   3.568   2.738   8.707 -0.8256 -1.3714 -1.9114
    1SAPS  H17S   74   3.551   2.900   8.623  1.4806  0.0595  1.5216
    1SAPS  C218   75   3.372   2.773   8.610 -0.1970  0.2658 -0.5651
    1SAPS  H18R   76   3.289   2.839   8.641  0.6014  0.8205  0.4516
    1SAPS  H18S   77   3.340   2.670   8.639  2.2213 -0.6784 -1.0152
    1SAPS  C219   78   3.371   2.776   8.459 -0.2829  0.0123 -0.2803
    1SAPS  H19R   79   3.416   2.875   8.435  0.6385  0.4902  2.9100
    1SAPS  H19S   80   3.266   2.779   8.422 -0.1463  1.1633 -0.6287
    1SAPS  C220   81   3.449   2.655   8.396  0.4586  0.1158  0.3148
    1SAPS  H20R   82   3.398   2.560   8.421  0.6780  0.6275  2.9699
    1SAPS  H20S   83   3.538   2.627   8.455  1.4131 -0.2198 -1.2265
    1SAPS  H20T   84   3.476   2.667   8.289 -1.3830  1.2265 -0.0819
    1SAPS   C33   85   2.698   3.951   9.694 -0.7381 -0.3208 -0.3957
    1SAPS   H3X   86   2.806   3.962   9.675  0.1385 -0.0559  3.7820
    1SAPS   H3Y   87   2.661   4.032   9.760  3.5251  2.2742 -0.9023
    1SAPS   C34   88   2.632   3.964   9.558  0.1760  0.2125 -0.3728
    1SAPS   H4X   89   2.675   4.056   9.514 -0.6088 -0.0743 -1.7747
    1SAPS   H4Y   90   2.521   3.967   9.568  0.1765  1.8035 -0.6321
    1SAPS   C35   91   2.687   3.868   9.447 -0.2777  0.0479 -0.4581
    1SAPS   H5X   92   2.640   3.769   9.463 -0.3097  0.2744  0.9721
    1SAPS   H5Y   93   2.793   3.846   9.470 -0.6478 -0.7763  0.5669
    1SAPS   C36   94   2.666   3.917   9.305  0.1693  0.1685  0.0587
    1SAPS   H6X   95   2.693   4.025   9.304  1.9240 -0.1775  1.9716
    1SAPS   H6Y   96   2.558   3.905   9.283  0.4253 -0.1016 -1.1173
    1SAPS   C37   97   2.748   3.848   9.196 -0.9124  0.2926  0.0839
    1SAPS   H7X   98   2.719   3.741   9.197  1.2851 -0.3589 -0.8827
    1SAPS   H7Y   99   2.853   3.843   9.230 -0.5667  0.3102 -0.9476
    1SAPS   C38  100   2.756   3.908   9.054  0.7913 -0.1890  0.4261
    1SAPS   H8X  101   2.823   3.839   8.997 -0.4221 -2.3890  1.5004
    1SAPS   H8Y  102   2.806   4.005   9.071  0.0025  0.0306  1.6263
    1SAPS   C39  103   2.628   3.923   8.972  0.2402  0.2844 -0.7314
    1SAPS   H9X  104   2.542   3.967   9.028  0.3825  1.4193 -1.3708
    1SAPS   H9Y  105   2.605   3.829   8.918 -0.1720  0.3942 -0.7453
    1SAPS  C310  106   2.646   4.014   8.851 -0.5180  0.1406 -0.1717
    1SAPS  H10X  107   2.732   3.979   8.790 -0.1527  1.7363 -0.6202
    1SAPS  H10Y  108   2.674   4.114   8.890  0.4859 -0.2922  0.2296
    1SAPS  C311  109   2.525   4.029   8.755  0.4345  0.4280 -0.5788
    1SAPS  H11X  110   2.448   4.071   8.823 -0.4969  0.4980 -1.6395
    1SAPS  H11Y  111   2.490   3.927   8.727  1.5316  0.6222 -2.9567
    1SAPS  C312  112   2.532   4.114   8.630 -0.0533  0.8825 -0.4015
    1SAPS  H12X  113   2.439   4.140   8.575 -1.1758  1.2073  1.5735
    1SAPS  H12Y  114   2.576   4.044   8.556 -1.3425 -0.3929 -0.0082
    1SAPS  C313  115   2.612   4.243   8.641  0.0908 -0.2475 -0.6278
    1SAPS  H13X  116   2.716   4.215   8.670  0.2279 -0.1263 -0.9958
    1SAPS  H13Y  117   2.571   4.298   8.728 -0.6507 -1.0769 -0.4362
    1SAPS  C314  118   2.596   4.331   8.516 -0.6523  0.5208 -0.4264
    1SAPS  H14X  119   2.488   4.330   8.491 -0.7987 -1.9609  0.0884
    1SAPS  H14Y  120   2.656   4.278   8.438  0.8679  1.3990  0.1025
    1SAPS  C315  121   2.656   4.467   8.538 -1.1575 -0.6226 -0.3415
    1SAPS  H15X  122   2.765   4.454   8.554 -1.3015 -2.5665 -0.7205
    1SAPS  H15Y  123   2.625   4.529   8.625  0.3516 -1.3057  0.7106
    1SAPS  C316  124   2.649   4.560   8.411  0.5703  0.2777  0.0332
    1SAPS  H16X  125   2.678   4.662   8.444  1.5666 -1.0365  3.6893
    1SAPS  H16Y  126   2.541   4.551   8.389  0.8045 -1.7901 -0.5075
    1SAPS  C317  127   2.730   4.519   8.290 -1.1115 -0.3103  0.4481
    1SAPS  H17X  128   2.702   4.413   8.270 -0.4051 -0.2608 -0.9916
    1SAPS  H17Y  129   2.837   4.518   8.321 -1.1760 -2.2589  0.7352
    1SAPS  C318  130   2.704   4.612   8.167 -0.1032 -0.0197 -0.6445
    1SAPS  H18X  131   2.741   4.715   8.184 -1.3754  0.6369 -1.6962
    1SAPS  H18Y  132   2.594   4.621   8.152 -0.1078 -0.1161 -0.6733
    1SAPS  H18Z  133   2.742   4.566   8.073 -1.3027 -1.3171 -0.5247
    2SAPS     N  134   2.480   3.217  10.323  0.4892  0.5880  0.3351
    2SAPS   HN1  135   2.582   3.197  10.325  0.2206 -1.3613 -1.9088
    2SAPS   HN2  136   2.432   3.127  10.308  1.5673  0.2080 -0.9668
    2SAPS   HN3  137   2.457   3.270  10.237 -1.0549 -2.4794 -1.3069
    2SAPS   C12  138   2.433   3.261  10.450  0.1442 -0.5983 -0.0727
    2SAPS  H12A  139   2.330   3.230  10.452  0.0554 -0.2774  1.9023
    2SAPS   C13  140   2.506   3.207  10.577  0.6853 -0.5045 -0.5947
    2SAPS  O13A  141   2.562   3.092  10.563  0.0502 -0.0240 -0.5790
    2SAPS  O13B  142   2.473   3.254  10.692 -0.2476  0.4099 -0.4923
    2SAPS   C11  143   2.439   3.408  10.463  0.4923 -0.4390 -0.2281
    2SAPS  H11A  144   2.547   3.437  10.465 -0.0355  1.6940  1.8511
    2SAPS  H11B  145   2.394   3.446  10.557 -0.1257 -1.5928 -0.0426
    2SAPS     P  146   2.246   3.566  10.366 -0.0425 -0.1563  0.0562
    2SAPS   O13  147   2.194   3.566  10.507 -0.5670 -0.2018 -0.8286
    2SAPS   O14  148   2.279   3.700  10.301 -0.5931 -0.0278 -0.0931
    2SAPS   O12  149   2.367   3.461  10.347 -0.2044  0.0179  0.4648
    2SAPS   O11  150   2.129   3.503  10.277  0.5067 -0.3721  0.1460
    2SAPS    C1  151   2.090   3.541  10.142 -0.1909  0.0047  0.3299
    2SAPS    HA  152   1.990   3.506  10.110  0.2814 -1.0974  0.0151
    2SAPS    HB  153   2.106   3.651  10.141 -0.7705  0.1632  2.4706
    2SAPS    C2  154   2.199   3.482  10.043 -0.2778  0.0383 -0.0096
    2SAPS    HS  155   2.300   3.504  10.081  0.7396 -2.5601 -1.0187
    2SAPS   O21  156   2.172   3.541   9.916 -0.3978  0.3821 -0.1528
    2SAPS   C21  157   2.250   3.630   9.863 -0.0490  0.7510 -0.0602
    2SAPS   O22  158   2.356   3.669   9.908  0.3070  0.1072  0.0827
    2SAPS   C22  159   2.188   3.673   9.727  0.1629  0.4427 -0.8373
    2SAPS   H2R  160   2.215   3.608   9.641  0.7357 -0.7431  0.2057
    2SAPS   H2S  161   2.078   3.668   9.734  0.2435  0.2506  0.6964
    2SAPS    C3  162   2.187   3.331  10.032 -0.0107  0.5858 -0.7545
    2SAPS    HX  163   2.085   3.311   9.991 -0.3582  0.8202 -0.0197
    2SAPS    HY  164   2.185   3.286  10.133 -1.9571  0.7822 -0.6672
    2SAPS   O31  165   2.276   3.276   9.936 -0.0193 -0.3016  0.2544
    2SAPS   C31  166   2.398   3.283   9.977 -1.0715  0.6779 -0.0902
    2SAPS   O32  167   2.434   3.315  10.088  0.3698  1.2312 -0.2058
    2SAPS   C32  168   2.486   3.234   9.866 -0.1925  0.0898  0.7742
    2SAPS   H2X  169   2.427   3.155   9.814  1.7125 -0.3650 -0.8334
    2SAPS   H2Y  170   2.563   3.173   9.917 -0.1287 -0.1468  0.3984
    2SAPS   C23  171   2.222   3.826   9.696 -0.6560  0.6535  0.5860
    2SAPS   H3R  172   2.332   3.825   9.713 -0.5350 -0.8540 -0.1282
    2SAPS   H3S  173   2.176   3.897   9.769  1.0754  1.3627  1.0503
    2SAPS   C24  174   2.183   3.877   9.556  0.5773  0.2455 -0.0136
    2SAPS   H4R  175   2.232   3.800   9.492  0.2306 -0.5580  0.6683
    2SAPS   H4S  176   2.239   3.972   9.542  0.0603  0.5924  0.2762
    2SAPS   C25  177   2.032   3.878   9.545  0.5090  0.3505 -0.0653
    2SAPS   H5R  178   1.973   3.912   9.632  0.1809  0.2987 -0.2634
    2SAPS   C26  179   1.970   3.878   9.427  0.2131 -0.1086 -0.5187
    2SAPS   H6R  180   1.863   3.902   9.417  0.1477 -0.9091 -2.0413
    2SAPS   C27  181   2.042   3.858   9.295  0.6136 -0.3642  0.7401
    2SAPS   H7R  182   2.117   3.778   9.311  0.5128 -0.4166  0.9434
    2SAPS   H7S  183   2.088   3.956   9.271 -0.5708 -0.3814 -1.9632
    2SAPS   C28  184   1.953   3.818   9.178  0.3147 -0.2140  0.2921
    2SAPS   H8R  185   1.878   3.741   9.201  2.0095 -1.6013  1.4148
    2SAPS   C29  186   1.974   3.854   9.048  0.4204 -0.0245  0.4075
    2SAPS   H9R  187   1.901   3.808   8.980  0.1410  0.9044  0.0597
    2SAPS  C210  188   2.099   3.941   9.004  0.7346 -0.5924 -0.3771
    2SAPS  H10R  189   2.191   3.924   9.065  0.7547 -0.8952 -0.4860
    2SAPS  H10S  190   2.073   4.045   9.033 -1.1053 -1.2522  0.5109
    2SAPS  C211  191   2.136   3.908   8.863  0.3594 -0.1575 -0.5273
    2SAPS  H11R  192   2.195   3.817   8.852 -1.6466 -1.8021  1.3388
    2SAPS  C212  193   2.105   3.981   8.756  0.8231 -0.0843  0.6486
    2SAPS  H12R  194   2.135   3.945   8.657 -1.3755 -2.1392  0.6227
    2SAPS  C213  195   2.016   4.102   8.758 -0.2097  0.6232  0.1792
    2SAPS  H13R  196   2.075   4.186   8.715  0.0046  0.6966  0.6098
    2SAPS  H13S  197   1.983   4.142   8.856 -1.9978  2.1515 -0.9813
    2SAPS  C214  198   1.905   4.079   8.667  0.3492  0.3717  0.2965
    2SAPS  H14R  199   1.904   3.989   8.604 -0.8390  0.7308 -0.2186
    2SAPS  C215  200   1.814   4.176   8.637  0.0196 -0.1662  0.2060
    2SAPS  H15R  201   1.736   4.142   8.567  0.8829 -2.8148  0.4096
    2SAPS  C216  202   1.803   4.315   8.701 -0.2140 -0.0124  0.2301
    2SAPS  H16R  203   1.801   4.381   8.612  0.2525 -0.5711 -0.2078
    2SAPS  H16S  204   1.886   4.345   8.769 -2.4063  4.0272  1.4671
    2SAPS  C217  205   1.672   4.324   8.776 -0.1163  0.7627 -0.7945
    2SAPS  H17R  206   1.592   4.271   8.721  2.8699 -1.1550 -3.6467
    2SAPS  H17S  207   1.652   4.432   8.793  0.1937  0.6916  0.0868
    2SAPS  C218  208   1.684   4.261   8.917 -0.1026 -0.2861  0.4842
    2SAPS  H18R  209   1.695   4.152   8.901 -0.6382 -0.6599  2.3482
    2SAPS  H18S  210   1.589   4.284   8.970  1.0566 -1.3202  3.2425
    2SAPS  C219  211   1.794   4.314   9.012 -0.5473 -0.6291  0.0431
    2SAPS  H19R  212   1.767   4.417   9.043  2.4203  0.6185 -1.1626
    2SAPS  H19S  213   1.901   4.307   8.983  0.3748 -2.1666  3.2910
    2SAPS  C220  214   1.788   4.233   9.137  0.1967  0.0101 -0.2135
    2SAPS  H20R  215   1.806   4.126   9.117 -0.6728  0.0450 -1.3022
    2SAPS  H20S  216   1.693   4.239   9.194 -0.6935 -0.7142 -1.5559
    2SAPS  H20T  217   1.869   4.264   9.206 -0.5117 -0.6473  0.9455
    2SAPS   C33  218   2.546   3.341   9.775  0.2655 -0.2035  0.0570
    2SAPS   H3X  219   2.654   3.322   9.755 -0.4138 -1.7494 -2.7090
    2SAPS   H3Y  220   2.537   3.433   9.837 -0.1388  0.5454 -1.0743
    2SAPS   C34  221   2.475   3.351   9.641 -0.0105  0.0362  0.2466
    2SAPS   H4X  222   2.365   3.335   9.644  0.0366 -1.2136 -2.3618
    2SAPS   H4Y  223   2.517   3.267   9.582 -0.3489 -0.4560  0.6935
    2SAPS   C35  224   2.509   3.472   9.557  0.3030 -0.5201  0.5774
    2SAPS   H5X  225   2.619   3.485   9.559  0.0760  1.9219  0.2233
    2SAPS   H5Y  226   2.466   3.565   9.601 -0.1121 -0.5037  0.1488
    2SAPS   C36  227   2.451   3.463   9.418 -0.1612 -0.3537 -0.2895
    2SAPS   H6X  228   2.345   3.433   9.433 -0.0803  0.1667  1.7311
    2SAPS   H6Y  229   2.501   3.384   9.357 -1.7276 -1.1538 -0.5885
    2SAPS   C37  230   2.478   3.588   9.326  0.8371  0.1639  0.4314
    2SAPS   H7X  231   2.587   3.599   9.309  0.5071  1.5174 -1.1352
    2SAPS   H7Y  232   2.439   3.676   9.382 -0.4502  1.9547 -2.9614
    2SAPS   C38  233   2.419   3.589   9.187  1.2505 -0.5916 -0.5153
    2SAPS   H8X  234   2.460   3.674   9.130 -1.0888  0.5551 -0.6135
    2SAPS   H8Y  235   2.311   3.612   9.199  1.7988  1.8937  0.0328
    2SAPS   C39  236   2.439   3.463   9.109  0.3147  0.2921  0.1336
    2SAPS   H9X  237   2.390   3.381   9.165  0.7023  0.2167  0.3651
    2SAPS   H9Y  238   2.547   3.443   9.096  0.0997 -0.5264 -0.4773
    2SAPS  C310  239   2.368   3.475   8.971 -0.3084 -0.7167 -0.2921
    2SAPS  H10X  240   2.259   3.472   8.990 -0.1408 -3.6720  0.6915
    2SAPS  H10Y  241   2.384   3.377   8.920  0.1860 -0.0867 -1.3963
    2SAPS  C311  242   2.422   3.578   8.873 -0.9166  0.3826  0.0946
    2SAPS  H11X  243   2.457   3.671   8.924  0.1001 -0.0030  0.1033
    2SAPS  H11Y  244   2.328   3.616   8.827 -0.1318  2.8040  0.3474
    2SAPS  C312  245   2.523   3.540   8.767  0.1682  0.0829 -0.8842
    2SAPS  H12X  246   2.531   3.429   8.763  2.3979  0.0422  1.9098
    2SAPS  H12Y  247   2.623   3.565   8.807 -0.3050 -0.3266  0.6040
    2SAPS  C313  248   2.506   3.592   8.630 -0.1405 -0.1885 -0.1158
    2SAPS  H13X  249   2.598   3.572   8.570  1.5199  0.2386  2.1330
    2SAPS  H13Y  250   2.497   3.703   8.628 -3.2163 -0.3543  0.1081
    2SAPS  C314  251   2.372   3.553   8.563  0.4065 -0.3804  0.1910
    2SAPS  H14X  252   2.286   3.608   8.606  0.2005  0.6147 -1.4145
    2SAPS  H14Y  253   2.356   3.444   8.576 -1.2550  0.0201  2.0011
    2SAPS  C315  254   2.374   3.579   8.407 -0.7414 -0.0055 -0.3950
    2SAPS  H15X  255   2.293   3.517   8.364 -1.2077 -0.1876  0.7149
    2SAPS  H15Y  256   2.467   3.532   8.370 -2.2079 -1.1532 -2.8355
    2SAPS  C316  257   2.361   3.730   8.374 -0.0077  0.7815 -0.3263
    2SAPS  H16X  258   2.370   3.748   8.265 -0.7598  0.1051 -0.5053
    2SAPS  H16Y  259   2.441   3.786   8.427 -0.8289  1.9726 -0.3037
    2SAPS  C317  260   2.228   3.796   8.418 -0.2809 -0.4298  0.1506
    2SAPS  H17X  261   2.223   3.807   8.528  1.0741 -0.6703  0.2555
    2SAPS  H17Y  262   2.143   3.729   8.391  1.0699 -2.3456  0.4692
    2SAPS  C318  263   2.209   3.922   8.337 -0.2431 -0.3049 -0.0295
    2SAPS  H18X  264   2.297   3.989   8.352 -1.0957  0.9882 -0.5878
    2SAPS  H18Y  265   2.121   3.976   8.378  1.0150  1.8078  0.0457
    2SAPS  H18Z  266   2.209   3.907   8.227  0.1888 -0.1077 -0.0576
    3SAPS     N  267   2.831   6.664  10.698 -0.0417 -0.1123  0.2738
    3SAPS   HN1  268   2.853   6.727  10.617  4.5378  0.6011  1.7714
    3SAPS   HN2  269   2.739   6.693  10.736  0.3740  0.5865  0.7745
    3SAPS   HN3  270   2.910   6.662  10.765 -0.1762 -0.9307  0.4098
    3SAPS   C12  271   2.814   6.531  10.642  0.2130  0.1818 -0.5208
    3SAPS  H12A  272   2.893   6.534  10.568 -0.0841  1.3788 -0.8178
    3SAPS   C13  273   2.846   6.415  10.738  0.0291  0.0525 -0.3240
    3SAPS  O13A  274   2.836   6.444  10.856  0.1264 -0.1101 -0.8747
    3SAPS  O13B  275   2.868   6.295  10.704  0.4982  0.3871 -0.4088
    3SAPS   C11  276   2.678   6.531  10.571 -0.4133 -0.3846  0.1378
    3SAPS  H11A  277   2.605   6.525  10.655 -0.2206  1.4679  0.4829
    3SAPS  H11B  278   2.684   6.438  10.511  0.6743  0.4895 -1.1650
    3SAPS     P  279   2.553   6.655  10.383  0.2442  0.2415  0.3848
    3SAPS   O13  280   2.426   6.602  10.445 -0.8460 -0.6492  0.0937
    3SAPS   O14  281   2.552   6.794  10.334  0.3344  0.2766 -0.2426
    3SAPS   O12  282   2.667   6.645  10.486  0.6055  0.0854  0.5401
    3SAPS   O11  283   2.600   6.553  10.271  0.0067  0.4057  0.0896
    3SAPS    C1  284   2.728   6.530  10.213  0.2182  0.2055 -0.4456
    3SAPS    HA  285   2.808   6.596  10.254  1.2917 -0.1229 -1.9218
    3SAPS    HB  286   2.756   6.425  10.234  0.7218  0.2185 -1.0052
    3SAPS    C2  287   2.715   6.532  10.056 -0.4268 -0.8365 -0.4662
    3SAPS    HS  288   2.816   6.522  10.011 -1.2589  0.7995 -2.8855
    3SAPS   O21  289   2.654   6.651  10.007  0.2259 -0.0202 -0.6601
    3SAPS   C21  290   2.716   6.766  10.018  0.1942  0.2029  0.6736
    3SAPS   O22  291   2.827   6.791  10.058  0.0681 -0.2549  0.6254
    3SAPS   C22  292   2.620   6.870   9.981  0.7861 -0.5495  0.3455
    3SAPS   H2R  293   2.521   6.832   9.949  1.6901 -2.8955  0.1425
    3SAPS   H2S  294   2.610   6.944  10.064  1.3753 -0.1319  0.0496
    3SAPS    C3  295   2.642   6.411  10.001  0.5639  0.2858  0.0329
    3SAPS    HX  296   2.535   6.422  10.030  0.9713  0.4205  1.6097
    3SAPS    HY  297   2.687   6.321  10.047 -2.0048  0.3162  2.9607
    3SAPS   O31  298   2.637   6.406   9.856  0.1904  0.3253 -0.2294
    3SAPS   C31  299   2.745   6.351   9.795  0.3647  0.1702  0.2369
    3SAPS   O32  300   2.845   6.314   9.851  0.4263 -0.2024 -0.0872
    3SAPS   C32  301   2.720   6.329   9.645  0.0205  0.0513  0.3573
    3SAPS   H2X  302   2.688   6.422   9.593 -1.9536 -0.7550  0.0085
    3SAPS   H2Y  303   2.638   6.255   9.632 -1.6407  1.8653 -0.0590
    3SAPS   C23  304   2.673   6.965   9.867  0.3714 -0.1495  0.2535
    3SAPS   H3R  305   2.776   7.000   9.887  0.4633 -1.4551  2.4867
    3SAPS   H3S  306   2.597   7.046   9.873  1.1816  0.5267  1.8927
    3SAPS   C24  307   2.663   6.914   9.718 -0.3607 -0.2753 -0.0388
    3SAPS   H4R  308   2.663   6.994   9.641  1.8441  0.5407  0.7138
    3SAPS   H4S  309   2.560   6.873   9.718  0.0563 -1.3853 -0.7125
    3SAPS   C25  310   2.774   6.811   9.684  0.4916 -0.4042 -0.0986
    3SAPS   H5R  311   2.837   6.794   9.772  1.2181 -0.7775 -0.6762
    3SAPS   C26  312   2.803   6.748   9.571  0.2441 -0.3534  0.5980
    3SAPS   H6R  313   2.898   6.694   9.566 -1.8558 -4.3554  0.0510
    3SAPS   C27  314   2.728   6.770   9.439  0.1204 -0.2479 -0.0776
    3SAPS   H7R  315   2.623   6.801   9.457 -0.3345  0.9898 -3.9216
    3SAPS   H7S  316   2.735   6.676   9.380  2.9102 -0.3766  0.3266
    3SAPS   C28  317   2.792   6.886   9.361 -0.4047  0.2282  0.3625
    3SAPS   H8R  318   2.853   6.953   9.423 -1.1765  1.3259 -0.0275
    3SAPS   C29  319   2.772   6.919   9.232 -0.2142  0.1441  0.7098
    3SAPS   H9R  320   2.832   7.003   9.192  1.1931 -0.6695  1.0197
    3SAPS  C210  321   2.688   6.838   9.132 -0.3491 -0.7486 -0.6682
    3SAPS  H10R  322   2.628   6.764   9.188 -2.2745 -0.5761 -2.3991
    3SAPS  H10S  323   2.761   6.799   9.058  0.7629 -0.7862  0.4056
    3SAPS  C211  324   2.598   6.937   9.073 -0.3063  0.1108  0.1211
    3SAPS  H11R  325   2.519   6.976   9.139 -1.4800  1.1501 -1.8221
    3SAPS  C212  326   2.599   6.985   8.947  0.8934 -0.1360  0.2615
    3SAPS  H12R  327   2.515   7.052   8.921  0.7311 -0.7799 -0.9906
    3SAPS  C213  328   2.699   6.953   8.837 -0.3192  0.0901 -1.2341
    3SAPS  H13R  329   2.788   6.897   8.874 -0.3087  0.6195 -0.4338
    3SAPS  H13S  330   2.737   7.044   8.786  0.2098  0.1789 -0.6862
    3SAPS  C214  331   2.619   6.861   8.745  0.3672 -0.1665 -0.3356
    3SAPS  H14R  332   2.579   6.770   8.792  1.4482  0.7804  2.6756
    3SAPS  C215  333   2.593   6.886   8.617  0.2160  0.2790  0.0829
    3SAPS  H15R  334   2.530   6.816   8.562  2.0786 -1.0052 -0.5245
    3SAPS  C216  335   2.628   7.001   8.526 -0.2207 -0.5954  0.0934
    3SAPS  H16R  336   2.677   6.957   8.437  1.5463  2.0341 -0.3490
    3SAPS  H16S  337   2.693   7.084   8.562 -2.5467  0.5777  1.8346
    3SAPS  C217  338   2.511   7.074   8.467 -0.1577 -0.9522 -0.5611
    3SAPS  H17R  339   2.477   7.144   8.546  0.6970  0.0159 -1.0404
    3SAPS  H17S  340   2.422   7.010   8.449 -3.3391  2.4453  1.7445
    3SAPS  C218  341   2.548   7.164   8.348 -0.5531 -0.6115 -0.6517
    3SAPS  H18R  342   2.595   7.102   8.270  1.2267 -0.9077  0.6073
    3SAPS  H18S  343   2.625   7.236   8.384 -1.0869 -1.6887  3.0346
    3SAPS  C219  344   2.418   7.233   8.293  0.0954 -0.3870 -0.0361
    3SAPS  H19R  345   2.367   7.286   8.376 -0.1074 -0.3607 -0.1785
    3SAPS  H19S  346   2.355   7.150   8.255  0.2724 -1.0675  1.0895
    3SAPS  C220  347   2.444   7.339   8.177  0.2529  0.6683  0.2990
    3SAPS  H20R  348   2.499   7.277   8.102  2.3156  0.4918  1.8408
    3SAPS  H20S  349   2.508   7.421   8.216  0.8073 -0.3496  1.6329
    3SAPS  H20T  350   2.352   7.379   8.129  0.9344  0.6174 -1.1236
    3SAPS   C33  351   2.843   6.268   9.569 -0.5857 -0.6320  0.1928
    3SAPS   H3X  352   2.868   6.164   9.598 -0.2739  0.0369  2.5061
    3SAPS   H3Y  353   2.934   6.326   9.595  0.0774 -1.6660  0.2580
    3SAPS   C34  354   2.840   6.274   9.416  0.0319 -0.1395  1.2873
    3SAPS   H4X  355   2.789   6.182   9.380  0.5371  0.3422 -0.8302
    3SAPS   H4Y  356   2.943   6.267   9.374 -0.8863 -0.2487 -1.1215
    3SAPS   C35  357   2.761   6.385   9.349 -0.1804  0.1895  0.8335
    3SAPS   H5X  358   2.811   6.483   9.360 -1.7358  0.9501  1.4735
    3SAPS   H5Y  359   2.656   6.392   9.387 -0.7948  0.3745 -0.8018
    3SAPS   C36  360   2.735   6.338   9.203 -0.5528  0.5459 -0.2098
    3SAPS   H6X  361   2.676   6.245   9.188 -0.6679  0.1168  2.4645
    3SAPS   H6Y  362   2.835   6.313   9.161 -0.8185 -0.4834 -0.2638
    3SAPS   C37  363   2.678   6.446   9.100 -0.1341 -0.2920 -0.0980
    3SAPS   H7X  364   2.754   6.527   9.106 -2.0289  1.5334  0.6930
    3SAPS   H7Y  365   2.575   6.481   9.121  0.2470  1.7731 -1.3083
    3SAPS   C38  366   2.678   6.395   8.951  0.2001  0.1061  0.6090
    3SAPS   H8X  367   2.625   6.299   8.933  0.4573 -0.4508  2.5876
    3SAPS   H8Y  368   2.781   6.387   8.910 -0.1507  1.4427 -0.6000
    3SAPS   C39  369   2.615   6.502   8.864 -0.7408 -0.4513 -0.1494
    3SAPS   H9X  370   2.683   6.588   8.882  2.5379 -3.1121  1.3352
    3SAPS   H9Y  371   2.520   6.530   8.915  1.1384 -0.0294  3.4402
    3SAPS  C310  372   2.603   6.466   8.708  0.1313 -0.5324  0.4373
    3SAPS  H10X  373   2.505   6.484   8.658  0.8890 -0.3416 -1.0164
    3SAPS  H10Y  374   2.607   6.355   8.710  1.8135 -0.5187  3.0541
    3SAPS  C311  375   2.718   6.521   8.629  0.3128 -0.1924 -0.4496
    3SAPS  H11X  376   2.808   6.457   8.641  0.6360  0.1829 -0.8295
    3SAPS  H11Y  377   2.748   6.619   8.672 -0.3714  0.0214 -0.4432
    3SAPS  C312  378   2.683   6.527   8.478 -0.2364 -0.8430 -0.5531
    3SAPS  H12X  379   2.595   6.594   8.472  0.0373 -0.3594  0.5372
    3SAPS  H12Y  380   2.645   6.424   8.457 -0.2539 -0.5444 -2.1030
    3SAPS  C313  381   2.795   6.571   8.381  0.2477  0.0116  0.1561
    3SAPS  H13X  382   2.740   6.558   8.285  1.1258 -0.9643 -0.2247
    3SAPS  H13Y  383   2.878   6.501   8.400 -1.1607 -1.4522  1.2124
    3SAPS  C314  384   2.832   6.717   8.387  0.5564  0.7866  0.0151
    3SAPS  H14X  385   2.890   6.735   8.480 -0.1109 -1.6388  0.9893
    3SAPS  H14Y  386   2.742   6.780   8.379 -0.3753 -0.3039  1.4197
    3SAPS  C315  387   2.933   6.753   8.268  0.0722  0.3745 -0.2338
    3SAPS  H15X  388   2.885   6.747   8.168  4.7964 -1.2184 -2.6892
    3SAPS  H15Y  389   3.014   6.678   8.273 -0.8610 -0.5711  1.6657
    3SAPS  C316  390   3.000   6.889   8.283  0.8439  0.2440 -0.2643
    3SAPS  H16X  391   3.061   6.883   8.376 -0.7731  3.1923  1.1280
    3SAPS  H16Y  392   2.927   6.972   8.290 -0.5150 -1.0023  1.3466
    3SAPS  C317  393   3.106   6.896   8.171  0.0468 -0.2937 -0.6536
    3SAPS  H17X  394   3.043   6.894   8.080 -3.9444  1.2241  1.7903
    3SAPS  H17Y  395   3.162   6.802   8.186  1.4641  0.9727  3.5632
    3SAPS  C318  396   3.215   7.009   8.193  0.3776 -0.0663 -0.1561
    3SAPS  H18X  397   3.294   7.006   8.115  1.0009 -0.7164  0.4759
    3SAPS  H18Y  398   3.265   6.981   8.289 -1.6826  0.0523  1.0102
    3SAPS  H18Z  399   3.168   7.109   8.203 -0.9604 -0.6231 -0.6907
    4SAPS     N  400   3.055   5.884  10.528  0.3468  0.5297 -0.0948
    4SAPS   HN1  401   3.060   5.967  10.591 -0.2980  1.5998 -1.4023
    4SAPS   HN2  402   3.057   5.919  10.430  0.2223 -1.1465 -0.7319
    4SAPS   HN3  403   2.962   5.839  10.538 -0.0311  0.7578 -2.1659
    4SAPS   C12  404   3.155   5.783  10.560 -0.6119  0.0676 -0.2078
    4SAPS  H12A  405   3.248   5.835  10.577 -0.6157  0.1166 -0.3343
    4SAPS   C13  406   3.138   5.703  10.692 -0.2920 -0.1464 -0.2268
    4SAPS  O13A  407   3.027   5.713  10.749  0.9148  0.9140 -0.2345
    4SAPS  O13B  408   3.231   5.621  10.730  0.1769 -0.1160  0.4265
    4SAPS   C11  409   3.176   5.693  10.435 -0.3715  0.1592 -0.6130
    4SAPS  H11A  410   3.087   5.627  10.421 -0.4146  0.1602 -0.3474
    4SAPS  H11B  411   3.260   5.628  10.465  0.2030  1.3532  0.4401
    4SAPS     P  412   3.342   5.787  10.257  0.2664 -0.1731 -0.1938
    4SAPS   O13  413   3.437   5.843  10.356 -0.2189 -0.2766 -0.3195
    4SAPS   O14  414   3.379   5.669  10.185  0.2136  0.8087 -0.3912
    4SAPS   O12  415   3.194   5.771  10.322 -0.1315  0.0560  0.1218
    4SAPS   O11  416   3.322   5.899  10.145  0.3275 -0.0707  0.4123
    4SAPS    C1  417   3.208   5.882  10.050 -0.9358 -0.8135  0.0779
    4SAPS    HA  418   3.194   5.776  10.020  1.8746 -0.2296 -4.0226
    4SAPS    HB  419   3.116   5.930  10.089 -0.5168  0.9348 -0.9625
    4SAPS    C2  420   3.235   5.946   9.911  0.1333  0.0373  0.2133
    4SAPS    HS  421   3.150   5.928   9.842 -0.8138  0.3096  1.2849
    4SAPS   O21  422   3.361   5.892   9.860 -0.0162  0.0805 -0.4433
    4SAPS   C21  423   3.350   5.763   9.809  0.9588 -0.1165 -0.4943
    4SAPS   O22  424   3.245   5.702   9.799  0.1484 -0.3386  0.9083
    4SAPS   C22  425   3.487   5.714   9.765  0.0713  0.3273  0.4813
    4SAPS   H2R  426   3.498   5.719   9.654  0.9268  2.1970  0.5987
    4SAPS   H2S  427   3.556   5.790   9.809 -1.2944  1.4183  0.8258
    4SAPS    C3  428   3.243   6.099   9.927  0.8325  0.2180  0.4373
    4SAPS    HX  429   3.338   6.121   9.981  0.8170 -0.4978  0.7662
    4SAPS    HY  430   3.159   6.134   9.991  0.8183  1.1697 -0.0905
    4SAPS   O31  431   3.239   6.159   9.794 -0.8180  0.4191  0.0841
    4SAPS   C31  432   3.358   6.198   9.749 -0.4337 -0.3927 -0.0051
    4SAPS   O32  433   3.468   6.180   9.799  0.5398  0.3070  0.4793
    4SAPS   C32  434   3.338   6.279   9.625 -0.5305 -0.0182 -0.3316
    4SAPS   H2X  435   3.424   6.349   9.613 -1.2607  0.8300 -0.8136
    4SAPS   H2Y  436   3.248   6.343   9.641 -0.1849  0.0452  1.6395
    4SAPS   C23  437   3.523   5.572   9.832  0.2903 -0.6546  0.1573
    4SAPS   H3R  438   3.452   5.494   9.796 -1.1500  1.0138 -0.7784
    4SAPS   H3S  439   3.511   5.585   9.941 -0.1541 -1.2214  0.1834
    4SAPS   C24  440   3.667   5.541   9.792  0.1355 -0.5228 -0.4210
    4SAPS   H4R  441   3.736   5.613   9.841 -1.1811  0.3171  0.2758
    4SAPS   H4S  442   3.665   5.550   9.682 -3.6890 -0.7607 -0.5107
    4SAPS   C25  443   3.712   5.394   9.829 -0.0532 -0.7051  0.3272
    4SAPS   H5R  444   3.736   5.374   9.935 -0.8759  0.4957  0.7578
    4SAPS   C26  445   3.713   5.278   9.755 -0.5183  0.1542 -0.0176
    4SAPS   H6R  446   3.737   5.187   9.812  1.7274  1.4660  1.2548
    4SAPS   C27  447   3.679   5.261   9.604 -0.9412 -0.1007 -1.0060
    4SAPS   H7R  448   3.775   5.247   9.549 -0.1410 -0.7052  0.5106
    4SAPS   H7S  449   3.644   5.360   9.568  1.9441  0.3713 -2.8472
    4SAPS   C28  450   3.580   5.160   9.559 -0.0352  0.2140 -0.0013
    4SAPS   H8R  451   3.492   5.143   9.624  1.1578 -0.3197  1.5210
    4SAPS   C29  452   3.570   5.094   9.435  0.4360 -0.0052  0.4974
    4SAPS   H9R  453   3.488   5.021   9.426 -0.5639  0.4660  4.1123
    4SAPS  C210  454   3.666   5.121   9.321  0.4864  0.8147  0.1941
    4SAPS  H10R  455   3.762   5.163   9.358  1.0279 -0.2794  0.0930
    4SAPS  H10S  456   3.622   5.196   9.252 -2.8367  1.1783  2.4245
    4SAPS  C211  457   3.693   5.000   9.230 -0.2529  0.3727 -0.4784
    4SAPS  H11R  458   3.784   4.943   9.251  1.3592  2.4128 -1.5794
    4SAPS  C212  459   3.620   4.956   9.127  0.1153  0.6231 -0.8075
    4SAPS  H12R  460   3.656   4.866   9.075 -1.2500 -0.2256 -0.3663
    4SAPS  C213  461   3.493   5.016   9.078  0.1519 -0.1334 -0.1981
    4SAPS  H13R  462   3.505   5.075   8.985 -1.8630 -1.0188 -1.0841
    4SAPS  H13S  463   3.460   5.079   9.163  1.8493  0.5991 -0.0486
    4SAPS  C214  464   3.395   4.903   9.064  0.0835 -0.0008  0.1702
    4SAPS  H14R  465   3.350   4.878   9.161  0.8784  0.9627  0.8126
    4SAPS  C215  466   3.369   4.836   8.947  0.0227 -0.0599  0.1302
    4SAPS  H15R  467   3.295   4.754   8.950 -1.1631  0.9877  0.2286
    4SAPS  C216  468   3.426   4.861   8.806  0.7666 -0.0999 -0.5922
    4SAPS  H16R  469   3.497   4.946   8.802  0.0046  0.5188 -1.4407
    4SAPS  H16S  470   3.351   4.893   8.730 -0.6170 -4.1548 -1.1734
    4SAPS  C217  471   3.473   4.732   8.732 -0.2041 -0.1068 -0.8609
    4SAPS  H17R  472   3.381   4.677   8.702  0.1087 -1.0915 -0.0947
    4SAPS  H17S  473   3.524   4.670   8.808 -1.6838  1.1703  1.2780
    4SAPS  C218  474   3.556   4.757   8.614 -0.5414  0.3882  0.5575
    4SAPS  H18R  475   3.651   4.812   8.631 -0.0369  0.5817 -2.3660
    4SAPS  H18S  476   3.497   4.824   8.549  2.1061 -0.2054 -2.7438
    4SAPS  C219  477   3.582   4.622   8.547  0.5008  0.3089  0.3356
    4SAPS  H19R  478   3.482   4.581   8.520 -0.4478  1.5674  1.7778
    4SAPS  H19S  479   3.604   4.550   8.628  0.9829  1.1641  0.9850
    4SAPS  C220  480   3.682   4.631   8.432  0.7764 -0.0262  0.0958
    4SAPS  H20R  481   3.782   4.664   8.465  0.6800  0.0710  0.2935
    4SAPS  H20S  482   3.643   4.699   8.353  1.6483  0.4772  0.0967
    4SAPS  H20T  483   3.684   4.528   8.389 -1.7256  0.1650 -0.6621
    4SAPS   C33  484   3.328   6.185   9.501  0.8861  0.1057  0.5232
    4SAPS   H3X  485   3.310   6.244   9.408 -1.7857 -1.6015 -0.1712
    4SAPS   H3Y  486   3.234   6.126   9.511  0.6261  0.7180  1.9296
    4SAPS   C34  487   3.451   6.102   9.487 -0.0668  0.3907  0.2436
    4SAPS   H4X  488   3.498   6.056   9.577  2.1263 -0.3474 -1.1900
    4SAPS   H4Y  489   3.537   6.169   9.466 -0.2000  0.6546  0.5330
    4SAPS   C35  490   3.420   5.989   9.385 -0.2062 -0.2091 -0.3584
    4SAPS   H5X  491   3.389   6.025   9.285 -0.3863  2.2427  0.5089
    4SAPS   H5Y  492   3.342   5.924   9.430 -0.0263  0.9595  1.7797
    4SAPS   C36  493   3.552   5.902   9.361 -0.9099 -0.0888 -0.2391
    4SAPS   H6X  494   3.570   5.871   9.466 -0.5492 -1.1957 -0.6115
    4SAPS   H6Y  495   3.636   5.968   9.332 -1.2084 -0.5569 -2.3272
    4SAPS   C37  496   3.539   5.780   9.271 -0.8292 -0.5822  0.6980
    4SAPS   H7X  497   3.623   5.709   9.289  0.7342  0.4377 -1.9790
    4SAPS   H7Y  498   3.561   5.817   9.169 -1.7438 -1.6157  0.1092
    4SAPS   C38  499   3.409   5.692   9.268 -0.5591 -0.6148 -0.3300
    4SAPS   H8X  500   3.332   5.762   9.228 -1.7676 -0.1696  2.5119
    4SAPS   H8Y  501   3.386   5.670   9.375 -0.9831  0.3085 -0.2131
    4SAPS   C39  502   3.424   5.580   9.172  0.6345 -0.3081  0.5220
    4SAPS   H9X  503   3.510   5.513   9.194  1.0001 -1.0556 -2.6746
    4SAPS   H9Y  504   3.442   5.617   9.069 -2.6442  2.2617  0.6942
    4SAPS  C310  505   3.305   5.483   9.161  0.8214 -0.0789  0.7900
    4SAPS  H10X  506   3.344   5.385   9.124 -0.5561 -0.5648  0.5721
    4SAPS  H10Y  507   3.226   5.509   9.089  0.2070 -0.7768  1.2009
    4SAPS  C311  508   3.234   5.457   9.295  0.5541 -0.9629  0.4312
    4SAPS  H11X  509   3.138   5.403   9.286  0.3308 -0.5937  0.5632
    4SAPS  H11Y  510   3.210   5.559   9.335 -0.3370 -0.9527 -0.1055
    4SAPS  C312  511   3.322   5.383   9.397  0.3919 -0.0001 -0.1992
    4SAPS  H12X  512   3.426   5.422   9.398  0.4952 -0.0533  3.0387
    4SAPS  H12Y  513   3.328   5.277   9.363 -0.2856 -0.2711  0.4738
    4SAPS  C313  514   3.268   5.401   9.539  0.0991  0.1030  0.0746
    4SAPS  H13X  515   3.262   5.510   9.558  1.5211  0.9784 -3.7393
    4SAPS  H13Y  516   3.321   5.342   9.617  0.5348 -1.0679 -1.0717
    4SAPS  C314  517   3.130   5.334   9.555  0.4784 -0.0608 -0.5499
    4SAPS  H14X  518   3.149   5.228   9.582  3.5644  0.2024 -1.2733
    4SAPS  H14Y  519   3.063   5.339   9.466 -0.1354 -1.4890 -0.1897
    4SAPS  C315  520   3.061   5.393   9.684  0.2252  0.1811 -0.0796
    4SAPS  H15X  521   3.033   5.500   9.675  0.1265  0.2540  0.9885
    4SAPS  H15Y  522   3.145   5.383   9.756  0.1438 -1.8101 -0.1946
    4SAPS  C316  523   2.938   5.316   9.731 -0.0225 -0.0243 -0.4383
    4SAPS  H16X  524   2.912   5.338   9.836 -1.0578 -0.4671 -0.5973
    4SAPS  H16Y  525   2.970   5.210   9.728  1.0100  0.2644 -0.3032
    4SAPS  C317  526   2.822   5.351   9.643 -0.8847 -1.0431 -0.6842
    4SAPS  H17X  527   2.837   5.371   9.534 -0.5313  3.2887  0.0060
    4SAPS  H17Y  528   2.788   5.447   9.687  0.1361 -0.0926 -1.8799
    4SAPS  C318  529   2.703   5.251   9.663  0.5071  0.2450  0.3635
    4SAPS  H18X  530   2.678   5.243   9.770  3.0725  0.6104  1.0766
    4SAPS  H18Y  531   2.730   5.153   9.618  0.1334  1.1481 -1.9825
    4SAPS  H18Z  532   2.620   5.286   9.598  2.2841  0.2801 -2.0726
    5SAPS     N  533   6.714   3.576  10.757  0.1211 -0.2455  0.2351
    5SAPS   HN1  534   6.718   3.613  10.660  0.9433  1.4555  0.8707
    5SAPS   HN2  535   6.725   3.473  10.756 -1.0561 -0.4129 -1.7484
    5SAPS   HN3  536   6.629   3.616  10.804 -1.4532 -3.1583  0.0966
    5SAPS   C12  537   6.828   3.607  10.847 -0.5203 -0.4690 -0.6029
    5SAPS  H12A  538   6.867   3.703  10.817  1.9635 -0.7486  1.3882
    5SAPS   C13  539   6.786   3.628  10.998  0.2494  0.1597 -0.2005
    5SAPS  O13A  540   6.666   3.608  11.024  0.1232 -0.3883  0.2012
    5SAPS  O13B  541   6.871   3.658  11.080 -0.3678  0.3661 -0.1222
    5SAPS   C11  542   6.944   3.503  10.831  0.6840 -0.1325 -0.6471
    5SAPS  H11A  543   6.919   3.409  10.885 -2.1652 -1.2539 -3.5620
    5SAPS  H11B  544   7.036   3.535  10.885  0.6543 -2.2959  0.8145
    5SAPS     P  545   7.104   3.519  10.613  0.0735 -0.2348 -0.4900
    5SAPS   O13  546   7.144   3.656  10.657  0.4236 -0.4497 -0.2498
    5SAPS   O14  547   7.207   3.414  10.615 -0.7692  0.1015 -0.3630
    5SAPS   O12  548   6.969   3.469  10.695 -0.5988 -0.0458  0.3577
    5SAPS   O11  549   7.049   3.544  10.466 -0.4161 -0.3048 -0.4516
    5SAPS    C1  550   7.098   3.645  10.385  0.0529 -0.1409 -0.2784
    5SAPS    HA  551   7.057   3.740  10.423  0.2414 -0.6791  1.3431
    5SAPS    HB  552   7.209   3.649  10.384  0.1269 -1.5062 -0.0758
    5SAPS    C2  553   7.055   3.621  10.239  0.5431  0.3836  0.3416
    5SAPS    HS  554   7.104   3.698  10.176  3.5838  0.0170  2.1217
    5SAPS   O21  555   6.915   3.609  10.220 -0.0111  0.1958  0.3001
    5SAPS   C21  556   6.854   3.721  10.221 -0.3453 -0.0244  0.5073
    5SAPS   O22  557   6.902   3.831  10.233  0.1344  0.2736 -0.2000
    5SAPS   C22  558   6.699   3.690  10.203  0.5721  0.0984 -0.3232
    5SAPS   H2R  559   6.685   3.591  10.250 -0.9326 -1.2863 -3.4026
    5SAPS   H2S  560   6.632   3.773  10.236 -0.8546 -0.2467 -2.1872
    5SAPS    C3  561   7.127   3.492  10.185 -0.2542 -0.1716 -0.4555
    5SAPS    HX  562   7.123   3.399  10.245 -1.2623 -1.1635 -1.9880
    5SAPS    HY  563   7.233   3.525  10.174 -0.4077  0.0320 -1.4485
    5SAPS   O31  564   7.090   3.463  10.053  0.9218 -0.6967 -0.1633
    5SAPS   C31  565   6.989   3.380  10.033 -0.2988 -0.3273  0.5042
    5SAPS   O32  566   6.931   3.332  10.121 -0.1628  0.1499 -0.4545
    5SAPS   C32  567   6.946   3.380   9.891  0.3096  0.9477  0.0923
    5SAPS   H2X  568   7.033   3.345   9.831  0.4537  0.6990  0.4393
    5SAPS   H2Y  569   6.936   3.486   9.860 -0.4342  1.2892  1.4015
    5SAPS   C23  570   6.669   3.664  10.054  0.9523  0.3968 -0.8521
    5SAPS   H3R  571   6.744   3.597  10.007  0.0588 -1.7128  0.6176
    5SAPS   H3S  572   6.653   3.756   9.994 -0.9907  1.8520  1.6662
    5SAPS   C24  573   6.537   3.587  10.039  0.2015  0.8045  0.1599
    5SAPS   H4R  574   6.536   3.488  10.089 -0.6877 -0.4426 -2.1296
    5SAPS   H4S  575   6.519   3.555   9.933  0.9221 -0.3169  0.3601
    5SAPS   C25  576   6.419   3.675  10.084  0.1599  0.0053  0.0427
    5SAPS   H5R  577   6.408   3.690  10.193  0.2444 -3.3190  0.6236
    5SAPS   C26  578   6.345   3.748  10.000 -0.1096  0.0052  0.7940
    5SAPS   H6R  579   6.251   3.798  10.028 -1.1103  0.7954 -3.3650
    5SAPS   C27  580   6.355   3.751   9.845 -0.1063  0.1569  1.2963
    5SAPS   H7R  581   6.302   3.669   9.792  1.0825  0.3816 -0.3105
    5SAPS   H7S  582   6.463   3.743   9.819 -0.7579  0.1626 -1.9134
    5SAPS   C28  583   6.315   3.884   9.781 -0.2714 -0.0762  0.4747
    5SAPS   H8R  584   6.233   3.936   9.833 -0.2873 -0.7409  1.1367
    5SAPS   C29  585   6.373   3.952   9.680 -0.2612  0.0927  0.0794
    5SAPS   H9R  586   6.326   4.043   9.640  0.4510 -0.0042 -1.0101
    5SAPS  C210  587   6.497   3.903   9.616  0.4827 -0.5863 -0.4519
    5SAPS  H10R  588   6.528   3.803   9.655 -1.9204  0.0482  3.6410
    5SAPS  H10S  589   6.581   3.968   9.651  0.1646 -1.0602  1.2840
    5SAPS  C211  590   6.498   3.923   9.467  0.1245 -0.1782 -0.6443
    5SAPS  H11R  591   6.542   4.019   9.438 -1.4132  0.9516  0.5305
    5SAPS  C212  592   6.474   3.825   9.379 -0.2527 -0.5317  0.0947
    5SAPS  H12R  593   6.468   3.839   9.270  0.6324 -1.2972 -0.0571
    5SAPS  C213  594   6.420   3.693   9.415 -0.1015 -0.4211  0.0481
    5SAPS  H13R  595   6.440   3.661   9.519 -2.3376  1.7525  1.2420
    5SAPS  H13S  596   6.476   3.615   9.358 -1.4506 -1.7457  0.4649
    5SAPS  C214  597   6.269   3.673   9.408  0.0071  0.2580 -0.2506
    5SAPS  H14R  598   6.219   3.683   9.505 -1.3001  0.0160 -0.8787
    5SAPS  C215  599   6.190   3.658   9.295  0.7299  0.2782  0.4673
    5SAPS  H15R  600   6.081   3.657   9.307  0.8628 -3.1717  2.5994
    5SAPS  C216  601   6.234   3.651   9.150  0.1147 -0.1177  0.2320
    5SAPS  H16R  602   6.333   3.606   9.126 -0.0751 -0.6970  0.5047
    5SAPS  H16S  603   6.235   3.753   9.107 -0.2402 -0.8365 -1.5620
    5SAPS  C217  604   6.135   3.570   9.059  0.1156 -0.0747 -0.8539
    5SAPS  H17R  605   6.037   3.617   9.080  0.8508  1.1706 -0.0476
    5SAPS  H17S  606   6.141   3.464   9.092  0.8020  0.0519 -0.5388
    5SAPS  C218  607   6.181   3.579   8.916  0.8911 -0.2730  0.0144
    5SAPS  H18R  608   6.196   3.686   8.890 -1.5715  0.4919  1.4481
    5SAPS  H18S  609   6.268   3.511   8.904  0.2514 -1.0304 -0.4378
    5SAPS  C219  610   6.057   3.524   8.836  0.2231  0.6412  0.3717
    5SAPS  H19R  611   6.001   3.446   8.891  0.6130 -1.3169 -1.8302
    5SAPS  H19S  612   6.104   3.487   8.742  0.7942  3.9840 -0.7906
    5SAPS  C220  613   5.964   3.645   8.798 -0.1149  0.9485 -0.2853
    5SAPS  H20R  614   5.896   3.615   8.716 -1.2193 -1.4926  1.4049
    5SAPS  H20S  615   6.019   3.733   8.759 -0.9633  1.9416  0.7251
    5SAPS  H20T  616   5.901   3.687   8.879 -2.7144  3.2982 -3.2868
    5SAPS   C33  617   6.818   3.296   9.864  0.2204 -0.6455  0.6426
    5SAPS   H3X  618   6.741   3.309   9.943 -0.1950 -1.9725  0.4889
    5SAPS   H3Y  619   6.839   3.188   9.874 -0.4239 -0.8091  0.3239
    5SAPS   C34  620   6.769   3.308   9.718 -0.7275  0.3523  0.9372
    5SAPS   H4X  621   6.855   3.292   9.650  0.2275  3.6289  1.1940
    5SAPS   H4Y  622   6.739   3.412   9.693 -1.0448  0.2575  0.9153
    5SAPS   C35  623   6.655   3.213   9.684 -0.3238  0.5939 -0.3482
    5SAPS   H5X  624   6.591   3.208   9.775 -1.2644  0.8661 -0.9862
    5SAPS   H5Y  625   6.701   3.114   9.664  0.7526  0.5391  2.0597
    5SAPS   C36  626   6.583   3.256   9.559  0.0511 -0.2360 -0.0691
    5SAPS   H6X  627   6.575   3.367   9.567  0.6832 -0.2691  1.5024
    5SAPS   H6Y  628   6.484   3.206   9.564  1.0487 -2.4461 -1.1085
    5SAPS   C37  629   6.658   3.228   9.434  0.2505  0.2732  0.2592
    5SAPS   H7X  630   6.687   3.122   9.417  0.3013  0.6519 -2.3469
    5SAPS   H7Y  631   6.750   3.290   9.438  0.6629 -0.3530  0.7955
    5SAPS   C38  632   6.581   3.276   9.306 -0.0683  0.0005  0.3674
    5SAPS   H8X  633   6.560   3.383   9.324  0.4269  0.2588 -0.5331
    5SAPS   H8Y  634   6.484   3.225   9.288  1.1675 -2.4346  0.0858
    5SAPS   C39  635   6.673   3.265   9.187  0.2516 -0.2262  0.2155
    5SAPS   H9X  636   6.698   3.161   9.159 -0.3498 -0.2314 -0.3005
    5SAPS   H9Y  637   6.773   3.311   9.207  0.8931 -1.0151 -1.0685
    5SAPS  C310  638   6.617   3.334   9.059  0.3941  0.7680 -0.0226
    5SAPS  H10X  639   6.629   3.443   9.076 -0.4914  0.7691  0.6780
    5SAPS  H10Y  640   6.508   3.318   9.042  0.2433  1.9793 -0.2625
    5SAPS  C311  641   6.694   3.295   8.932 -0.3707  0.2966  0.4507
    5SAPS  H11X  642   6.679   3.187   8.908  3.8481 -0.2115 -0.6887
    5SAPS  H11Y  643   6.802   3.312   8.952 -0.5822  1.2576  0.8119
    5SAPS  C312  644   6.665   3.379   8.805 -0.0424 -0.3759  0.0818
    5SAPS  H12X  645   6.748   3.361   8.733  0.6701  1.4793  0.3782
    5SAPS  H12Y  646   6.677   3.487   8.828 -3.2481  0.4742 -1.6976
    5SAPS  C313  647   6.525   3.355   8.742 -0.5505 -0.1955  0.8121
    5SAPS  H13X  648   6.449   3.398   8.810  0.1729  1.4100  0.6449
    5SAPS  H13Y  649   6.516   3.247   8.717 -0.4638  0.0537 -0.3726
    5SAPS  C314  650   6.511   3.430   8.604  0.8292  0.5025 -0.4338
    5SAPS  H14X  651   6.420   3.390   8.556 -0.5770  1.1017  1.5791
    5SAPS  H14Y  652   6.599   3.403   8.541 -1.1817  0.4631 -3.3837
    5SAPS  C315  653   6.509   3.584   8.633 -0.7731 -0.6332  0.4228
    5SAPS  H15X  654   6.589   3.612   8.705  0.6632  0.1282 -1.3737
    5SAPS  H15Y  655   6.411   3.591   8.685 -2.2484 -2.3982 -1.9266
    5SAPS  C316  656   6.506   3.679   8.518 -0.3672 -0.5610  0.7644
    5SAPS  H16X  657   6.600   3.671   8.460 -0.7519 -1.1648  0.2128
    5SAPS  H16Y  658   6.507   3.783   8.557 -1.6474 -0.0504 -0.5013
    5SAPS  C317  659   6.397   3.659   8.414  0.4049 -0.3864  0.2433
    5SAPS  H17X  660   6.394   3.555   8.377  0.1094 -1.0488  2.0046
    5SAPS  H17Y  661   6.419   3.737   8.339 -0.2110  0.3383  0.7928
    5SAPS  C318  662   6.254   3.669   8.466  0.6506 -0.5477  0.3846
    5SAPS  H18X  663   6.183   3.692   8.384 -1.1588 -1.2206  1.7034
    5SAPS  H18Y  664   6.243   3.745   8.546  0.6361 -2.1876  2.0030
    5SAPS  H18Z  665   6.215   3.576   8.514 -1.2443 -1.5388 -2.7987
    6SAPS     N  666   6.784   3.137  10.560 -0.0469  0.3472  0.1044
    6SAPS   HN1  667   6.682   3.118  10.553  0.2882 -1.5498 -0.2121
    6SAPS   HN2  668   6.814   3.231  10.527 -2.0883  0.7079 -0.8541
    6SAPS   HN3  669   6.836   3.070  10.499 -0.8068 -1.5235  1.4124
    6SAPS   C12  670   6.837   3.112  10.689  0.2767 -0.1338 -0.8745
    6SAPS  H12A  671   6.937   3.150  10.682 -0.6222  3.0264  1.0958
    6SAPS   C13  672   6.760   3.195  10.794 -0.3360 -0.0974 -0.7323
    6SAPS  O13A  673   6.691   3.300  10.768  0.1401  0.0066 -0.0090
    6SAPS  O13B  674   6.788   3.166  10.913  0.4168  0.1551 -0.1800
    6SAPS   C11  675   6.835   2.958  10.716  0.7758 -0.1210 -0.4771
    6SAPS  H11A  676   6.728   2.944  10.742  0.1857  3.2200 -0.5925
    6SAPS  H11B  677   6.885   2.920  10.808 -2.2766 -1.7495  0.6512
    6SAPS     P  678   7.004   2.854  10.562 -0.1377 -0.1142  0.3148
    6SAPS   O13  679   7.089   2.816  10.678  0.2586 -0.3334  0.1618
    6SAPS   O14  680   7.008   2.765  10.442 -0.2129  0.3947  0.2822
    6SAPS   O12  681   6.857   2.878  10.599 -0.0560  0.3691 -0.3228
    6SAPS   O11  682   7.036   2.999  10.517 -0.1847 -0.0389  0.3469
    6SAPS    C1  683   7.159   3.046  10.468  0.3474  0.0288 -0.3680
    6SAPS    HA  684   7.202   3.122  10.537  2.2570 -0.9109 -0.4551
    6SAPS    HB  685   7.232   2.965  10.448  1.0190  0.7494 -0.9144
    6SAPS    C2  686   7.142   3.114  10.332 -0.0622 -0.3775 -0.6373
    6SAPS    HS  687   7.077   3.204  10.336 -2.8567 -2.2264 -1.8818
    6SAPS   O21  688   7.089   3.019  10.234 -0.5415 -0.0402  0.0888
    6SAPS   C21  689   6.955   3.024  10.231 -0.3976  0.4731 -0.3071
    6SAPS   O22  690   6.874   3.086  10.291  0.2208  0.3651 -0.7802
    6SAPS   C22  691   6.918   2.923  10.126  0.2815  0.3671  0.3267
    6SAPS   H2R  692   6.959   2.961  10.030  0.1911  0.0515  0.1596
    6SAPS   H2S  693   6.971   2.827  10.146  1.9018  0.2048 -3.7515
    6SAPS    C3  694   7.274   3.168  10.269 -0.8964  0.3657 -0.4843
    6SAPS    HX  695   7.362   3.106  10.297 -1.5902  0.4831  2.3376
    6SAPS    HY  696   7.306   3.252  10.334  4.0390 -0.6348 -1.2450
    6SAPS   O31  697   7.265   3.209  10.130 -0.0159  0.0832  0.0678
    6SAPS   C31  698   7.304   3.126  10.037 -0.0688 -0.2387 -0.3969
    6SAPS   O32  699   7.371   3.027  10.060  0.5792  0.9253 -0.2022
    6SAPS   C32  700   7.213   3.157   9.914 -0.7646  0.6425  0.2944
    6SAPS   H2X  701   7.237   3.263   9.890 -0.9170  0.9943  1.5692
    6SAPS   H2Y  702   7.108   3.150   9.951 -0.0445  1.5781  2.7771
    6SAPS   C23  703   6.772   2.887  10.095  0.1081 -0.0082  0.6497
    6SAPS   H3R  704   6.721   2.970  10.042 -0.0525  0.3104  1.3014
    6SAPS   H3S  705   6.719   2.864  10.189  2.3313  1.3057  2.3256
    6SAPS   C24  706   6.768   2.762  10.005  0.4918  0.2573  0.0188
    6SAPS   H4R  707   6.661   2.732  10.007  0.0458  1.6618 -0.8689
    6SAPS   H4S  708   6.822   2.675  10.047  0.1077 -0.3132 -0.6482
    6SAPS   C25  709   6.807   2.787   9.861  0.2243 -1.0790 -0.8521
    6SAPS   H5R  710   6.915   2.789   9.841  0.5102  1.4010  0.4218
    6SAPS   C26  711   6.733   2.810   9.756  0.1668 -0.1480 -0.1176
    6SAPS   H6R  712   6.783   2.816   9.658 -0.8268  0.1128 -0.6182
    6SAPS   C27  713   6.587   2.803   9.751 -0.0603  0.3501  0.8839
    6SAPS   H7R  714   6.549   2.887   9.688  0.9868  1.5062  1.7319
    6SAPS   H7S  715   6.542   2.821   9.851  0.5658 -1.6042  1.5558
    6SAPS   C28  716   6.551   2.669   9.693  0.2615  0.5759  0.0066
    6SAPS   H8R  717   6.577   2.586   9.761 -1.4377 -0.3514 -0.4077
    6SAPS   C29  718   6.528   2.649   9.561 -0.4729  0.5463  0.0888
    6SAPS   H9R  719   6.519   2.546   9.524 -3.5667  0.9551 -0.6243
    6SAPS  C210  720   6.511   2.752   9.457 -0.2108 -0.2480 -0.2197
    6SAPS  H10R  721   6.609   2.763   9.407 -0.0377 -1.8887 -0.2855
    6SAPS  H10S  722   6.498   2.851   9.505  1.8224  0.0104 -0.1473
    6SAPS  C211  723   6.403   2.747   9.354 -0.4455 -0.7094  0.2708
    6SAPS  H11R  724   6.303   2.730   9.398  0.0683  1.2338  2.3470
    6SAPS  C212  725   6.411   2.745   9.222 -0.9780  0.3124 -0.5753
    6SAPS  H12R  726   6.321   2.746   9.159 -1.3162 -2.2453 -0.2262
    6SAPS  C213  727   6.544   2.750   9.140  0.7280 -0.2665 -0.2365
    6SAPS  H13R  728   6.546   2.667   9.066  0.1853 -0.6186  0.1338
    6SAPS  H13S  729   6.626   2.751   9.215  0.4130  1.5418  0.1409
    6SAPS  C214  730   6.567   2.880   9.059 -0.0655  0.0351  0.4566
    6SAPS  H14R  731   6.626   2.954   9.116  0.3079  1.4824 -1.6874
    6SAPS  C215  732   6.538   2.909   8.930 -0.0465  0.2444 -0.2971
    6SAPS  H15R  733   6.553   3.012   8.894 -0.3434  0.5000  0.2970
    6SAPS  C216  734   6.461   2.821   8.834  0.0300  0.0304  0.4074
    6SAPS  H16R  735   6.358   2.859   8.811  0.0919  0.3886  0.6955
    6SAPS  H16S  736   6.455   2.722   8.884  1.6169 -0.8046 -0.9821
    6SAPS  C217  737   6.518   2.786   8.690 -0.0730  0.5238  0.1283
    6SAPS  H17R  738   6.446   2.710   8.653  1.1930  0.1454 -1.6375
    6SAPS  H17S  739   6.620   2.743   8.699  0.4111  0.9540 -2.6133
    6SAPS  C218  740   6.526   2.909   8.604  0.5884 -0.4011  0.5490
    6SAPS  H18R  741   6.590   2.878   8.518  0.8135  0.1335  0.5128
    6SAPS  H18S  742   6.588   2.984   8.659  0.9843 -1.9805  2.3773
    6SAPS  C219  743   6.396   2.971   8.563  0.4072  0.2599  0.1430
    6SAPS  H19R  744   6.365   3.048   8.637  1.6764  0.9922 -0.0580
    6SAPS  H19S  745   6.325   2.886   8.561 -0.3317  0.8716 -0.3682
    6SAPS  C220  746   6.396   3.026   8.421 -0.1370 -0.3374 -0.5968
    6SAPS  H20R  747   6.432   2.954   8.344  1.5089  2.1530 -2.2822
    6SAPS  H20S  748   6.466   3.112   8.426 -0.4913 -0.0570 -0.4934
    6SAPS  H20T  749   6.294   3.064   8.400  0.0732  1.3757  1.2226
    6SAPS   C33  750   7.235   3.065   9.788  0.3349  0.2141  0.4513
    6SAPS   H3X  751   7.254   2.960   9.821  1.0566  0.8158  2.0385
    6SAPS   H3Y  752   7.323   3.103   9.732 -0.7312 -0.7953 -2.0358
    6SAPS   C34  753   7.109   3.080   9.698 -0.1240 -1.2079  0.1909
    6SAPS   H4X  754   7.117   3.180   9.650  1.5983 -1.2102  0.3912
    6SAPS   H4Y  755   7.019   3.083   9.762  1.5849 -1.2913  2.7505
    6SAPS   C35  756   7.096   2.984   9.576 -0.0661  0.5551  0.7563
    6SAPS   H5X  757   7.115   2.883   9.618  0.5132 -0.6194 -2.1314
    6SAPS   H5Y  758   7.170   3.002   9.495  0.5030 -1.0879  0.8733
    6SAPS   C36  759   6.965   3.005   9.509 -0.3942 -0.0600 -0.4072
    6SAPS   H6X  760   6.943   3.113   9.499 -1.2228 -0.1421  0.4207
    6SAPS   H6Y  761   6.879   2.985   9.576  0.5404 -0.4186  0.7177
    6SAPS   C37  762   6.942   2.941   9.368 -0.3505 -0.7260 -0.3309
    6SAPS   H7X  763   6.835   2.942   9.337  0.1555 -0.4542 -2.1262
    6SAPS   H7Y  764   6.983   2.838   9.371 -0.2399 -0.6988 -0.9676
    6SAPS   C38  765   7.022   2.998   9.247 -0.0401 -0.0575  0.2578
    6SAPS   H8X  766   7.130   3.017   9.267 -0.3451  2.1698  0.0325
    6SAPS   H8Y  767   6.975   3.095   9.221 -0.5717  0.2943  2.3550
    6SAPS   C39  768   7.011   2.890   9.139 -0.0668  0.5453  0.0354
    6SAPS   H9X  769   6.938   2.815   9.177 -0.7608 -0.4502 -2.9618
    6SAPS   H9Y  770   7.107   2.838   9.117  1.6093  2.8031  1.5748
    6SAPS  C310  771   6.972   2.953   9.007  0.0291  0.3554 -0.2443
    6SAPS  H10X  772   7.035   3.040   8.977  0.5607  0.0106 -0.1453
    6SAPS  H10Y  773   6.871   2.997   9.021 -0.2252  0.1637 -1.3466
    6SAPS  C311  774   6.960   2.857   8.893 -0.4555  0.3662 -0.4116
    6SAPS  H11X  775   6.858   2.812   8.892  0.4509 -1.8297 -1.0688
    6SAPS  H11Y  776   7.036   2.776   8.898 -0.1925  0.6685  0.6850
    6SAPS  C312  777   6.977   2.926   8.762 -0.0167 -0.0023 -0.7003
    6SAPS  H12X  778   6.945   2.849   8.689 -1.6682  0.4067 -0.4477
    6SAPS  H12Y  779   7.081   2.958   8.741  0.4462 -1.6262 -1.0078
    6SAPS  C313  780   6.881   3.039   8.747 -0.5855 -0.0569 -0.6289
    6SAPS  H13X  781   6.902   3.121   8.818 -0.2206  0.7576 -1.6416
    6SAPS  H13Y  782   6.781   3.005   8.781 -0.8323  0.1273 -1.1547
    6SAPS  C314  783   6.875   3.099   8.603 -0.3516 -0.0303 -0.2700
    6SAPS  H14X  784   6.776   3.148   8.600  0.0730  0.7869 -1.5691
    6SAPS  H14Y  785   6.878   3.020   8.526  0.6909  1.3649 -1.7201
    6SAPS  C315  786   6.987   3.201   8.578 -0.6319  0.2145 -0.5659
    6SAPS  H15X  787   7.081   3.156   8.616  0.2569  0.5334 -2.2863
    6SAPS  H15Y  788   6.967   3.286   8.647 -0.9520 -0.5791  0.3382
    6SAPS  C316  789   7.012   3.247   8.434  0.0408  0.8077 -0.2790
    6SAPS  H16X  790   7.032   3.156   8.374 -0.8230  1.1713 -1.1391
    6SAPS  H16Y  791   7.096   3.318   8.453 -0.9338  1.6599  1.0320
    6SAPS  C317  792   6.893   3.324   8.368 -0.0136  0.8155  0.2046
    6SAPS  H17X  793   6.942   3.407   8.313 -0.2320  0.7282 -0.1232
    6SAPS  H17Y  794   6.832   3.373   8.448  0.1031  1.2003  0.0596
    6SAPS  C318  795   6.810   3.241   8.273  0.0636  0.0205 -0.1735
    6SAPS  H18X  796   6.726   3.294   8.224 -0.5120 -0.2061  0.5503
    6SAPS  H18Y  797   6.775   3.149   8.325  2.2764  1.0385  3.5269
    6SAPS  H18Z  798   6.884   3.207   8.197  0.0737  0.9665 -0.5955
    7SAPS     N  799   2.219   5.443  10.642  0.4058 -0.3708  0.2823
    7SAPS   HN1  800   2.126   5.423  10.599  1.1578 -1.9713 -0.6985
    7SAPS   HN2  801   2.223   5.544  10.665  0.2341 -0.1516 -0.6116
    7SAPS   HN3  802   2.287   5.422  10.567 -1.1978  2.0423 -2.0471
    7SAPS   C12  803   2.225   5.367  10.774 -0.5861 -0.7068  0.1041
    7SAPS  H12A  804   2.325   5.383  10.813  0.2908  0.3434 -2.3584
    7SAPS   C13  805   2.119   5.419  10.876  0.2039 -0.4850 -0.2146
    7SAPS  O13A  806   2.032   5.494  10.830  0.2165 -0.1888  0.1265
    7SAPS  O13B  807   2.120   5.370  10.990 -0.4671  0.2589  0.5709
    7SAPS   C11  808   2.206   5.211  10.748  0.6238 -0.1182 -0.1601
    7SAPS  H11A  809   2.098   5.198  10.725  0.3532 -2.5252  1.9698
    7SAPS  H11B  810   2.203   5.160  10.847 -0.7416 -1.0780 -0.6589
    7SAPS     P  811   2.248   5.033  10.569  0.1616 -0.2640  0.1246
    7SAPS   O13  812   2.181   4.926  10.652 -0.2972 -0.7404 -0.0054
    7SAPS   O14  813   2.164   5.092  10.462  0.2338 -0.4647  0.1215
    7SAPS   O12  814   2.298   5.153  10.655  0.1809 -0.0700 -0.1988
    7SAPS   O11  815   2.376   4.977  10.496  0.7785  0.6940 -0.6748
    7SAPS    C1  816   2.503   5.039  10.486  0.1365 -0.0684 -0.1210
    7SAPS    HA  817   2.493   5.149  10.497 -2.8221 -0.4433  1.8210
    7SAPS    HB  818   2.558   5.000  10.574 -1.0000  2.1869  1.7073
    7SAPS    C2  819   2.566   5.020  10.347 -0.4036  0.4068 -0.1332
    7SAPS    HS  820   2.657   5.082  10.334  1.6114 -2.9047 -3.6932
    7SAPS   O21  821   2.481   5.038  10.235  0.9796  0.3201 -0.4522
    7SAPS   C21  822   2.430   5.160  10.228 -0.3009  0.7691  0.6190
    7SAPS   O22  823   2.469   5.258  10.284 -0.7353 -0.7339 -0.3193
    7SAPS   C22  824   2.320   5.167  10.127 -0.1529 -0.0969 -0.3433
    7SAPS   H2R  825   2.285   5.064  10.103 -2.2919  0.9932 -2.2832
    7SAPS   H2S  826   2.234   5.226  10.164  0.3044  0.1436  0.3653
    7SAPS    C3  827   2.625   4.874  10.331 -0.3410 -0.1591  0.1089
    7SAPS    HX  828   2.547   4.802  10.363 -0.9405  1.5080  2.8011
    7SAPS    HY  829   2.712   4.874  10.401  1.1757 -0.2271 -1.6955
    7SAPS   O31  830   2.666   4.840  10.195  0.5456  0.3439 -0.2526
    7SAPS   C31  831   2.776   4.905  10.154  0.2159 -0.0597 -0.2516
    7SAPS   O32  832   2.840   4.982  10.224  0.1477 -0.5346  0.2831
    7SAPS   C32  833   2.797   4.891  10.004 -0.2320  0.0429 -0.0755
    7SAPS   H2X  834   2.834   4.787   9.988  3.0393  1.6120 -4.5651
    7SAPS   H2Y  835   2.885   4.949   9.971 -0.4409  0.8678  0.7901
    7SAPS   C23  836   2.364   5.248   9.995  0.1562 -0.4773 -0.5445
    7SAPS   H3R  837   2.287   5.213   9.923 -2.4173  2.5292  0.5521
    7SAPS   H3S  838   2.459   5.214   9.949  1.2752  0.2199  1.1532
    7SAPS   C24  839   2.378   5.399  10.028  0.1201  0.7690 -0.1987
    7SAPS   H4R  840   2.465   5.405  10.096  0.4096 -0.0820 -0.4829
    7SAPS   H4S  841   2.294   5.433  10.093  0.1287 -1.1214  0.8668
    7SAPS   C25  842   2.389   5.474   9.898  0.3229 -1.3688  0.4095
    7SAPS   H5R  843   2.487   5.470   9.848 -0.6799 -0.7573 -1.6982
    7SAPS   C26  844   2.294   5.539   9.834  0.9295  0.1847  0.5000
    7SAPS   H6R  845   2.311   5.604   9.747 -0.5807 -0.9171 -0.6597
    7SAPS   C27  846   2.155   5.545   9.877  0.3492 -0.8552  0.2713
    7SAPS   H7R  847   2.139   5.494   9.974  1.8732 -1.2037  0.3629
    7SAPS   H7S  848   2.088   5.506   9.797 -1.3395  0.0790  1.1885
    7SAPS   C28  849   2.110   5.690   9.910  0.8618  0.2806 -0.3644
    7SAPS   H8R  850   2.154   5.730  10.002 -0.0115  0.1330  0.1270
    7SAPS   C29  851   2.022   5.766   9.841  0.1782 -0.1307  0.2890
    7SAPS   H9R  852   1.991   5.865   9.877  0.9772  1.5856 -3.2477
    7SAPS  C210  853   1.945   5.725   9.710 -0.1606  0.2743 -0.1044
    7SAPS  H10R  854   1.851   5.670   9.730  0.7413 -1.3155 -0.0647
    7SAPS  H10S  855   2.012   5.652   9.659 -1.1761 -0.6023 -0.2148
    7SAPS  C211  856   1.898   5.838   9.626 -0.5793  0.2444  0.6379
    7SAPS  H11R  857   1.849   5.920   9.681 -1.4992  0.9796 -1.2177
    7SAPS  C212  858   1.912   5.845   9.490  0.0366  1.6264 -0.3955
    7SAPS  H12R  859   1.871   5.932   9.436 -0.6683  2.0467  0.7745
    7SAPS  C213  860   1.987   5.751   9.400 -0.1298 -0.4066  0.5604
    7SAPS  H13R  861   1.915   5.687   9.344  0.3752  2.2443 -3.5473
    7SAPS  H13S  862   2.040   5.674   9.460  0.3698 -0.3648  0.1772
    7SAPS  C214  863   2.077   5.819   9.303  0.1672  0.9972 -0.0730
    7SAPS  H14R  864   2.183   5.792   9.317 -0.3772 -1.4184 -0.1344
    7SAPS  C215  865   2.033   5.890   9.194 -0.2510 -0.1813  0.1647
    7SAPS  H15R  866   2.108   5.947   9.138  0.1278 -0.6675  0.1692
    7SAPS  C216  867   1.888   5.924   9.173 -0.0660  0.5010 -0.8241
    7SAPS  H16R  868   1.844   5.978   9.260  0.0407 -0.3754 -0.2169
    7SAPS  H16S  869   1.826   5.832   9.169 -0.8621  1.0586 -1.8895
    7SAPS  C217  870   1.870   5.998   9.039 -0.5978 -0.2231  0.4379
    7SAPS  H17R  871   1.929   6.092   9.044 -0.6139 -0.2211  0.5766
    7SAPS  H17S  872   1.762   6.026   9.039 -0.6184 -0.2803 -0.2469
    7SAPS  C218  873   1.896   5.910   8.912 -0.1819  0.0003 -0.0100
    7SAPS  H18R  874   1.799   5.882   8.865  0.9023  0.1218 -2.4925
    7SAPS  H18S  875   1.954   5.817   8.932  1.3917  1.2931  1.6745
    7SAPS  C219  876   1.973   5.974   8.797  0.3058  0.4408 -0.2548
    7SAPS  H19R  877   2.006   5.893   8.729 -0.8759 -3.8316  3.7070
    7SAPS  H19S  878   2.067   6.012   8.841 -0.4766 -1.2225  3.2405
    7SAPS  C220  879   1.892   6.075   8.709  0.3174 -0.3519  0.1192
    7SAPS  H20R  880   1.858   6.155   8.778 -0.7202 -0.5240 -0.1728
    7SAPS  H20S  881   1.808   6.028   8.654  0.9203 -0.2282 -0.9394
    7SAPS  H20T  882   1.955   6.125   8.632 -1.1288  1.8141  0.2456
    7SAPS   C33  883   2.670   4.936   9.920  0.4188 -0.9653  0.0224
    7SAPS   H3X  884   2.641   5.042   9.930 -1.0169 -1.2465 -0.8752
    7SAPS   H3Y  885   2.588   4.878   9.968 -0.3510  0.4386  0.4433
    7SAPS   C34  886   2.669   4.915   9.765 -0.1977 -0.3452  0.4152
    7SAPS   H4X  887   2.773   4.915   9.725 -0.1121 -0.2853  0.6353
    7SAPS   H4Y  888   2.607   4.984   9.704 -2.0640 -1.9606  0.4090
    7SAPS   C35  889   2.616   4.770   9.740  0.1774  0.4736 -0.4239
    7SAPS   H5X  890   2.506   4.766   9.759  0.7608 -0.9458  3.3913
    7SAPS   H5Y  891   2.660   4.700   9.814 -2.0555  0.8204  1.3410
    7SAPS   C36  892   2.645   4.725   9.602 -0.2951  0.7384  0.1154
    7SAPS   H6X  893   2.629   4.615   9.599  1.2491  0.4350  1.3669
    7SAPS   H6Y  894   2.750   4.741   9.569 -0.0567 -2.5179 -1.0941
    7SAPS   C37  895   2.561   4.802   9.492  0.5355 -0.3096 -0.6531
    7SAPS   H7X  896   2.590   4.908   9.506 -2.1493  0.3205  0.8042
    7SAPS   H7Y  897   2.452   4.802   9.512  0.6350 -1.1928 -0.0458
    7SAPS   C38  898   2.585   4.756   9.347 -0.1388 -0.4430  0.1454
    7SAPS   H8X  899   2.567   4.648   9.363  2.4960 -1.1465 -1.0110
    7SAPS   H8Y  900   2.692   4.772   9.319 -0.3482  0.1569 -0.3383
    7SAPS   C39  901   2.504   4.821   9.240  0.0968 -0.2155  0.0343
    7SAPS   H9X  902   2.533   4.928   9.247  1.2971 -0.1808 -3.2853
    7SAPS   H9Y  903   2.394   4.819   9.252 -0.0281  0.8902 -0.6873
    7SAPS  C310  904   2.534   4.774   9.097  0.2419  1.0664 -0.1042
    7SAPS  H10X  905   2.479   4.681   9.072  2.0913 -0.8475  2.4120
    7SAPS  H10Y  906   2.639   4.738   9.099 -0.5753 -1.4884  0.7794
    7SAPS  C311  907   2.526   4.884   8.992  0.3278  0.2285 -0.6231
    7SAPS  H11X  908   2.600   4.962   9.021 -1.6116  2.3192 -0.9859
    7SAPS  H11Y  909   2.422   4.922   8.997  1.1739  2.7948 -1.2097
    7SAPS  C312  910   2.560   4.848   8.848 -0.1582 -0.4160  0.0242
    7SAPS  H12X  911   2.473   4.789   8.814 -0.1683 -0.0679 -0.5700
    7SAPS  H12Y  912   2.650   4.783   8.845  0.2825  0.1259  1.0292
    7SAPS  C313  913   2.594   4.974   8.771 -0.4314  0.2836  0.8704
    7SAPS  H13X  914   2.670   5.022   8.836  2.2781 -1.9796 -0.4043
    7SAPS  H13Y  915   2.507   5.043   8.768  0.9859  2.1208 -0.6575
    7SAPS  C314  916   2.654   4.938   8.635 -0.6766  0.6008  0.1830
    7SAPS  H14X  917   2.578   4.884   8.574 -1.3378  1.5560  0.1346
    7SAPS  H14Y  918   2.738   4.868   8.659 -1.0434  0.3114  0.6416
    7SAPS  C315  919   2.697   5.062   8.549  0.2321 -0.0987  0.1185
    7SAPS  H15X  920   2.607   5.117   8.514  0.3606 -0.5547 -0.9854
    7SAPS  H15Y  921   2.755   5.034   8.458 -0.8949  3.0454 -1.7038
    7SAPS  C316  922   2.791   5.167   8.609  0.1881  1.4775 -0.1907
    7SAPS  H16X  923   2.865   5.107   8.665 -2.2186 -1.8015 -0.2036
    7SAPS  H16Y  924   2.731   5.235   8.673 -1.7400 -1.5622  1.4440
    7SAPS  C317  925   2.880   5.251   8.513  0.0521 -0.2857  0.2518
    7SAPS  H17X  926   2.809   5.293   8.438 -3.0298 -2.4734  1.6909
    7SAPS  H17Y  927   2.951   5.179   8.467  0.0334  0.4112 -0.9172
    7SAPS  C318  928   2.955   5.364   8.595 -0.1153  0.6892 -0.1452
    7SAPS  H18X  929   2.885   5.431   8.649 -0.9172  0.2527 -0.6291
    7SAPS  H18Y  930   3.017   5.423   8.523 -1.8303  1.8002 -0.7657
    7SAPS  H18Z  931   3.025   5.323   8.671 -0.7342 -0.3076 -0.0965
    8SAPS     N  932   0.894   5.950  10.635 -0.1606  0.0063  0.4532
    8SAPS   HN1  933   0.926   5.927  10.538 -2.1869  1.2428 -0.5732
    8SAPS   HN2  934   0.805   5.999  10.613 -0.2373 -0.1887  0.3133
    8SAPS   HN3  935   0.948   6.026  10.681 -1.2329  0.4306  1.0393
    8SAPS   C12  936   0.855   5.840  10.721  0.1226  0.2686 -0.6197
    8SAPS  H12A  937   0.934   5.768  10.710 -1.8009 -1.9209 -1.0254
    8SAPS   C13  938   0.849   5.888  10.870  1.1845 -0.7091  0.2319
    8SAPS  O13A  939   0.896   5.997  10.902 -0.4160  0.0488 -0.2878
    8SAPS  O13B  940   0.817   5.810  10.962 -0.1257 -0.2647  0.2937
    8SAPS   C11  941   0.724   5.771  10.676 -0.6018  0.5885 -0.6909
    8SAPS  H11A  942   0.681   5.713  10.760 -3.0962  0.3145 -2.0481
    8SAPS  H11B  943   0.761   5.696  10.602  0.7245  0.4449  0.0953
    8SAPS     P  944   0.507   5.795  10.545  0.5021  0.3701  0.0973
    8SAPS   O13  945   0.443   5.695  10.629 -0.4494 -0.3585  0.7922
    8SAPS   O14  946   0.423   5.905  10.502  0.4092  0.6624  0.3716
    8SAPS   O12  947   0.626   5.864  10.637 -0.2241 -0.2192  0.4381
    8SAPS   O11  948   0.577   5.723  10.430 -0.4537 -0.0384  0.0743
    8SAPS    C1  949   0.666   5.787  10.338  0.1024  0.3973  0.1585
    8SAPS    HA  950   0.610   5.857  10.273  0.1193  1.2288  1.0162
    8SAPS    HB  951   0.752   5.837  10.389  1.3769 -1.2766 -0.2709
    8SAPS    C2  952   0.744   5.688  10.249  0.5716 -0.4371  0.2344
    8SAPS    HS  953   0.820   5.761  10.214 -1.4886  0.9468 -1.5843
    8SAPS   O21  954   0.679   5.635  10.130 -0.8716  0.1005 -0.1024
    8SAPS   C21  955   0.635   5.727  10.044 -0.3419  0.4095  0.1885
    8SAPS   O22  956   0.658   5.843  10.039 -0.4393 -0.0523  0.5034
    8SAPS   C22  957   0.526   5.660   9.961  0.2860 -0.7574  0.4467
    8SAPS   H2R  958   0.504   5.559  10.002 -2.1726 -0.0964  0.9329
    8SAPS   H2S  959   0.429   5.714   9.969 -0.4242 -1.9861  0.4016
    8SAPS    C3  960   0.818   5.571  10.318 -0.2513  0.0121  0.2252
    8SAPS    HX  961   0.751   5.497  10.367 -0.3916  1.5913  2.6013
    8SAPS    HY  962   0.869   5.626  10.400  3.3597 -1.9180 -0.5551
    8SAPS   O31  963   0.924   5.520  10.239 -0.4064  0.5124 -0.2200
    8SAPS   C31  964   0.893   5.400  10.186  0.2087  0.1942  0.5135
    8SAPS   O32  965   0.784   5.346  10.186 -0.2838  0.2290 -0.4993
    8SAPS   C32  966   1.010   5.346  10.096  0.6622  0.4164  0.0136
    8SAPS   H2X  967   1.004   5.235  10.092  0.3610  0.3897  1.0290
    8SAPS   H2Y  968   1.105   5.369  10.149  0.6270  0.5087  0.0365
    8SAPS   C23  969   0.574   5.645   9.812 -0.5476  0.0339  0.7838
    8SAPS   H3R  970   0.679   5.618   9.790 -0.5153  0.9523 -0.2471
    8SAPS   H3S  971   0.555   5.748   9.774  3.6043  0.1630 -1.4429
    8SAPS   C24  972   0.490   5.540   9.738  0.8272 -0.2711 -0.5970
    8SAPS   H4R  973   0.524   5.444   9.783  0.2290 -0.5193 -0.6648
    8SAPS   H4S  974   0.529   5.525   9.635  1.4498  1.2171 -0.5920
    8SAPS   C25  975   0.337   5.538   9.739 -0.7145  0.2071  0.9950
    8SAPS   H5R  976   0.282   5.515   9.832 -1.7502  3.0905  1.2028
    8SAPS   C26  977   0.259   5.544   9.628 -0.7687 -0.6498 -0.6067
    8SAPS   H6R  978   0.151   5.540   9.648 -0.9352  2.0663 -0.6633
    8SAPS   C27  979   0.303   5.576   9.485  0.2624  0.7765 -0.3717
    8SAPS   H7R  980   0.340   5.680   9.499 -0.2233  0.6526  2.6132
    8SAPS   H7S  981   0.209   5.595   9.428  0.0401  1.2761  0.1406
    8SAPS   C28  982   0.403   5.493   9.414  0.5570 -0.7264  0.4008
    8SAPS   H8R  983   0.422   5.396   9.464  2.4468 -1.0823 -0.9146
    8SAPS   C29  984   0.473   5.525   9.315  0.2954 -0.4131  0.9685
    8SAPS   H9R  985   0.531   5.448   9.263 -0.0084  1.5385 -2.5576
    8SAPS  C210  986   0.478   5.658   9.240  0.3023  0.3536  0.4513
    8SAPS  H10R  987   0.453   5.749   9.299  1.4767  1.9809 -1.4637
    8SAPS  H10S  988   0.398   5.650   9.163 -0.4168  1.8918  0.9884
    8SAPS  C211  989   0.610   5.669   9.176  0.3504 -0.0532  0.1080
    8SAPS  H11R  990   0.691   5.686   9.248  0.2524 -0.8014  0.4124
    8SAPS  C212  991   0.637   5.682   9.047  0.0738  0.2489  0.1051
    8SAPS  H12R  992   0.743   5.695   9.021  0.4673 -1.1110  0.9838
    8SAPS  C213  993   0.548   5.682   8.921 -0.6196  0.0169  0.8263
    8SAPS  H13R  994   0.553   5.771   8.855  1.6626 -0.9900 -0.4892
    8SAPS  H13S  995   0.446   5.658   8.958 -0.0892 -0.0999  2.2586
    8SAPS  C214  996   0.577   5.556   8.834  0.0368  0.4997  0.5747
    8SAPS  H14R  997   0.628   5.477   8.891 -0.1799  0.3916  0.6192
    8SAPS  C215  998   0.550   5.538   8.706  0.7805 -0.4499  0.3056
    8SAPS  H15R  999   0.593   5.458   8.644 -2.1238 -0.9303 -1.2412
    8SAPS  C216 1000   0.479   5.631   8.612 -0.2278  0.1098  0.3502
    8SAPS  H16R 1001   0.449   5.724   8.664  1.9037  0.6567  0.6877
    8SAPS  H16S 1002   0.380   5.595   8.578 -0.4310 -0.6835  1.6892
    8SAPS  C217 1003   0.552   5.691   8.488 -0.0905  0.2107 -0.5479
    8SAPS  H17R 1004   0.648   5.732   8.527  0.2953 -1.3143  0.1618
    8SAPS  H17S 1005   0.491   5.771   8.441 -0.3494  0.4775  0.2386
    8SAPS  C218 1006   0.575   5.588   8.371 -0.0768  0.6422 -0.4720
    8SAPS  H18R 1007   0.496   5.509   8.366  0.3131  0.2998 -1.6197
    8SAPS  H18S 1008   0.666   5.530   8.395 -1.8469 -1.3786  1.8488
    8SAPS  C219 1009   0.595   5.655   8.235  0.0907  0.1661  0.6612
    8SAPS  H19R 1010   0.518   5.727   8.201  1.0173  1.3655  1.0415
    8SAPS  H19S 1011   0.589   5.567   8.167 -2.3711  0.1857  0.7852
    8SAPS  C220 1012   0.736   5.722   8.201  0.6025  0.3619 -0.5106
    8SAPS  H20R 1013   0.820   5.649   8.214  0.0858 -0.7044 -2.6642
    8SAPS  H20S 1014   0.751   5.803   8.275  2.2834 -0.0954 -0.3052
    8SAPS  H20T 1015   0.722   5.760   8.097  0.9822  0.0596 -0.6779
    8SAPS   C33 1016   1.010   5.417   9.961  0.2761 -0.9347 -0.1391
    8SAPS   H3X 1017   1.115   5.423   9.926  0.4492 -0.3872  0.4527
    8SAPS   H3Y 1018   0.982   5.525   9.966 -0.2711 -0.9854 -1.6297
    8SAPS   C34 1019   0.926   5.341   9.854  0.4178 -0.1687 -0.2342
    8SAPS   H4X 1020   0.821   5.325   9.888 -0.2260 -1.6472 -2.5902
    8SAPS   H4Y 1021   0.980   5.243   9.853 -0.4494 -0.6647 -1.2130
    8SAPS   C35 1022   0.927   5.402   9.718  0.3857 -0.3575 -0.0501
    8SAPS   H5X 1023   1.035   5.413   9.693  0.5383  0.6012  0.9448
    8SAPS   H5Y 1024   0.888   5.506   9.715  1.0803 -0.0634  0.6369
    8SAPS   C36 1025   0.879   5.301   9.613  0.5505 -0.4707  0.3909
    8SAPS   H6X 1026   0.779   5.276   9.655  0.7235  0.9790  1.7950
    8SAPS   H6Y 1027   0.945   5.212   9.617  2.0434  0.6354  1.7725
    8SAPS   C37 1028   0.867   5.353   9.468 -0.8842  0.2910 -0.2951
    8SAPS   H7X 1029   0.964   5.395   9.433 -1.6867  0.8372 -2.0038
    8SAPS   H7Y 1030   0.795   5.437   9.468 -2.3496 -0.9328  0.4833
    8SAPS   C38 1031   0.811   5.258   9.368  0.9937  0.4525 -0.5938
    8SAPS   H8X 1032   0.703   5.241   9.389  1.4099 -1.0046  0.5578
    8SAPS   H8Y 1033   0.860   5.158   9.362 -1.3848 -0.7281 -1.7345
    8SAPS   C39 1034   0.814   5.317   9.226 -0.0025 -0.0154  0.6017
    8SAPS   H9X 1035   0.920   5.338   9.200  0.2939 -3.0665 -1.1514
    8SAPS   H9Y 1036   0.757   5.410   9.208  0.8977  0.4031 -0.1916
    8SAPS  C310 1037   0.749   5.216   9.123  0.0481 -0.1977  0.1854
    8SAPS  H10X 1038   0.639   5.224   9.121  0.0327 -0.4711 -2.0432
    8SAPS  H10Y 1039   0.777   5.110   9.136  0.6408 -0.2658 -1.4318
    8SAPS  C311 1040   0.812   5.254   8.989 -0.1527  0.1632  0.8542
    8SAPS  H11X 1041   0.923   5.265   8.999 -0.1663  0.5648  0.5706
    8SAPS  H11Y 1042   0.762   5.342   8.942 -1.5895 -1.8208 -1.5442
    8SAPS  C312 1043   0.793   5.152   8.878 -0.2413 -0.5594  0.4513
    8SAPS  H12X 1044   0.684   5.139   8.864 -0.1419 -1.7083  0.7030
    8SAPS  H12Y 1045   0.846   5.057   8.902  0.9131 -0.1285 -0.2861
    8SAPS  C313 1046   0.869   5.198   8.746  0.6093 -0.0550 -0.4763
    8SAPS  H13X 1047   0.967   5.244   8.772  0.2374  0.2092  0.4706
    8SAPS  H13Y 1048   0.803   5.275   8.700  0.3750 -0.4466 -0.8014
    8SAPS  C314 1049   0.898   5.085   8.647 -0.7497  0.5785 -0.7120
    8SAPS  H14X 1050   0.804   5.044   8.604 -0.3002  0.4858 -1.6401
    8SAPS  H14Y 1051   0.944   4.997   8.696 -1.4069  1.7393  2.1618
    8SAPS  C315 1052   0.994   5.136   8.538  0.2110  0.6056 -0.5459
    8SAPS  H15X 1053   1.083   5.181   8.586  0.7139 -0.0634 -0.8440
    8SAPS  H15Y 1054   0.954   5.223   8.482  0.7804  0.8926 -0.5162
    8SAPS  C316 1055   1.044   5.030   8.438  0.8020  0.5555 -0.6865
    8SAPS  H16X 1056   1.107   4.944   8.469  1.9145  1.2468 -0.9827
    8SAPS  H16Y 1057   1.098   5.100   8.371  0.2155  0.1437 -1.5983
    8SAPS  C317 1058   0.929   4.972   8.356  0.4882  0.4701 -0.0171
    8SAPS  H17X 1059   0.842   5.041   8.347 -0.6515 -0.6495  1.7215
    8SAPS  H17Y 1060   0.887   4.887   8.415 -0.5820  1.2580  0.4047
    8SAPS  C318 1061   0.973   4.921   8.215 -0.8428 -0.0848  0.1755
    8SAPS  H18X 1062   1.026   4.987   8.142  1.1784 -0.8864  0.8535
    8SAPS  H18Y 1063   0.890   4.869   8.163 -2.6113 -0.6843  3.3583
    8SAPS  H18Z 1064   1.048   4.840   8.229  0.5486  1.1995  0.4073
    9SAPS     N 1065   4.113   3.630   6.211 -0.3382 -0.0084 -0.8526
    9SAPS   HN1 1066   4.121   3.734   6.222 -3.1129  0.2591 -0.5928
    9SAPS   HN2 1067   4.028   3.602   6.263  1.6388 -1.5353  1.7830
    9SAPS   HN3 1068   4.187   3.587   6.270 -0.4549  1.1290  0.1662
    9SAPS   C12 1069   4.123   3.574   6.076 -1.1384 -0.0841  0.3485
    9SAPS  H12A 1070   4.124   3.466   6.079  2.3618 -0.2087 -0.2102
    9SAPS   C13 1071   4.012   3.614   5.977  0.1094 -0.0705 -0.1928
    9SAPS  O13A 1072   3.927   3.705   5.999 -0.1609 -0.1736  0.3122
    9SAPS  O13B 1073   4.015   3.561   5.859 -0.3776 -0.1214  0.2789
    9SAPS   C11 1074   4.268   3.608   6.025  0.0267  0.8977  0.5921
    9SAPS  H11A 1075   4.280   3.718   6.016  0.0877  0.7528 -1.5053
    9SAPS  H11B 1076   4.272   3.569   5.922 -0.9467  2.9263 -0.2814
    9SAPS     P 1077   4.479   3.455   6.061  0.0819 -0.3466 -0.3387
    9SAPS   O13 1078   4.430   3.319   6.039  0.0148  0.0445 -0.2052
    9SAPS   O14 1079   4.552   3.525   5.954  0.1025 -0.2558  0.2811
    9SAPS   O12 1080   4.364   3.549   6.118  0.7403  0.4117  0.5395
    9SAPS   O11 1081   4.575   3.465   6.188  0.3540 -0.0591 -0.2755
    9SAPS    C1 1082   4.573   3.581   6.271  0.3753 -0.0750 -0.0151
    9SAPS    HA 1083   4.677   3.594   6.308  0.4964 -2.4764  0.6538
    9SAPS    HB 1084   4.564   3.673   6.209  0.0380  1.5952  2.3768
    9SAPS    C2 1085   4.476   3.586   6.392  0.1669 -0.2677  0.8583
    9SAPS    HS 1086   4.387   3.647   6.362  0.0767  0.3667  2.3177
    9SAPS   O21 1087   4.550   3.653   6.500 -0.0767  0.5818  0.2319
    9SAPS   C21 1088   4.479   3.750   6.560 -0.0071 -0.5879  0.2159
    9SAPS   O22 1089   4.367   3.787   6.532  0.0932 -0.1444  0.8312
    9SAPS   C22 1090   4.563   3.816   6.672  0.0886 -0.6186 -0.4859
    9SAPS   H2R 1091   4.670   3.790   6.654  0.0319 -0.6648 -0.7614
    9SAPS   H2S 1092   4.534   3.923   6.663 -2.3396 -1.0623  1.1044
    9SAPS    C3 1093   4.440   3.444   6.442 -0.8378  0.3193 -0.1623
    9SAPS    HX 1094   4.535   3.399   6.478 -1.7952  0.2133  2.5362
    9SAPS    HY 1095   4.397   3.385   6.359 -0.5902 -0.4158  0.2214
    9SAPS   O31 1096   4.349   3.437   6.559 -0.5635  0.2382  0.1006
    9SAPS   C31 1097   4.223   3.465   6.540  0.0147 -0.0053 -0.4338
    9SAPS   O32 1098   4.176   3.503   6.433  0.3364 -0.2400 -0.0503
    9SAPS   C32 1099   4.148   3.456   6.670 -0.5964 -0.0644  0.3847
    9SAPS   H2X 1100   4.115   3.356   6.705 -0.9831  0.7843  2.6200
    9SAPS   H2Y 1101   4.059   3.522   6.655  0.4507  1.0457 -1.2039
    9SAPS   C23 1102   4.523   3.755   6.814  0.1998  0.4970 -0.1473
    9SAPS   H3R 1103   4.557   3.649   6.814 -1.4360 -0.0592 -0.0249
    9SAPS   H3S 1104   4.412   3.750   6.813  0.2155  0.0640 -0.2430
    9SAPS   C24 1105   4.564   3.839   6.940 -0.5982  0.4127 -0.2461
    9SAPS   H4R 1106   4.554   3.949   6.924  0.5161  0.5185 -0.3159
    9SAPS   H4S 1107   4.673   3.826   6.954 -0.4973  1.6592  0.3224
    9SAPS   C25 1108   4.500   3.790   7.069 -0.2394 -0.2259  0.2189
    9SAPS   H5R 1109   4.398   3.751   7.060 -0.4504  0.7325 -2.0094
    9SAPS   C26 1110   4.574   3.775   7.187 -0.5123  0.1313  0.4187
    9SAPS   H6R 1111   4.526   3.724   7.272  2.4911  0.4822  2.4919
    9SAPS   C27 1112   4.722   3.804   7.217 -0.1928 -0.9802 -0.6864
    9SAPS   H7R 1113   4.790   3.727   7.176  1.2363  0.1761 -0.5790
    9SAPS   H7S 1114   4.732   3.786   7.326 -2.2291 -0.7089 -0.4041
    9SAPS   C28 1115   4.763   3.953   7.190  0.0225  0.4382  0.0040
    9SAPS   H8R 1116   4.700   3.996   7.111 -2.8984 -3.2720  0.0135
    9SAPS   C29 1117   4.844   4.035   7.262 -0.2169 -0.7205  0.0822
    9SAPS   H9R 1118   4.855   4.140   7.229 -0.0246 -1.0312 -0.8613
    9SAPS  C210 1119   4.934   3.988   7.374  0.0294  0.0159 -0.3204
    9SAPS  H10R 1120   5.038   4.022   7.355  0.7612 -0.5404  2.2526
    9SAPS  H10S 1121   4.934   3.878   7.393 -0.6159  0.5497  3.5749
    9SAPS  C211 1122   4.885   4.044   7.503  0.5006 -0.3649 -0.4346
    9SAPS  H11R 1123   4.783   4.085   7.507  0.3545 -0.8001  1.0371
    9SAPS  C212 1124   4.954   4.042   7.615 -0.6707  0.4981 -0.4870
    9SAPS  H12R 1125   4.903   4.074   7.707  1.4929  0.4782  0.8043
    9SAPS  C213 1126   5.092   3.977   7.631 -0.2783 -0.2594  0.2265
    9SAPS  H13R 1127   5.130   3.929   7.538  0.4980  2.6961 -1.1039
    9SAPS  H13S 1128   5.095   3.890   7.700  2.9409 -0.8522 -0.4915
    9SAPS  C214 1129   5.195   4.085   7.673 -0.2485 -0.3259  0.2647
    9SAPS  H14R 1130   5.219   4.157   7.593 -2.0451  0.8390  0.7065
    9SAPS  C215 1131   5.229   4.103   7.801  0.2062 -0.7435  0.2533
    9SAPS  H15R 1132   5.297   4.186   7.826  0.7711 -1.1806  0.1938
    9SAPS  C216 1133   5.190   4.027   7.933  0.0528  0.4728 -0.0684
    9SAPS  H16R 1134   5.090   3.980   7.918  0.4169  0.2888 -2.2192
    9SAPS  H16S 1135   5.183   4.092   8.024 -2.5822 -1.4370  1.2388
    9SAPS  C217 1136   5.285   3.904   7.958  0.2695 -0.3463  0.1710
    9SAPS  H17R 1137   5.294   3.851   7.861 -2.1734  1.8059 -1.3535
    9SAPS  H17S 1138   5.230   3.841   8.032  1.0272 -0.6204  0.5091
    9SAPS  C218 1139   5.416   3.944   8.013  0.0073  0.6132 -0.2079
    9SAPS  H18R 1140   5.400   4.014   8.097  1.9879  1.3291 -0.3835
    9SAPS  H18S 1141   5.484   3.984   7.935  1.6921  0.6521  1.2328
    9SAPS  C219 1142   5.495   3.814   8.056  0.0261 -0.1657 -0.6096
    9SAPS  H19R 1143   5.422   3.734   8.081  1.3955 -1.8017 -1.6042
    9SAPS  H19S 1144   5.565   3.849   8.136 -0.6667  0.3529 -0.2190
    9SAPS  C220 1145   5.591   3.756   7.949 -0.0878 -0.2352  0.3229
    9SAPS  H20R 1146   5.534   3.712   7.865  1.5573 -3.0422  0.5408
    9SAPS  H20S 1147   5.648   3.670   7.990 -0.5440  0.1193  1.7543
    9SAPS  H20T 1148   5.663   3.832   7.913  0.8317  0.0912  2.6314
    9SAPS   C33 1149   4.236   3.527   6.774  0.6604  0.1738 -0.0924
    9SAPS   H3X 1150   4.247   3.633   6.742  0.0853 -0.3125 -2.0786
    9SAPS   H3Y 1151   4.334   3.476   6.781 -0.0858 -2.2006 -4.0963
    9SAPS   C34 1152   4.167   3.530   6.916  0.7410  0.0502 -0.9587
    9SAPS   H4X 1153   4.080   3.598   6.905  0.9266  0.0642 -2.5339
    9SAPS   H4Y 1154   4.228   3.581   6.994 -0.1792 -1.6016  0.9340
    9SAPS   C35 1155   4.120   3.401   6.973 -0.1493  0.4556 -0.1694
    9SAPS   H5X 1156   4.211   3.343   6.997 -1.3380 -1.4627 -0.0912
    9SAPS   H5Y 1157   4.050   3.351   6.901  1.0550 -0.8778 -0.4571
    9SAPS   C36 1158   4.039   3.428   7.099  0.7991  0.1144  0.0530
    9SAPS   H6X 1159   3.959   3.505   7.100  1.2200  0.5609  1.3052
    9SAPS   H6Y 1160   4.122   3.456   7.167 -0.4681 -2.2185  2.7597
    9SAPS   C37 1161   3.978   3.293   7.155 -0.2353 -0.6869  0.4323
    9SAPS   H7X 1162   4.059   3.217   7.152  0.4233  0.0457 -1.0668
    9SAPS   H7Y 1163   3.907   3.260   7.076  2.3731 -0.1103 -2.3262
    9SAPS   C38 1164   3.925   3.299   7.297 -0.0908  0.4896 -0.1702
    9SAPS   H8X 1165   3.849   3.221   7.315  0.4773 -0.2668 -0.9688
    9SAPS   H8Y 1166   3.865   3.391   7.313 -0.6714  0.2210 -0.7819
    9SAPS   C39 1167   4.039   3.303   7.395  0.1103  0.2151  0.8282
    9SAPS   H9X 1168   4.129   3.343   7.344 -0.4314  2.1536  1.2978
    9SAPS   H9Y 1169   4.054   3.196   7.423 -0.6382 -0.0623  0.2127
    9SAPS  C310 1170   4.010   3.391   7.518 -0.1285 -0.0363 -0.5444
    9SAPS  H10X 1171   3.924   3.345   7.571  0.4301 -0.6996 -0.1950
    9SAPS  H10Y 1172   3.991   3.493   7.479 -0.1479 -0.4522 -1.6694
    9SAPS  C311 1173   4.127   3.393   7.615 -0.6681 -0.6183  0.3223
    9SAPS  H11X 1174   4.207   3.430   7.547 -1.9010  0.3088 -0.6820
    9SAPS  H11Y 1175   4.146   3.286   7.636  1.6279 -0.2247  0.5044
    9SAPS  C312 1176   4.110   3.487   7.738  0.2984 -0.8945  0.5964
    9SAPS  H12X 1177   4.039   3.440   7.810  0.7864 -1.6677  0.5883
    9SAPS  H12Y 1178   4.066   3.579   7.695 -0.4758 -1.4099  0.2533
    9SAPS  C313 1179   4.243   3.521   7.810  0.1116  0.0371  0.3859
    9SAPS  H13X 1180   4.294   3.436   7.859  1.2771  1.4593  1.7390
    9SAPS  H13Y 1181   4.218   3.589   7.894  1.9083  0.4142  0.6521
    9SAPS  C314 1182   4.335   3.594   7.720 -0.3654 -0.0730 -0.2760
    9SAPS  H14X 1183   4.293   3.692   7.688 -2.1600 -1.0902 -1.1904
    9SAPS  H14Y 1184   4.359   3.540   7.626 -1.1231 -1.4048  0.2510
    9SAPS  C315 1185   4.465   3.608   7.791  0.1537  0.3703 -0.0411
    9SAPS  H15X 1186   4.511   3.508   7.809  1.5933  1.3276  2.0747
    9SAPS  H15Y 1187   4.451   3.658   7.890 -0.5933  1.2609 -0.5770
    9SAPS  C316 1188   4.578   3.679   7.715  0.8065  0.7173  0.1038
    9SAPS  H16X 1189   4.556   3.788   7.709 -2.2064  0.1612 -0.9927
    9SAPS  H16Y 1190   4.585   3.632   7.614 -0.3847  0.4953  0.1071
    9SAPS  C317 1191   4.709   3.662   7.788 -0.7744  0.3225 -0.0135
    9SAPS  H17X 1192   4.720   3.555   7.813  0.1780  0.3113 -0.4610
    9SAPS  H17Y 1193   4.694   3.717   7.883 -1.2076  0.6628 -0.2674
    9SAPS  C318 1194   4.823   3.718   7.706 -0.2974  0.0692 -0.5412
    9SAPS  H18X 1195   4.912   3.705   7.771 -0.2725  3.0585  0.1548
    9SAPS  H18Y 1196   4.801   3.824   7.680  0.0320 -0.2706 -2.3147
    9SAPS  H18Z 1197   4.838   3.662   7.611  1.8377  2.0377 -1.4639
   10SAPS     N 1198   5.331   3.661   5.864  1.1588  0.0636  0.4127
   10SAPS   HN1 1199   5.340   3.637   5.965  1.2364  2.0994  0.9214
   10SAPS   HN2 1200   5.267   3.742   5.872 -1.2490 -1.6337 -0.5475
   10SAPS   HN3 1201   5.277   3.583   5.823  1.4942 -0.8715  1.6639
   10SAPS   C12 1202   5.462   3.681   5.808 -0.9239 -0.1362  0.3865
   10SAPS  H12A 1203   5.450   3.714   5.706 -0.5739 -0.6793  0.1693
   10SAPS   C13 1204   5.543   3.795   5.883 -0.3790 -0.0820 -0.3112
   10SAPS  O13A 1205   5.483   3.872   5.957  0.2226  0.0164 -0.0614
   10SAPS  O13B 1206   5.660   3.824   5.848 -0.5018 -0.5344 -0.3352
   10SAPS   C11 1207   5.541   3.547   5.814 -0.3131  0.1932 -0.0155
   10SAPS  H11A 1208   5.644   3.560   5.775  0.3361 -1.5659  1.0244
   10SAPS  H11B 1209   5.493   3.469   5.751  0.5985 -1.0989  0.8350
   10SAPS     P 1210   5.649   3.379   5.984  0.1128  0.3326 -0.1278
   10SAPS   O13 1211   5.577   3.251   5.999 -0.4486  0.4992 -1.3050
   10SAPS   O14 1212   5.757   3.372   5.893  0.3918  0.3035 -0.6415
   10SAPS   O12 1213   5.548   3.496   5.949 -0.5674  0.1394  0.1151
   10SAPS   O11 1214   5.706   3.431   6.123  0.4678  0.1431 -0.5643
   10SAPS    C1 1215   5.731   3.570   6.157  0.1208 -0.7086  0.8774
   10SAPS    HA 1216   5.767   3.631   6.072 -1.5501 -1.3158 -0.3233
   10SAPS    HB 1217   5.635   3.621   6.184 -1.1944 -2.1405 -0.8128
   10SAPS    C2 1218   5.830   3.589   6.273 -0.0067 -0.0636 -0.0427
   10SAPS    HS 1219   5.911   3.515   6.255 -2.2472 -2.7938  0.4350
   10SAPS   O21 1220   5.761   3.571   6.398 -0.2674  0.6248 -0.2267
   10SAPS   C21 1221   5.845   3.517   6.493 -0.4098 -1.0617 -0.0596
   10SAPS   O22 1222   5.955   3.476   6.467  0.1066 -0.4526 -0.0377
   10SAPS   C22 1223   5.785   3.538   6.634  0.3509 -0.3504  0.5226
   10SAPS   H2R 1224   5.780   3.648   6.647  0.9026 -0.6338  3.9533
   10SAPS   H2S 1225   5.683   3.496   6.621  0.3733 -1.3288  2.9937
   10SAPS    C3 1226   5.893   3.731   6.263 -0.7100 -0.0484  0.2218
   10SAPS    HX 1227   5.815   3.805   6.293 -0.1233  1.3369 -1.5198
   10SAPS    HY 1228   5.916   3.751   6.157 -0.3767  1.0963  0.4906
   10SAPS   O31 1229   6.007   3.751   6.349 -0.1332  0.1868 -0.3030
   10SAPS   C31 1230   6.124   3.718   6.313 -0.1098  0.0127 -0.0638
   10SAPS   O32 1231   6.153   3.675   6.205  0.4215  0.1747  0.1131
   10SAPS   C32 1232   6.220   3.746   6.430  0.7096  0.0919 -0.0670
   10SAPS   H2X 1233   6.166   3.803   6.509 -2.2560 -3.0341  0.3955
   10SAPS   H2Y 1234   6.301   3.811   6.389  1.9388 -0.0244  2.0544
   10SAPS   C23 1235   5.854   3.460   6.742  0.0176  0.7696 -0.6370
   10SAPS   H3R 1236   5.955   3.504   6.754  0.4368 -0.5297  0.8848
   10SAPS   H3S 1237   5.863   3.353   6.714  1.4725  0.4492  0.9160
   10SAPS   C24 1238   5.776   3.482   6.876 -0.0772  0.0641  0.1808
   10SAPS   H4R 1239   5.766   3.592   6.888 -0.6602 -0.2206  3.1478
   10SAPS   H4S 1240   5.828   3.449   6.969 -1.1158  0.0222  0.7594
   10SAPS   C25 1241   5.644   3.419   6.877 -0.3376  0.0965 -0.2166
   10SAPS   H5R 1242   5.626   3.343   6.800 -0.1975  0.0979 -0.2505
   10SAPS   C26 1243   5.538   3.462   6.947  0.8671  0.8411 -0.3440
   10SAPS   H6R 1244   5.441   3.418   6.923  1.6275 -0.6420 -0.8262
   10SAPS   C27 1245   5.535   3.576   7.049  0.1895 -0.3829 -0.1489
   10SAPS   H7R 1246   5.436   3.626   7.046  0.6080  0.4998  0.5959
   10SAPS   H7S 1247   5.607   3.655   7.021  0.8308 -0.2775  1.6778
   10SAPS   C28 1248   5.563   3.534   7.188 -0.9143  0.9680  0.1199
   10SAPS   H8R 1249   5.606   3.434   7.204 -2.2841 -0.3707 -3.5903
   10SAPS   C29 1250   5.528   3.606   7.299  0.0057 -0.2598  1.2682
   10SAPS   H9R 1251   5.543   3.559   7.398  0.6838 -1.6859  0.5174
   10SAPS  C210 1252   5.444   3.732   7.280 -0.0295  0.8295 -0.2693
   10SAPS  H10R 1253   5.349   3.708   7.228 -0.8463  3.5951 -0.1926
   10SAPS  H10S 1254   5.505   3.800   7.216  0.6946 -0.6258 -1.1934
   10SAPS  C211 1255   5.400   3.798   7.410 -0.1563  0.3447  0.3602
   10SAPS  H11R 1256   5.296   3.785   7.441 -0.4499  1.8332  0.0731
   10SAPS  C212 1257   5.474   3.853   7.504 -0.3069  0.4426  0.0309
   10SAPS  H12R 1258   5.421   3.911   7.581  0.7947  1.0385  0.3439
   10SAPS  C213 1259   5.630   3.871   7.507  1.5415  0.2855 -0.6692
   10SAPS  H13R 1260   5.662   3.918   7.412  0.0770 -3.5292 -3.2921
   10SAPS  H13S 1261   5.661   3.764   7.504 -1.1597 -0.6924  1.5684
   10SAPS  C214 1262   5.668   3.937   7.635 -0.4724 -0.1206 -0.0956
   10SAPS  H14R 1263   5.600   3.917   7.720  0.0616  0.0280  0.3698
   10SAPS  C215 1264   5.766   4.028   7.656  0.2335  0.5937  0.4279
   10SAPS  H15R 1265   5.775   4.069   7.757 -0.7183 -0.2270  0.8562
   10SAPS  C216 1266   5.874   4.068   7.551 -0.2105 -0.3417 -0.4793
   10SAPS  H16R 1267   5.853   4.029   7.448 -1.4314 -0.5586 -0.1707
   10SAPS  H16S 1268   5.964   4.010   7.581 -0.2374  0.0281  0.3266
   10SAPS  C217 1269   5.913   4.219   7.550 -0.7158 -0.4270  0.1219
   10SAPS  H17R 1270   5.830   4.277   7.503  1.5403  1.7807 -1.3620
   10SAPS  H17S 1271   5.986   4.237   7.468 -0.4822  0.8130  0.5728
   10SAPS  C218 1272   5.971   4.276   7.681 -0.0640  0.0120 -0.2645
   10SAPS  H18R 1273   6.053   4.207   7.708  0.0434 -0.2452 -1.2152
   10SAPS  H18S 1274   5.887   4.258   7.752  1.7698  0.2649  2.1017
   10SAPS  C219 1275   6.010   4.423   7.652 -0.1412 -0.2558  0.6852
   10SAPS  H19R 1276   5.932   4.470   7.588  0.9996 -0.1431 -0.6451
   10SAPS  H19S 1277   6.095   4.428   7.581 -2.0181  1.0660 -1.6353
   10SAPS  C220 1278   6.026   4.526   7.771 -0.3214 -0.2571  0.1708
   10SAPS  H20R 1279   6.099   4.605   7.746 -1.0614  1.2753  2.4986
   10SAPS  H20S 1280   6.055   4.479   7.867  0.7468  1.1207  0.5569
   10SAPS  H20T 1281   5.929   4.578   7.787 -0.4920 -1.0792  2.0917
   10SAPS   C33 1282   6.290   3.615   6.480  0.3471  0.9184 -0.3716
   10SAPS   H3X 1283   6.300   3.544   6.395 -0.1621  1.5954 -1.0164
   10SAPS   H3Y 1284   6.225   3.573   6.560  0.8729 -1.5074 -1.1307
   10SAPS   C34 1285   6.434   3.644   6.533  0.2855  0.3948 -0.7845
   10SAPS   H4X 1286   6.479   3.719   6.464 -0.0012  0.5551 -0.8004
   10SAPS   H4Y 1287   6.484   3.545   6.523 -1.5973 -0.6156 -0.6082
   10SAPS   C35 1288   6.436   3.696   6.680 -0.0653  0.4515 -0.0670
   10SAPS   H5X 1289   6.380   3.791   6.695 -2.1065 -0.9561  1.8286
   10SAPS   H5Y 1290   6.542   3.716   6.705  0.3349 -0.6629 -0.8197
   10SAPS   C36 1291   6.389   3.586   6.777 -0.1356  0.3729 -0.2224
   10SAPS   H6X 1292   6.457   3.498   6.767  0.6568  1.1325 -1.9572
   10SAPS   H6Y 1293   6.287   3.558   6.744 -0.1734  1.2178 -0.8662
   10SAPS   C37 1294   6.381   3.623   6.925 -0.0811  0.2632 -0.1429
   10SAPS   H7X 1295   6.330   3.541   6.978  1.9810 -1.7584 -1.1362
   10SAPS   H7Y 1296   6.317   3.713   6.941 -1.5562 -0.3034 -2.3774
   10SAPS   C38 1297   6.518   3.655   6.986  0.3338 -0.8693 -0.2595
   10SAPS   H8X 1298   6.567   3.734   6.925 -0.4153 -0.3531 -0.2098
   10SAPS   H8Y 1299   6.586   3.567   6.979  0.2769 -1.0336  0.9499
   10SAPS   C39 1300   6.497   3.678   7.138  0.3046 -0.1701  0.7440
   10SAPS   H9X 1301   6.422   3.607   7.179  1.3135 -1.0570  1.0922
   10SAPS   H9Y 1302   6.459   3.782   7.141  0.9234  0.0829  0.0846
   10SAPS  C310 1303   6.632   3.656   7.209 -0.1775 -0.0477  0.3415
   10SAPS  H10X 1304   6.696   3.729   7.154 -0.9083 -0.9683 -1.8536
   10SAPS  H10Y 1305   6.662   3.551   7.190 -0.5131 -0.4163  1.7441
   10SAPS  C311 1306   6.633   3.695   7.357 -0.3674  0.5377  0.5383
   10SAPS  H11X 1307   6.596   3.799   7.370  2.8446  1.9667 -0.6027
   10SAPS  H11Y 1308   6.737   3.688   7.396 -0.2059  1.6682  0.3620
   10SAPS  C312 1309   6.543   3.586   7.427 -0.2450 -0.0974  0.9058
   10SAPS  H12X 1310   6.554   3.485   7.382 -0.1111  0.4656 -0.3887
   10SAPS  H12Y 1311   6.440   3.627   7.434 -1.3348 -1.7087 -3.0104
   10SAPS  C313 1312   6.596   3.563   7.567  0.2538 -0.3600  0.2108
   10SAPS  H13X 1313   6.585   3.661   7.617 -1.4348 -0.5777  0.3211
   10SAPS  H13Y 1314   6.705   3.543   7.562  0.5271  1.3520 -2.5484
   10SAPS  C314 1315   6.516   3.449   7.635 -0.1749 -0.0082 -0.1958
   10SAPS  H14X 1316   6.536   3.351   7.587 -1.0333 -1.3682  2.0822
   10SAPS  H14Y 1317   6.408   3.466   7.613 -0.2759  0.8637  0.8805
   10SAPS  C315 1318   6.529   3.453   7.781  0.3401  0.5058  0.3667
   10SAPS  H15X 1319   6.491   3.555   7.805  3.1441  2.4869 -2.7580
   10SAPS  H15Y 1320   6.637   3.453   7.809  0.3700  2.1488  0.3489
   10SAPS  C316 1321   6.453   3.344   7.864 -0.8110 -0.0725  0.1911
   10SAPS  H16X 1322   6.468   3.248   7.810  0.7771  0.6259 -0.6597
   10SAPS  H16Y 1323   6.347   3.376   7.859  0.3452  4.2114 -0.6606
   10SAPS  C317 1324   6.488   3.333   8.007  0.5283 -0.1112 -0.5990
   10SAPS  H17X 1325   6.445   3.423   8.056  0.6766  0.5506 -1.6547
   10SAPS  H17Y 1326   6.599   3.330   8.019  0.4258  0.9468  1.0013
   10SAPS  C318 1327   6.447   3.211   8.082  0.0973  0.7608 -0.4240
   10SAPS  H18X 1328   6.464   3.119   8.022  1.8192  0.0862  1.0044
   10SAPS  H18Y 1329   6.340   3.216   8.111 -0.1165  0.5869 -1.1659
   10SAPS  H18Z 1330   6.507   3.199   8.174  0.7787 -0.9318 -1.0484
   11SAPS     N 1331   0.432   5.260   5.639  0.4731  0.2399  0.1623
   11SAPS   HN1 1332   0.425   5.166   5.592 -1.2650 -0.4158  1.6121
   11SAPS   HN2 1333   0.529   5.293   5.624  0.3653 -0.6479 -3.5018
   11SAPS   HN3 1334   0.419   5.241   5.740  0.1176 -0.1260  0.0536
   11SAPS   C12 1335   0.327   5.351   5.581  0.6673  0.1040 -0.8734
   11SAPS  H12A 1336   0.383   5.415   5.514  1.8026 -0.2935 -0.3404
   11SAPS   C13 1337   0.233   5.275   5.483 -0.4010 -0.0469  0.3422
   11SAPS  O13A 1338   0.259   5.155   5.448 -0.0563  0.2716  0.7111
   11SAPS  O13B 1339   0.145   5.336   5.422 -0.3364  0.1363 -0.1690
   11SAPS   C11 1340   0.248   5.425   5.690 -0.0481  0.0527  0.1857
   11SAPS  H11A 1341   0.183   5.357   5.748  1.2707 -1.7389 -0.3322
   11SAPS  H11B 1342   0.173   5.493   5.646 -0.7612 -1.2559 -0.7034
   11SAPS     P 1343   0.366   5.640   5.777 -0.4508 -0.2537  0.1520
   11SAPS   O13 1344   0.465   5.677   5.882 -0.3851 -0.3896 -0.4444
   11SAPS   O14 1345   0.400   5.673   5.638  0.0197 -0.0174  0.0536
   11SAPS   O12 1346   0.331   5.490   5.784  0.4317 -0.1970 -0.3875
   11SAPS   O11 1347   0.231   5.714   5.806  0.0278 -0.0268  0.1744
   11SAPS    C1 1348   0.139   5.699   5.912 -0.6980  0.1071 -0.3851
   11SAPS    HA 1349   0.047   5.653   5.871 -0.6222 -0.1558 -0.2647
   11SAPS    HB 1350   0.187   5.636   5.990  0.4665 -2.2551 -2.8507
   11SAPS    C2 1351   0.096   5.829   5.976 -0.2409 -0.3248 -0.4396
   11SAPS    HS 1352   0.087   5.894   5.886 -1.4535  1.3116  0.8197
   11SAPS   O21 1353   0.187   5.885   6.068 -0.6372  0.1796  0.5386
   11SAPS   C21 1354   0.280   5.962   6.018 -0.6709 -0.3039 -0.4074
   11SAPS   O22 1355   0.283   6.011   5.904  1.0036 -0.3727  0.3706
   11SAPS   C22 1356   0.387   6.002   6.123  0.3173  0.4305 -0.0322
   11SAPS   H2R 1357   0.355   5.980   6.227  1.6820  0.2025  0.3670
   11SAPS   H2S 1358   0.480   5.947   6.097  1.3775  2.2406 -0.2265
   11SAPS    C3 1359  -0.049   5.808   6.042 -0.0833  0.9662  0.1723
   11SAPS    HX 1360  -0.116   5.780   5.959  0.6225 -0.3660  0.0266
   11SAPS    HY 1361  -0.089   5.906   6.075 -0.9978 -0.0481  2.2742
   11SAPS   O31 1362  -0.050   5.701   6.149 -0.1520 -0.1166  0.2397
   11SAPS   C31 1363  -0.110   5.738   6.267 -0.2064  0.4991 -0.6899
   11SAPS   O32 1364  -0.155   5.846   6.295 -0.2290  0.1682  0.1768
   11SAPS   C32 1365  -0.108   5.624   6.354 -0.4412  0.3081  0.0216
   11SAPS   H2X 1366  -0.011   5.570   6.348 -0.8359 -0.2675 -1.3187
   11SAPS   H2Y 1367  -0.180   5.549   6.317  0.1040 -0.0231 -0.3802
   11SAPS   C23 1368   0.419   6.158   6.110 -0.4439  0.5008  0.0020
   11SAPS   H3R 1369   0.332   6.225   6.125  2.2052  4.3936 -0.4541
   11SAPS   H3S 1370   0.456   6.172   6.007 -0.4536 -3.6679 -0.7413
   11SAPS   C24 1371   0.520   6.208   6.215  0.4643  0.1072  0.7438
   11SAPS   H4R 1372   0.485   6.195   6.320 -0.9263 -1.8210  0.1074
   11SAPS   H4S 1373   0.537   6.318   6.205  1.0124  0.0957  1.4689
   11SAPS   C25 1374   0.651   6.139   6.198  0.7068  0.1327 -0.2218
   11SAPS   H5R 1375   0.677   6.116   6.093 -0.7300  0.1854 -0.6161
   11SAPS   C26 1376   0.731   6.091   6.293  0.1774  1.0740 -0.3707
   11SAPS   H6R 1377   0.823   6.039   6.262 -0.2960 -0.1973  0.2642
   11SAPS   C27 1378   0.708   6.083   6.438 -0.1243  0.4117 -0.2193
   11SAPS   H7R 1379   0.793   6.020   6.473  0.1266 -0.1758 -1.8214
   11SAPS   H7S 1380   0.628   6.014   6.474 -1.1610  2.0547  0.7265
   11SAPS   C28 1381   0.698   6.208   6.522 -0.4324 -0.8119 -0.4263
   11SAPS   H8R 1382   0.718   6.303   6.470 -1.8216 -1.3369 -1.9820
   11SAPS   C29 1383   0.659   6.224   6.646  0.8477  0.4250  0.3531
   11SAPS   H9R 1384   0.668   6.324   6.692  1.1575  2.2036 -3.1850
   11SAPS  C210 1385   0.604   6.101   6.726 -0.5801 -0.2195 -0.0747
   11SAPS  H10R 1386   0.617   6.000   6.681  0.4823 -0.5908  1.0176
   11SAPS  H10S 1387   0.494   6.114   6.724 -0.6808 -0.5656  1.8138
   11SAPS  C211 1388   0.661   6.089   6.871  0.2901 -0.4508  0.5091
   11SAPS  H11R 1389   0.734   6.009   6.885  0.0602 -0.5407  1.2312
   11SAPS  C212 1390   0.630   6.164   6.975 -0.4631  0.3197 -0.2579
   11SAPS  H12R 1391   0.686   6.130   7.064 -0.5067 -1.3116 -0.8210
   11SAPS  C213 1392   0.534   6.276   6.977 -0.6611 -0.3228 -0.0131
   11SAPS  H13R 1393   0.546   6.335   6.884  0.3902 -2.1674 -1.1154
   11SAPS  H13S 1394   0.566   6.354   7.049  1.5628  0.0447 -1.3135
   11SAPS  C214 1395   0.393   6.246   7.006 -0.0744  0.1223 -0.0697
   11SAPS  H14R 1396   0.325   6.237   6.920 -0.3327  1.4116 -0.0195
   11SAPS  C215 1397   0.337   6.233   7.125 -0.3194 -0.4694  0.2542
   11SAPS  H15R 1398   0.228   6.218   7.118 -0.3594  0.0818 -0.4106
   11SAPS  C216 1399   0.398   6.255   7.266 -0.3226  0.2404  0.0406
   11SAPS  H16R 1400   0.491   6.314   7.263 -0.7028  0.8176 -1.3151
   11SAPS  H16S 1401   0.432   6.156   7.303  2.3762  0.5178 -1.4819
   11SAPS  C217 1402   0.305   6.331   7.365 -0.3577  0.7560 -0.7996
   11SAPS  H17R 1403   0.205   6.284   7.351  0.2750 -1.5875  1.6641
   11SAPS  H17S 1404   0.308   6.440   7.342 -2.2718  1.1741  0.6375
   11SAPS  C218 1405   0.337   6.302   7.507  0.4295 -0.3893 -0.2772
   11SAPS  H18R 1406   0.386   6.202   7.503  1.0933 -0.1432  1.0197
   11SAPS  H18S 1407   0.250   6.301   7.576  2.2622  1.5959  2.2790
   11SAPS  C219 1408   0.419   6.420   7.562 -0.5024  0.1054  0.4946
   11SAPS  H19R 1409   0.365   6.514   7.590 -1.3394  0.0214 -0.7768
   11SAPS  H19S 1410   0.492   6.448   7.484 -0.1966 -0.4334  0.5842
   11SAPS  C220 1411   0.489   6.360   7.681  0.0506 -0.4190 -0.0804
   11SAPS  H20R 1412   0.426   6.299   7.750 -1.1099  0.4246 -0.3508
   11SAPS  H20S 1413   0.513   6.432   7.762  0.8157 -1.4895  0.6820
   11SAPS  H20T 1414   0.583   6.303   7.663  0.6226 -0.1198  1.7743
   11SAPS   C33 1415  -0.150   5.650   6.501 -0.2965  0.0770  0.3044
   11SAPS   H3X 1416  -0.259   5.673   6.503 -0.1180  0.9057  1.1082
   11SAPS   H3Y 1417  -0.099   5.738   6.544 -0.2397 -0.0535  0.5031
   11SAPS   C34 1418  -0.132   5.518   6.574  0.5414 -0.6631  0.2079
   11SAPS   H4X 1419  -0.025   5.510   6.604  0.3268  0.1623  1.2539
   11SAPS   H4Y 1420  -0.146   5.434   6.503 -1.3122 -0.9335  0.8401
   11SAPS   C35 1421  -0.225   5.490   6.695  0.0061 -0.3704  0.0429
   11SAPS   H5X 1422  -0.209   5.392   6.746  1.5391  1.1306  2.6631
   11SAPS   H5Y 1423  -0.332   5.497   6.669  0.4665  0.7185 -1.6899
   11SAPS   C36 1424  -0.214   5.599   6.802  0.4601  0.3897 -0.4485
   11SAPS   H6X 1425  -0.227   5.703   6.765 -1.4405 -0.1902 -1.5726
   11SAPS   H6Y 1426  -0.109   5.610   6.837  1.2512  1.0466 -2.8394
   11SAPS   C37 1427  -0.299   5.567   6.927  0.3261  0.1812 -0.0730
   11SAPS   H7X 1428  -0.406   5.557   6.898 -0.5490 -0.3426  2.9890
   11SAPS   H7Y 1429  -0.314   5.649   7.000  0.0101  0.1442 -0.0952
   11SAPS   C38 1430  -0.263   5.437   7.006  0.0027  0.3557  0.5119
   11SAPS   H8X 1431  -0.154   5.439   7.030  0.0873 -0.6762  0.2201
   11SAPS   H8Y 1432  -0.303   5.352   6.948  0.9786 -0.9663  1.6969
   11SAPS   C39 1433  -0.341   5.418   7.136 -0.8176  0.2453  0.4480
   11SAPS   H9X 1434  -0.326   5.317   7.179  1.8297  0.3682 -0.0220
   11SAPS   H9Y 1435  -0.451   5.428   7.126 -0.6907 -0.3782 -2.2570
   11SAPS  C310 1436  -0.301   5.511   7.245 -0.1950 -0.2375 -0.5359
   11SAPS  H10X 1437  -0.322   5.618   7.224  2.3025  0.5436  0.6277
   11SAPS  H10Y 1438  -0.191   5.504   7.256 -0.1070 -3.5578 -2.2868
   11SAPS  C311 1439  -0.385   5.467   7.368 -0.4637 -0.2756  0.1025
   11SAPS  H11X 1440  -0.357   5.364   7.398  0.0553  0.0401  0.7219
   11SAPS  H11Y 1441  -0.495   5.467   7.351 -0.5234  1.5280  0.2717
   11SAPS  C312 1442  -0.354   5.559   7.489  0.3612  0.2151  0.3344
   11SAPS  H12X 1443  -0.420   5.648   7.475 -1.4963 -1.3305 -1.4353
   11SAPS  H12Y 1444  -0.248   5.590   7.481  0.0505  1.2467 -0.0176
   11SAPS  C313 1445  -0.390   5.515   7.627 -0.1359 -0.1581  0.1680
   11SAPS  H13X 1446  -0.329   5.424   7.646 -1.0149 -0.8471 -0.2361
   11SAPS  H13Y 1447  -0.497   5.491   7.646 -0.6238  0.4296 -1.6051
   11SAPS  C314 1448  -0.366   5.624   7.730  0.8244 -0.1795 -0.7216
   11SAPS  H14X 1449  -0.427   5.708   7.691  0.7162 -0.6549 -1.6072
   11SAPS  H14Y 1450  -0.266   5.671   7.731  0.8262 -0.1583 -1.4215
   11SAPS  C315 1451  -0.410   5.572   7.872  0.2902 -0.4681 -0.3270
   11SAPS  H15X 1452  -0.319   5.528   7.918  2.3066  1.6987 -2.0042
   11SAPS  H15Y 1453  -0.500   5.506   7.864 -1.6712  1.9805  0.3424
   11SAPS  C316 1454  -0.442   5.692   7.961  0.1780 -0.7270 -0.7050
   11SAPS  H16X 1455  -0.523   5.761   7.930 -0.8782 -0.6814  1.8867
   11SAPS  H16Y 1456  -0.345   5.746   7.957  0.2632 -0.9710 -2.2806
   11SAPS  C317 1457  -0.492   5.649   8.102  0.3987  0.5988  0.3792
   11SAPS  H17X 1458  -0.586   5.591   8.089  0.8914 -0.0521 -0.3917
   11SAPS  H17Y 1459  -0.537   5.732   8.161 -0.4835 -0.0114  0.5816
   11SAPS  C318 1460  -0.387   5.581   8.185  0.2458  0.3339 -0.5595
   11SAPS  H18X 1461  -0.298   5.647   8.189  0.8855 -0.4313 -1.6291
   11SAPS  H18Y 1462  -0.352   5.485   8.143  0.0755 -0.7294  1.5802
   11SAPS  H18Z 1463  -0.424   5.556   8.287 -2.5083 -0.7542 -1.7350
   12SAPS     N 1464   5.097   1.084   6.008  0.2932  0.1335  0.6472
   12SAPS   HN1 1465   5.082   1.065   6.109 -0.2290  1.2104  0.7827
   12SAPS   HN2 1466   5.054   1.176   5.987 -0.4331 -0.0301  1.3961
   12SAPS   HN3 1467   5.049   1.008   5.956  1.9286 -0.3276 -0.2721
   12SAPS   C12 1468   5.243   1.078   5.970  0.1466 -0.3039 -0.3803
   12SAPS  H12A 1469   5.279   0.981   6.003 -0.4995 -0.5485 -0.3859
   12SAPS   C13 1470   5.272   1.078   5.821  0.5604  0.6493  0.8323
   12SAPS  O13A 1471   5.175   1.071   5.740  0.0585  0.3550  0.4228
   12SAPS  O13B 1472   5.386   1.048   5.783 -0.1086  0.0347 -0.1090
   12SAPS   C11 1473   5.326   1.188   6.047 -0.8393 -0.5627  0.3062
   12SAPS  H11A 1474   5.308   1.284   5.994  1.7053  1.3855  2.6698
   12SAPS  H11B 1475   5.434   1.174   6.026 -0.6025  0.5380  0.7252
   12SAPS     P 1476   5.383   1.106   6.289  0.1441  0.2462  0.0317
   12SAPS   O13 1477   5.363   1.163   6.424  0.0715  0.5596 -0.1425
   12SAPS   O14 1478   5.361   0.966   6.269 -0.4053 -0.0430 -0.0624
   12SAPS   O12 1479   5.290   1.189   6.184 -0.3811  0.0185 -0.2626
   12SAPS   O11 1480   5.527   1.148   6.239  0.6313  0.1627  0.1746
   12SAPS    C1 1481   5.581   1.278   6.217  0.3322 -0.5093  0.0403
   12SAPS    HA 1482   5.643   1.273   6.125  0.1886  0.8973 -0.1539
   12SAPS    HB 1483   5.510   1.354   6.178  0.5583 -0.9423 -1.2794
   12SAPS    C2 1484   5.662   1.339   6.329 -0.8771 -0.0604 -0.5123
   12SAPS    HS 1485   5.743   1.269   6.358  0.8364  1.9066 -0.2632
   12SAPS   O21 1486   5.575   1.360   6.442 -1.0380  0.2266  0.8791
   12SAPS   C21 1487   5.596   1.298   6.548  0.3616 -0.4313  0.0336
   12SAPS   O22 1488   5.694   1.223   6.572  0.6003  0.0031  0.4325
   12SAPS   C22 1489   5.488   1.327   6.652 -0.8930  0.6419 -0.5055
   12SAPS   H2R 1490   5.470   1.436   6.646  3.6330  1.5753 -0.9162
   12SAPS   H2S 1491   5.401   1.265   6.622 -0.7518  0.3650 -0.3523
   12SAPS    C3 1492   5.724   1.473   6.290 -0.4836 -0.2740  0.0790
   12SAPS    HX 1493   5.631   1.534   6.280 -1.0406 -1.1925 -0.3939
   12SAPS    HY 1494   5.778   1.482   6.193  2.6095  0.8503  1.7314
   12SAPS   O31 1495   5.801   1.524   6.401  0.0625  0.2831  0.0904
   12SAPS   C31 1496   5.927   1.494   6.402  0.3617 -0.6252  0.2086
   12SAPS   O32 1497   5.985   1.426   6.320  0.1103  0.1438 -0.1494
   12SAPS   C32 1498   6.006   1.578   6.501  0.5584 -0.5069 -0.4957
   12SAPS   H2X 1499   6.010   1.687   6.483  0.1839  0.0171  2.1637
   12SAPS   H2Y 1500   6.110   1.539   6.494  0.3008 -1.6432  1.3431
   12SAPS   C23 1501   5.533   1.296   6.797  1.1040 -0.0503  0.1259
   12SAPS   H3R 1502   5.563   1.190   6.805  0.0407 -0.7369 -3.3798
   12SAPS   H3S 1503   5.444   1.325   6.858  1.1973 -0.1219  0.2974
   12SAPS   C24 1504   5.659   1.379   6.847 -0.8353 -0.1095 -0.3802
   12SAPS   H4R 1505   5.743   1.371   6.775  0.2698  1.6114  0.6423
   12SAPS   H4S 1506   5.691   1.319   6.935  1.2111 -2.6545 -2.6858
   12SAPS   C25 1507   5.610   1.522   6.878 -0.6619 -0.7412 -0.2706
   12SAPS   H5R 1508   5.577   1.584   6.794 -0.9935  0.9002  1.0215
   12SAPS   C26 1509   5.590   1.572   7.007 -0.1677 -0.2500  0.0853
   12SAPS   H6R 1510   5.546   1.671   7.023  2.8494  1.5903 -1.9792
   12SAPS   C27 1511   5.640   1.492   7.125 -0.5278 -0.4952 -0.3806
   12SAPS   H7R 1512   5.749   1.487   7.107 -0.6387 -0.5734 -1.0332
   12SAPS   H7S 1513   5.609   1.386   7.131  1.3326 -1.0094  1.2130
   12SAPS   C28 1514   5.602   1.546   7.264 -0.3487 -0.0409 -0.2317
   12SAPS   H8R 1515   5.507   1.601   7.274 -0.3902 -0.1808  0.1689
   12SAPS   C29 1516   5.672   1.528   7.374  0.4080 -0.3309  0.7276
   12SAPS   H9R 1517   5.652   1.580   7.469  2.5525 -0.3928  1.2596
   12SAPS  C210 1518   5.792   1.443   7.387  0.5578 -0.0924 -0.6659
   12SAPS  H10R 1519   5.878   1.512   7.397  1.1551 -1.0596  1.8066
   12SAPS  H10S 1520   5.806   1.377   7.298  0.3073 -0.1913 -0.6347
   12SAPS  C211 1521   5.777   1.360   7.509  0.7123  0.6639 -0.2958
   12SAPS  H11R 1522   5.675   1.335   7.543 -0.2547  0.7681 -2.8833
   12SAPS  C212 1523   5.875   1.313   7.589 -0.0539 -0.4261 -0.0135
   12SAPS  H12R 1524   5.853   1.260   7.683 -2.7600  1.2487  0.4282
   12SAPS  C213 1525   6.022   1.319   7.556  0.1370 -0.0547 -0.1074
   12SAPS  H13R 1526   6.048   1.405   7.491  0.9693  0.9588  1.5084
   12SAPS  H13S 1527   6.039   1.232   7.488 -0.7914 -1.5589  1.4924
   12SAPS  C214 1528   6.114   1.310   7.674  0.0191  0.4617 -0.1832
   12SAPS  H14R 1529   6.176   1.397   7.700  0.6842 -0.4691  1.4665
   12SAPS  C215 1530   6.140   1.198   7.748  0.4325 -0.5534  0.2245
   12SAPS  H15R 1531   6.213   1.200   7.830 -0.1630  0.6521  0.7473
   12SAPS  C216 1532   6.075   1.063   7.749  0.7347  1.1800 -0.6894
   12SAPS  H16R 1533   5.966   1.060   7.728  0.8937 -0.7577 -1.4867
   12SAPS  H16S 1534   6.086   1.012   7.847  0.1152 -0.5023 -1.4580
   12SAPS  C217 1535   6.142   0.969   7.648 -1.1525 -0.2231 -0.0485
   12SAPS  H17R 1536   6.252   0.979   7.652 -1.3839  3.1475  2.2268
   12SAPS  H17S 1537   6.100   0.988   7.547 -1.2069  0.2891  0.0682
   12SAPS  C218 1538   6.106   0.825   7.681  0.6917  0.0702  0.4146
   12SAPS  H18R 1539   6.004   0.821   7.638  0.1061 -1.7746  1.9151
   12SAPS  H18S 1540   6.095   0.795   7.787 -1.2336 -1.4469 -0.1596
   12SAPS  C219 1541   6.202   0.725   7.621  0.9138  0.3508 -0.0021
   12SAPS  H19R 1542   6.297   0.735   7.678  0.2878 -1.1142  1.3956
   12SAPS  H19S 1543   6.212   0.748   7.513  1.9408  1.2050  0.2579
   12SAPS  C220 1544   6.158   0.569   7.634 -0.3752  0.6201  0.2376
   12SAPS  H20R 1545   6.144   0.547   7.742 -2.7733 -1.4195 -0.3997
   12SAPS  H20S 1546   6.237   0.502   7.594  1.4770  1.7135  1.8325
   12SAPS  H20T 1547   6.058   0.540   7.596  0.0162 -2.1745  1.1035
   12SAPS   C33 1548   5.956   1.563   6.649 -0.7873  0.1311  0.1916
   12SAPS   H3X 1549   5.970   1.454   6.665 -1.2187  0.2431  1.4298
   12SAPS   H3Y 1550   5.847   1.587   6.648 -0.9197 -0.3401  1.5637
   12SAPS   C34 1551   6.042   1.639   6.754  0.0984 -0.0470 -0.2473
   12SAPS   H4X 1552   6.043   1.747   6.729 -0.1900  1.0097  3.6972
   12SAPS   H4Y 1553   6.146   1.600   6.756  0.1995  0.2161 -0.3946
   12SAPS   C35 1554   5.986   1.626   6.899 -0.3177 -0.3066 -0.1377
   12SAPS   H5X 1555   5.974   1.521   6.936  1.5901 -0.5559 -0.1383
   12SAPS   H5Y 1556   5.885   1.671   6.898 -0.6636 -0.9912  1.4380
   12SAPS   C36 1557   6.072   1.709   6.999  0.7843 -0.2760 -0.3692
   12SAPS   H6X 1558   6.074   1.820   6.995  2.6610 -0.1227  2.2985
   12SAPS   H6Y 1559   6.174   1.672   6.976  0.0917 -2.6795  0.0858
   12SAPS   C37 1560   6.036   1.674   7.151  0.0788 -0.5234  0.3417
   12SAPS   H7X 1561   6.025   1.565   7.169 -1.0421 -0.9153 -2.3099
   12SAPS   H7Y 1562   5.933   1.714   7.153 -0.1801 -0.7993 -2.7556
   12SAPS   C38 1563   6.124   1.742   7.259  0.0983 -0.3824 -0.8545
   12SAPS   H8X 1564   6.093   1.849   7.261  0.5629 -0.2526 -0.4438
   12SAPS   H8Y 1565   6.231   1.739   7.227  0.5079 -1.2110  0.5425
   12SAPS   C39 1566   6.110   1.683   7.395 -0.9356 -0.0045 -0.3464
   12SAPS   H9X 1567   6.126   1.574   7.384  1.0903  0.4294 -2.6458
   12SAPS   H9Y 1568   6.006   1.685   7.434 -0.8620 -0.0358 -0.1485
   12SAPS  C310 1569   6.196   1.760   7.499 -0.1328 -0.1976 -0.3511
   12SAPS  H10X 1570   6.180   1.870   7.506 -1.1997 -0.2579 -1.6373
   12SAPS  H10Y 1571   6.300   1.744   7.462 -0.5959 -1.7827 -1.0493
   12SAPS  C311 1572   6.185   1.708   7.638 -0.3942 -0.3150  0.1980
   12SAPS  H11X 1573   6.281   1.725   7.692  0.3263  0.8185 -1.3422
   12SAPS  H11Y 1574   6.170   1.599   7.622 -1.3355  0.1204 -2.3874
   12SAPS  C312 1575   6.072   1.766   7.725 -0.2333  0.2356 -0.7233
   12SAPS  H12X 1576   5.981   1.760   7.663  0.0767 -0.2113 -1.1428
   12SAPS  H12Y 1577   6.094   1.872   7.750  0.3303  0.0567 -0.4101
   12SAPS  C313 1578   6.063   1.692   7.857  0.2401 -0.7207 -1.2626
   12SAPS  H13X 1579   6.150   1.720   7.921 -1.4728 -0.0375  0.8952
   12SAPS  H13Y 1580   6.081   1.586   7.831  0.9685 -0.3913 -2.1841
   12SAPS  C314 1581   5.933   1.718   7.935 -0.7666 -0.2776 -0.5342
   12SAPS  H14X 1582   5.850   1.694   7.865 -0.6431  0.8278 -1.0883
   12SAPS  H14Y 1583   5.934   1.827   7.958 -0.6192 -0.3230 -0.3265
   12SAPS  C315 1584   5.918   1.632   8.061  0.3899  0.2006  0.3834
   12SAPS  H15X 1585   5.992   1.664   8.137  0.6279 -1.2076  0.7724
   12SAPS  H15Y 1586   5.947   1.526   8.043 -0.8755 -0.5243  2.2660
   12SAPS  C316 1587   5.778   1.647   8.127 -0.5095 -0.7492 -0.2385
   12SAPS  H16X 1588   5.706   1.633   8.043 -3.1070 -2.0142  2.0414
   12SAPS  H16Y 1589   5.777   1.750   8.166  2.7716 -1.0223  0.8295
   12SAPS  C317 1590   5.743   1.544   8.238  0.2325 -0.2289  0.2779
   12SAPS  H17X 1591   5.791   1.573   8.334  0.0246 -0.0808  0.3378
   12SAPS  H17Y 1592   5.772   1.440   8.212 -0.8795 -0.6517  0.6707
   12SAPS  C318 1593   5.590   1.539   8.267 -0.2795 -0.1361 -0.7232
   12SAPS  H18X 1594   5.558   1.645   8.278  2.1797  0.4989  1.2563
   12SAPS  H18Y 1595   5.565   1.471   8.350 -0.3025  1.0076  0.2368
   12SAPS  H18Z 1596   5.539   1.494   8.179  0.4719 -2.8023  0.1374
   13SAPS     N 1597   0.005   5.585   5.443  0.1464  0.1885 -0.4915
   13SAPS   HN1 1598   0.091   5.638   5.420  0.0773 -0.2466 -1.8746
   13SAPS   HN2 1599   0.025   5.485   5.465  2.9826  1.5008  4.1975
   13SAPS   HN3 1600  -0.064   5.606   5.367  0.8993  2.3342 -0.6376
   13SAPS   C12 1601  -0.050   5.650   5.563 -0.5422 -1.1052  0.2994
   13SAPS  H12A 1602   0.032   5.674   5.629 -1.0012  1.0843  0.1374
   13SAPS   C13 1603  -0.111   5.789   5.524 -0.8456  0.5178  0.2580
   13SAPS  O13A 1604  -0.090   5.832   5.407  0.1061 -0.2554  0.1618
   13SAPS  O13B 1605  -0.156   5.868   5.613 -0.7636  0.2713 -0.1499
   13SAPS   C11 1606  -0.146   5.550   5.623  0.5593  0.5205  0.0392
   13SAPS  H11A 1607  -0.236   5.548   5.558  1.0706 -0.5517 -0.6734
   13SAPS  H11B 1608  -0.176   5.585   5.724  0.5620 -2.4145  1.1693
   13SAPS     P 1609  -0.159   5.297   5.720  0.4602  0.0181 -0.0697
   13SAPS   O13 1610  -0.296   5.265   5.676  0.3413 -0.0577  1.2781
   13SAPS   O14 1611  -0.064   5.192   5.693  1.2000  0.4572  0.7016
   13SAPS   O12 1612  -0.098   5.420   5.642 -0.3593  0.3951 -0.3325
   13SAPS   O11 1613  -0.153   5.340   5.875  0.0731 -0.3785 -0.2470
   13SAPS    C1 1614  -0.043   5.393   5.949 -0.2295 -0.0054 -0.5657
   13SAPS    HA 1615   0.034   5.436   5.882 -0.3871  2.5956  0.8122
   13SAPS    HB 1616  -0.065   5.481   6.013 -1.8513  0.1427 -1.2868
   13SAPS    C2 1617   0.026   5.288   6.036 -0.0037  0.2102 -0.4203
   13SAPS    HS 1618   0.044   5.192   5.982  2.0138  0.1404  0.3211
   13SAPS   O21 1619  -0.053   5.266   6.156 -0.0837 -0.2242  0.2819
   13SAPS   C21 1620  -0.008   5.163   6.234 -0.1726 -0.3301 -0.8195
   13SAPS   O22 1621   0.075   5.083   6.196  0.2747  0.5697 -0.1191
   13SAPS   C22 1622  -0.097   5.157   6.358  0.3445  0.8135  0.0073
   13SAPS   H2R 1623  -0.145   5.257   6.363  0.7310  1.0251 -0.4563
   13SAPS   H2S 1624  -0.167   5.070   6.351  3.0145 -1.4740 -0.2127
   13SAPS    C3 1625   0.170   5.329   6.066 -0.1079 -0.6898 -0.1324
   13SAPS    HX 1626   0.207   5.352   5.964 -0.6668 -0.7222 -0.3441
   13SAPS    HY 1627   0.238   5.251   6.107  2.1185  1.9231  1.4601
   13SAPS   O31 1628   0.176   5.455   6.138  0.1428  0.0253 -0.5863
   13SAPS   C31 1629   0.292   5.486   6.192  0.1498 -0.1141 -0.6732
   13SAPS   O32 1630   0.383   5.407   6.192  0.3572  0.6220 -0.6158
   13SAPS   C32 1631   0.297   5.635   6.243 -0.5238  0.0419 -0.2064
   13SAPS   H2X 1632   0.194   5.668   6.220 -0.0931  0.0484 -2.3571
   13SAPS   H2Y 1633   0.369   5.692   6.180 -0.3765 -0.6230 -0.6591
   13SAPS   C23 1634   0.002   5.131   6.491  0.6256 -0.6678 -0.0648
   13SAPS   H3R 1635   0.040   5.027   6.502  0.7565 -0.7526 -1.2393
   13SAPS   H3S 1636  -0.070   5.149   6.574  1.1889  4.5897 -0.3498
   13SAPS   C24 1637   0.103   5.246   6.516 -0.2984 -0.1948  0.3381
   13SAPS   H4R 1638   0.094   5.278   6.622  1.8616 -0.8183  0.7457
   13SAPS   H4S 1639   0.072   5.338   6.463  2.0988  1.1247  1.1268
   13SAPS   C25 1640   0.246   5.229   6.481  0.4932 -0.6304  0.6100
   13SAPS   H5R 1641   0.268   5.190   6.380 -0.7357 -1.3503  0.6032
   13SAPS   C26 1642   0.350   5.268   6.560 -0.2412 -0.3449  0.3547
   13SAPS   H6R 1643   0.452   5.249   6.523 -1.1689 -0.6635 -2.1886
   13SAPS   C27 1644   0.351   5.322   6.694  0.0884 -0.5589 -0.4551
   13SAPS   H7R 1645   0.460   5.324   6.719 -0.2109 -0.1920  0.9139
   13SAPS   H7S 1646   0.296   5.257   6.765 -1.4510  3.2155  2.1313
   13SAPS   C28 1647   0.313   5.464   6.712 -0.3753  0.6409  0.1598
   13SAPS   H8R 1648   0.371   5.537   6.653 -1.3429  0.5224 -0.9833
   13SAPS   C29 1649   0.213   5.517   6.793 -0.3533  0.5129 -0.2621
   13SAPS   H9R 1650   0.204   5.627   6.791 -1.1786  0.4457 -0.8820
   13SAPS  C210 1651   0.119   5.432   6.881  0.2176  0.6838  0.5181
   13SAPS  H10R 1652   0.153   5.326   6.881  0.7184  0.7994 -2.0783
   13SAPS  H10S 1653   0.017   5.405   6.844  1.2331 -2.3036 -0.4216
   13SAPS  C211 1654   0.129   5.465   7.025  0.6359  0.2736 -0.0190
   13SAPS  H11R 1655   0.196   5.548   7.052  0.7783 -0.2133  1.2137
   13SAPS  C212 1656   0.091   5.381   7.123  0.1067  0.1028 -0.1189
   13SAPS  H12R 1657   0.109   5.412   7.227 -0.5611 -0.0138  0.0350
   13SAPS  C213 1658   0.015   5.250   7.098 -0.1670  0.3961 -0.8129
   13SAPS  H13R 1659   0.000   5.230   6.989 -0.8963  1.8585 -1.0086
   13SAPS  H13S 1660  -0.083   5.248   7.151  0.3723 -2.0093  0.2432
   13SAPS  C214 1661   0.081   5.139   7.171 -0.2658 -0.5860 -0.8441
   13SAPS  H14R 1662   0.066   5.152   7.279  0.8751 -0.2302 -0.7125
   13SAPS  C215 1663   0.140   5.029   7.127 -0.5454 -0.1319  0.0356
   13SAPS  H15R 1664   0.188   4.961   7.199  0.3575 -1.1575 -1.4771
   13SAPS  C216 1665   0.162   4.981   6.981  0.5006 -0.3722 -0.0624
   13SAPS  H16R 1666   0.085   5.018   6.909  1.6893 -1.1567 -1.7887
   13SAPS  H16S 1667   0.163   4.871   6.974  1.6324 -0.3774  0.0359
   13SAPS  C217 1668   0.292   5.011   6.908 -0.0449  0.3313  0.1481
   13SAPS  H17R 1669   0.366   4.948   6.962  0.7411 -0.0204 -1.2907
   13SAPS  H17S 1670   0.312   5.119   6.922  0.2882  0.1412  1.2314
   13SAPS  C218 1671   0.290   4.986   6.755  0.3519 -0.7802  0.8571
   13SAPS  H18R 1672   0.374   5.038   6.704 -0.6936  0.9148  0.7888
   13SAPS  H18S 1673   0.196   5.034   6.719  0.4928 -0.1186  1.3582
   13SAPS  C219 1674   0.289   4.838   6.725  0.2522 -0.0427 -0.4683
   13SAPS  H19R 1675   0.219   4.781   6.790  1.5481 -2.4194 -1.0429
   13SAPS  H19S 1676   0.391   4.806   6.754  0.3945 -0.2769 -1.1997
   13SAPS  C220 1677   0.268   4.808   6.574  0.2420  0.2510 -0.4322
   13SAPS  H20R 1678   0.280   4.698   6.561 -1.6729  0.1405 -1.6939
   13SAPS  H20S 1679   0.356   4.853   6.523 -0.1760  0.6979 -0.7604
   13SAPS  H20T 1680   0.169   4.844   6.540  0.2844  0.9408  0.1623
   13SAPS   C33 1681   0.313   5.640   6.397 -0.1066 -0.0211  0.3801
   13SAPS   H3X 1682   0.415   5.598   6.414 -1.0258 -0.9956  4.8046
   13SAPS   H3Y 1683   0.231   5.583   6.447  0.4448  0.5775  2.0446
   13SAPS   C34 1684   0.328   5.780   6.446  0.2190  0.3224  0.3270
   13SAPS   H4X 1685   0.399   5.841   6.387  0.1331 -1.6995 -2.0867
   13SAPS   H4Y 1686   0.369   5.777   6.549  4.8057 -1.4025 -1.2900
   13SAPS   C35 1687   0.193   5.851   6.432 -0.3753 -0.0115 -0.4488
   13SAPS   H5X 1688   0.115   5.781   6.470 -1.3536  0.4249 -1.5950
   13SAPS   H5Y 1689   0.166   5.862   6.325 -0.6082  0.8740 -0.2998
   13SAPS   C36 1690   0.188   5.989   6.509 -0.0210  0.2025 -0.5769
   13SAPS   H6X 1691   0.091   6.032   6.473  0.4365  0.7160 -1.2279
   13SAPS   H6Y 1692   0.271   6.055   6.476  1.2616 -1.2909 -0.4118
   13SAPS   C37 1693   0.194   5.983   6.666 -0.6254 -0.6141 -0.4115
   13SAPS   H7X 1694   0.198   6.090   6.698  1.8705 -0.9505  0.6681
   13SAPS   H7Y 1695   0.287   5.939   6.708 -0.6702 -0.3539 -0.0229
   13SAPS   C38 1696   0.070   5.919   6.724  0.2559 -0.3512 -0.0995
   13SAPS   H8X 1697   0.050   5.810   6.719 -2.5007  0.0930 -0.1471
   13SAPS   H8Y 1698  -0.014   5.951   6.658  1.0446  0.2099 -0.8642
   13SAPS   C39 1699   0.044   5.948   6.875 -0.6369  0.8877 -0.3303
   13SAPS   H9X 1700  -0.063   5.926   6.896 -0.9290  3.1249  0.8567
   13SAPS   H9Y 1701   0.055   6.053   6.911 -0.6548  0.1769  1.9041
   13SAPS  C310 1702   0.136   5.856   6.959  0.1704 -0.5597 -1.5165
   13SAPS  H10X 1703   0.240   5.878   6.927  1.0376  2.4820  2.5447
   13SAPS  H10Y 1704   0.109   5.754   6.923  0.7258 -0.4423 -2.2738
   13SAPS  C311 1705   0.134   5.854   7.113  0.1632  0.6696  0.1258
   13SAPS  H11X 1706   0.171   5.954   7.145  5.6046 -0.2811 -2.0480
   13SAPS  H11Y 1707   0.198   5.785   7.172 -2.7507 -0.2991  2.4089
   13SAPS  C312 1708  -0.011   5.830   7.168  0.1350 -0.3909 -0.2313
   13SAPS  H12X 1709  -0.046   5.725   7.155  0.6963 -0.8405  1.5682
   13SAPS  H12Y 1710  -0.086   5.890   7.112 -0.5727 -0.2331  0.8507
   13SAPS  C313 1711  -0.027   5.869   7.313 -0.1595  0.3836 -0.2935
   13SAPS  H13X 1712   0.016   5.967   7.343  1.8819 -0.3532 -0.6085
   13SAPS  H13Y 1713   0.036   5.793   7.366 -0.7811 -0.0486 -0.1631
   13SAPS  C314 1714  -0.164   5.867   7.372  0.0336  0.2659 -0.4406
   13SAPS  H14X 1715  -0.222   5.784   7.326  2.1823 -0.4849 -2.0006
   13SAPS  H14Y 1716  -0.206   5.961   7.332 -1.5074 -0.3550 -0.3347
   13SAPS  C315 1717  -0.160   5.871   7.525 -0.3137 -0.1074  0.5764
   13SAPS  H15X 1718  -0.072   5.824   7.574  0.6863  1.7802  0.6904
   13SAPS  H15Y 1719  -0.254   5.825   7.562 -0.2645  0.6431  1.6951
   13SAPS  C316 1720  -0.167   6.016   7.565 -0.4474 -0.3448  0.2556
   13SAPS  H16X 1721  -0.250   6.070   7.514  1.0065  0.9845 -0.8246
   13SAPS  H16Y 1722  -0.080   6.078   7.534  0.3374 -0.9704  1.1512
   13SAPS  C317 1723  -0.176   6.027   7.719  0.5580 -0.2192 -0.2594
   13SAPS  H17X 1724  -0.136   6.127   7.748  1.3854 -1.0634  1.7203
   13SAPS  H17Y 1725  -0.118   5.943   7.763 -0.0990 -0.6531 -0.2090
   13SAPS  C318 1726  -0.322   6.025   7.768 -0.3103 -0.3713  0.4804
   13SAPS  H18X 1727  -0.352   5.918   7.774 -0.4395 -0.2714  2.0493
   13SAPS  H18Y 1728  -0.379   6.086   7.694  2.8510  1.6277 -0.4879
   13SAPS  H18Z 1729  -0.335   6.063   7.871 -0.2020 -0.1881  0.4260
   14SAPS     N 1730   6.825   0.118   5.971 -0.6242  0.4186 -1.8827
   14SAPS   HN1 1731   6.826   0.069   5.879  4.4896 -2.5692 -0.6498
   14SAPS   HN2 1732   6.910   0.075   6.013 -0.3825  3.4623  1.1836
   14SAPS   HN3 1733   6.747   0.103   6.039  0.1821  2.9027 -0.2584
   14SAPS   C12 1734   6.856   0.263   5.960  0.1281 -0.2682 -0.0233
   14SAPS  H12A 1735   6.934   0.272   5.886 -0.0034 -1.0949 -0.2691
   14SAPS   C13 1736   6.732   0.345   5.917 -0.4625  0.4411  0.6221
   14SAPS  O13A 1737   6.614   0.307   5.938  0.4541 -0.0416  0.0928
   14SAPS  O13B 1738   6.752   0.469   5.896 -0.4555  0.3796  0.3911
   14SAPS   C11 1739   6.912   0.331   6.081 -0.2957  0.0077  0.5421
   14SAPS  H11A 1740   6.842   0.339   6.167 -0.4980  2.2985  0.2099
   14SAPS  H11B 1741   6.949   0.432   6.054 -0.0888 -0.3590 -0.6084
   14SAPS     P 1742   7.167   0.271   6.083 -0.0667 -0.0504 -0.2245
   14SAPS   O13 1743   7.213   0.169   5.985  0.4749 -0.4324  0.7004
   14SAPS   O14 1744   7.186   0.416   6.049  0.1059  0.5991  0.6546
   14SAPS   O12 1745   7.021   0.251   6.129  0.2235 -0.2433  0.4339
   14SAPS   O11 1746   7.232   0.243   6.224  0.3022  0.6357 -0.0935
   14SAPS    C1 1747   7.285   0.344   6.308  0.4811  0.3771  0.1937
   14SAPS    HA 1748   7.393   0.344   6.282  0.0640  0.1195 -1.7382
   14SAPS    HB 1749   7.247   0.445   6.280  1.0743  0.0569 -1.9931
   14SAPS    C2 1750   7.245   0.325   6.454 -0.2242 -0.0667  0.3102
   14SAPS    HS 1751   7.136   0.338   6.468 -0.6126 -1.8218 -0.7546
   14SAPS   O21 1752   7.328   0.416   6.534  0.5147 -0.1587 -0.3623
   14SAPS   C21 1753   7.263   0.518   6.577  0.2084 -0.1489  0.0444
   14SAPS   O22 1754   7.147   0.544   6.549  0.4513  0.2627  0.1046
   14SAPS   C22 1755   7.359   0.613   6.648 -0.4061 -0.3459  0.8072
   14SAPS   H2R 1756   7.459   0.599   6.603 -0.2308  1.3939  0.5895
   14SAPS   H2S 1757   7.317   0.714   6.625  2.5827  0.5677 -1.3161
   14SAPS    C3 1758   7.278   0.177   6.505 -0.0336 -0.0952 -0.3421
   14SAPS    HX 1759   7.388   0.172   6.491 -0.0380 -0.6564 -0.2041
   14SAPS    HY 1760   7.228   0.110   6.431 -2.5187  1.7677 -0.4718
   14SAPS   O31 1761   7.236   0.145   6.638 -0.2423 -0.3446  0.1079
   14SAPS   C31 1762   7.320   0.196   6.734 -0.3633  0.3121 -0.3516
   14SAPS   O32 1763   7.428   0.246   6.707  0.2883 -1.1200 -0.6055
   14SAPS   C32 1764   7.249   0.169   6.870 -0.7191 -0.3485  0.7316
   14SAPS   H2X 1765   7.215   0.064   6.865 -3.6707  0.5608 -1.4892
   14SAPS   H2Y 1766   7.150   0.220   6.867 -1.4357 -1.6857 -1.7454
   14SAPS   C23 1767   7.377   0.586   6.805  0.5133 -0.7186  0.5393
   14SAPS   H3R 1768   7.426   0.487   6.823 -1.3595 -1.4778  1.8275
   14SAPS   H3S 1769   7.274   0.577   6.845  0.4848 -1.1139  0.3815
   14SAPS   C24 1770   7.460   0.702   6.866 -0.0866 -0.1673 -0.1026
   14SAPS   H4R 1771   7.406   0.799   6.856 -0.9651 -0.2331  3.0348
   14SAPS   H4S 1772   7.555   0.719   6.810 -0.7044  1.5539 -0.7176
   14SAPS   C25 1773   7.496   0.696   7.013  0.4607 -0.1029  1.0981
   14SAPS   H5R 1774   7.596   0.660   7.040  0.1150 -0.4237  1.9940
   14SAPS   C26 1775   7.403   0.714   7.112 -0.2343  0.0716 -0.6909
   14SAPS   H6R 1776   7.414   0.697   7.220 -0.7152  0.0412 -0.6442
   14SAPS   C27 1777   7.257   0.756   7.091 -0.1646  0.2650  0.1148
   14SAPS   H7R 1778   7.241   0.811   6.996  0.2260  0.7937  0.3525
   14SAPS   H7S 1779   7.230   0.830   7.169 -1.9376  0.5582 -0.7209
   14SAPS   C28 1780   7.158   0.646   7.110 -0.7872 -0.5194 -0.0292
   14SAPS   H8R 1781   7.123   0.596   7.018  2.9735 -1.2203 -1.2519
   14SAPS   C29 1782   7.101   0.605   7.225  0.2615  0.3133  0.1808
   14SAPS   H9R 1783   7.023   0.528   7.230 -1.3372  1.9017  0.7899
   14SAPS  C210 1784   7.137   0.659   7.363 -0.6036  0.1589  0.8707
   14SAPS  H10R 1785   7.248   0.667   7.370 -0.1775 -0.0354 -3.2080
   14SAPS  H10S 1786   7.133   0.587   7.447  1.6204  1.1711  1.9189
   14SAPS  C211 1787   7.078   0.800   7.391  0.8574 -0.3063 -0.9345
   14SAPS  H11R 1788   7.078   0.872   7.307 -1.9221  1.3534  0.3593
   14SAPS  C212 1789   7.024   0.837   7.506  0.6754  0.2263 -1.0485
   14SAPS  H12R 1790   6.993   0.943   7.510 -2.1905 -0.5632  1.7145
   14SAPS  C213 1791   7.006   0.759   7.634 -0.5691  0.4169  0.5977
   14SAPS  H13R 1792   6.965   0.659   7.610  0.8707 -0.6351  2.2487
   14SAPS  H13S 1793   6.921   0.798   7.694 -0.4704  0.8198  0.4795
   14SAPS  C214 1794   7.133   0.761   7.716  0.5215  0.2464  0.9470
   14SAPS  H14R 1795   7.216   0.747   7.645 -0.7828  0.2313 -0.6345
   14SAPS  C215 1796   7.152   0.792   7.848  0.1857 -0.1369 -0.7172
   14SAPS  H15R 1797   7.253   0.785   7.891 -0.7615 -0.2022  1.6653
   14SAPS  C216 1798   7.049   0.827   7.949  0.2480  0.4691 -0.5496
   14SAPS  H16R 1799   6.956   0.873   7.910  0.1161 -0.4958 -1.4432
   14SAPS  H16S 1800   7.105   0.889   8.022  0.3861  0.4987 -0.6784
   14SAPS  C217 1801   7.003   0.684   8.000 -0.3935 -0.0953  0.4554
   14SAPS  H17R 1802   6.967   0.621   7.916  2.5182 -1.5579  0.1583
   14SAPS  H17S 1803   6.930   0.715   8.078 -1.2383 -1.9120  0.4353
   14SAPS  C218 1804   7.107   0.598   8.081  0.4857 -0.4691  0.7464
   14SAPS  H18R 1805   7.134   0.659   8.170 -0.5309  1.2492 -0.0641
   14SAPS  H18S 1806   7.200   0.588   8.021 -0.2954 -0.9066 -0.4247
   14SAPS  C219 1807   7.054   0.458   8.119 -0.6779 -0.2702  0.2945
   14SAPS  H19R 1808   7.047   0.408   8.021 -0.7961  2.5432 -1.2448
   14SAPS  H19S 1809   6.954   0.475   8.164  0.5367  0.4954  2.9581
   14SAPS  C220 1810   7.155   0.374   8.200  0.5300 -0.5929  0.4650
   14SAPS  H20R 1811   7.174   0.426   8.297  1.1742 -0.5709  0.3296
   14SAPS  H20S 1812   7.253   0.359   8.150  0.1852  1.2278 -0.8833
   14SAPS  H20T 1813   7.107   0.276   8.221 -3.7133  1.5957  2.1386
   14SAPS   C33 1814   7.326   0.213   7.000  0.4209  0.1340  1.1227
   14SAPS   H3X 1815   7.346   0.319   6.973 -0.4922 -0.2270 -1.1992
   14SAPS   H3Y 1816   7.420   0.156   7.018  0.1286 -0.9045 -0.4840
   14SAPS   C34 1817   7.232   0.204   7.119  0.5351  0.7601 -0.3997
   14SAPS   H4X 1818   7.227   0.095   7.141 -1.1977  0.9132  0.0315
   14SAPS   H4Y 1819   7.128   0.238   7.100 -0.1215 -1.0113 -0.2007
   14SAPS   C35 1820   7.286   0.275   7.247 -0.2127 -0.1637 -0.0371
   14SAPS   H5X 1821   7.288   0.385   7.227  0.0829  0.2867  2.2498
   14SAPS   H5Y 1822   7.389   0.242   7.271 -1.1430 -4.0475 -0.7214
   14SAPS   C36 1823   7.206   0.248   7.374  0.0142  0.0325  0.2556
   14SAPS   H6X 1824   7.140   0.162   7.353  3.5047 -2.5163 -1.2926
   14SAPS   H6Y 1825   7.144   0.336   7.400 -0.5881 -0.5650  0.8659
   14SAPS   C37 1826   7.310   0.213   7.480  0.2716  0.3933  0.2516
   14SAPS   H7X 1827   7.380   0.294   7.507 -0.3713  1.1223 -0.2272
   14SAPS   H7Y 1828   7.369   0.122   7.456 -0.9284  0.2694 -2.6271
   14SAPS   C38 1829   7.231   0.171   7.604  0.2857 -0.1428 -0.1595
   14SAPS   H8X 1830   7.138   0.120   7.572  0.5755 -1.1691  0.5727
   14SAPS   H8Y 1831   7.197   0.262   7.657  0.9372  1.1411 -1.8544
   14SAPS   C39 1832   7.302   0.078   7.699 -0.0065 -0.0257  0.3728
   14SAPS   H9X 1833   7.396   0.125   7.734 -0.8560  0.7555  1.6840
   14SAPS   H9Y 1834   7.334  -0.010   7.639 -1.7390 -0.8354  0.5689
   14SAPS  C310 1835   7.209   0.049   7.813  0.0315  0.2267 -0.3067
   14SAPS  H10X 1836   7.104   0.036   7.779 -0.3736 -0.4085  1.1193
   14SAPS  H10Y 1837   7.213   0.127   7.892  2.8085 -0.6621  0.5401
   14SAPS  C311 1838   7.249  -0.089   7.873  0.9110 -0.3685 -0.4203
   14SAPS  H11X 1839   7.330  -0.092   7.948  1.2310 -0.1798 -0.7564
   14SAPS  H11Y 1840   7.268  -0.158   7.788 -1.9690 -0.4436 -1.1114
   14SAPS  C312 1841   7.129  -0.143   7.951  0.0300  0.1763 -0.1374
   14SAPS  H12X 1842   7.162  -0.247   7.968 -2.7567 -0.7752 -0.0601
   14SAPS  H12Y 1843   7.041  -0.142   7.883 -0.7692  4.2653  0.6785
   14SAPS  C313 1844   7.088  -0.082   8.079 -0.0469 -0.5458 -0.0660
   14SAPS  H13X 1845   6.985  -0.118   8.098  0.6620 -1.7974  1.6630
   14SAPS  H13Y 1846   7.096   0.027   8.063  1.2735 -0.3938  1.3574
   14SAPS  C314 1847   7.178  -0.104   8.206  0.4410  0.4260  0.1205
   14SAPS  H14X 1848   7.278  -0.057   8.204  0.2046  0.9104 -1.0876
   14SAPS  H14Y 1849   7.201  -0.211   8.225  1.3445  0.8649  1.6294
   14SAPS  C315 1850   7.107  -0.036   8.329 -0.0908 -0.2502 -0.3180
   14SAPS  H15X 1851   7.013  -0.082   8.365  0.3889 -0.4562  0.7081
   14SAPS  H15Y 1852   7.084   0.069   8.298 -2.5957 -0.2565  1.2609
   14SAPS  C316 1853   7.195  -0.016   8.457 -0.1297  0.4583  0.0941
   14SAPS  H16X 1854   7.245   0.083   8.457 -0.1021  0.4492  1.1971
   14SAPS  H16Y 1855   7.275  -0.093   8.456  1.6184  2.1717 -2.1525
   14SAPS  C317 1856   7.099  -0.017   8.579 -0.1854 -0.0360 -0.2112
   14SAPS  H17X 1857   7.050  -0.116   8.592 -0.4662  0.0977 -0.2405
   14SAPS  H17Y 1858   7.028   0.068   8.562  1.7975  2.1308  1.6849
   14SAPS  C318 1859   7.183   0.011   8.705  0.1572  0.5218 -0.5412
   14SAPS  H18X 1860   7.261  -0.067   8.712  0.3226  0.6852 -0.5370
   14SAPS  H18Y 1861   7.111   0.010   8.790  0.8746  1.5707  0.1094
   14SAPS  H18Z 1862   7.219   0.116   8.714 -1.0697  0.7932  2.9342
   15SAPS     N 1863   1.003   0.249   5.478 -0.1968 -0.5033  0.0773
   15SAPS   HN1 1864   1.069   0.252   5.398  0.7027 -1.3278  0.7551
   15SAPS   HN2 1865   1.064   0.244   5.563 -0.2020 -0.7902  0.0637
   15SAPS   HN3 1866   0.953   0.159   5.466 -1.2264 -0.2233  1.8738
   15SAPS   C12 1867   0.924   0.375   5.477  0.2024  0.8502  0.3278
   15SAPS  H12A 1868   0.991   0.449   5.435  2.7238  0.2370  2.9671
   15SAPS   C13 1869   0.790   0.361   5.395  0.7601  1.1335  0.2339
   15SAPS  O13A 1870   0.752   0.243   5.359  0.3738 -0.3573 -0.7340
   15SAPS  O13B 1871   0.710   0.456   5.390 -0.4648  0.4934  0.1431
   15SAPS   C11 1872   0.887   0.424   5.618 -0.7291 -0.5646  0.3809
   15SAPS  H11A 1873   0.849   0.529   5.614  0.4448 -0.0623  1.7447
   15SAPS  H11B 1874   0.981   0.435   5.675  1.2739 -2.8178 -2.1909
   15SAPS     P 1875   0.692   0.377   5.794 -0.4165 -0.0783  0.1103
   15SAPS   O13 1876   0.758   0.477   5.881  0.5480 -0.9354  0.1237
   15SAPS   O14 1877   0.566   0.420   5.732  0.1402 -0.3089  0.0161
   15SAPS   O12 1878   0.787   0.338   5.674  0.5685 -0.7325  0.0335
   15SAPS   O11 1879   0.681   0.239   5.856  0.4095 -0.5819 -0.7037
   15SAPS    C1 1880   0.802   0.168   5.895 -0.5045 -0.2333  0.1410
   15SAPS    HA 1881   0.815   0.072   5.841  0.2944  1.0787 -2.1503
   15SAPS    HB 1882   0.889   0.233   5.868 -1.6122  0.7650 -1.1879
   15SAPS    C2 1883   0.798   0.143   6.049  0.2459  0.0920 -0.0766
   15SAPS    HS 1884   0.882   0.083   6.091 -0.6010 -1.3890 -0.4221
   15SAPS   O21 1885   0.671   0.074   6.081 -0.0848  0.2922 -0.7528
   15SAPS   C21 1886   0.675  -0.008   6.182  0.6095  0.7266  0.1726
   15SAPS   O22 1887   0.768  -0.045   6.252 -1.0436  0.5164  0.4400
   15SAPS   C22 1888   0.527  -0.059   6.211 -0.1745  0.6039 -0.3955
   15SAPS   H2R 1889   0.462   0.026   6.242  2.2829  1.8470  1.7304
   15SAPS   H2S 1890   0.488  -0.099   6.115  1.0882  0.5522 -0.8968
   15SAPS    C3 1891   0.813   0.271   6.131 -0.7474 -0.2811 -0.7203
   15SAPS    HX 1892   0.718   0.327   6.113 -1.4402 -0.9460  0.7026
   15SAPS    HY 1893   0.897   0.333   6.093 -1.3870  3.6548  3.2983
   15SAPS   O31 1894   0.828   0.251   6.278 -0.7901 -1.0466 -0.3951
   15SAPS   C31 1895   0.819   0.365   6.341  0.5060 -0.7515  0.0512
   15SAPS   O32 1896   0.795   0.474   6.288  0.2018 -0.3647 -0.2178
   15SAPS   C32 1897   0.843   0.348   6.495 -0.3339  0.2086  0.9731
   15SAPS   H2X 1898   0.929   0.279   6.502 -0.6068 -0.3538 -0.8285
   15SAPS   H2Y 1899   0.750   0.312   6.544 -0.1198  1.1157  2.0885
   15SAPS   C23 1900   0.534  -0.190   6.301  0.0268 -0.0330  0.6236
   15SAPS   H3R 1901   0.576  -0.165   6.401 -0.1667  3.9784 -0.1303
   15SAPS   H3S 1902   0.603  -0.266   6.257 -0.9139 -0.9833  0.7565
   15SAPS   C24 1903   0.399  -0.261   6.322  0.0968 -0.4095  0.2808
   15SAPS   H4R 1904   0.415  -0.358   6.374 -4.7085 -0.5289  1.9780
   15SAPS   H4S 1905   0.354  -0.289   6.225 -0.8883  0.2585  0.5356
   15SAPS   C25 1906   0.289  -0.191   6.394 -0.0319  0.3164  0.0730
   15SAPS   H5R 1907   0.216  -0.150   6.323  1.0471 -1.8865 -2.4751
   15SAPS   C26 1908   0.279  -0.195   6.530  0.2951 -0.3380  0.5728
   15SAPS   H6R 1909   0.182  -0.152   6.562  0.1331 -0.7267  0.6103
   15SAPS   C27 1910   0.371  -0.241   6.638  0.7048 -0.6447 -0.2239
   15SAPS   H7R 1911   0.408  -0.148   6.686 -0.2253 -0.1129 -0.5196
   15SAPS   H7S 1912   0.459  -0.285   6.587  0.5304 -0.1385 -0.9681
   15SAPS   C28 1913   0.317  -0.342   6.736 -0.5815 -0.0374 -0.2139
   15SAPS   H8R 1914   0.307  -0.443   6.695  2.4169 -0.5456  0.0858
   15SAPS   C29 1915   0.298  -0.322   6.865  0.2655 -0.0476  0.2470
   15SAPS   H9R 1916   0.238  -0.403   6.910 -1.5312  0.9097 -0.3566
   15SAPS  C210 1917   0.311  -0.198   6.943 -0.0117 -0.9260 -0.2016
   15SAPS  H10R 1918   0.377  -0.120   6.898 -2.4265  2.4272  1.5873
   15SAPS  H10S 1919   0.355  -0.228   7.040 -0.3708 -2.1487 -0.4092
   15SAPS  C211 1920   0.180  -0.120   6.968 -0.6720 -0.1731 -0.1767
   15SAPS  H11R 1921   0.134  -0.075   6.879 -1.2640  0.0496  0.2348
   15SAPS  C212 1922   0.123  -0.085   7.083 -0.4231 -0.3446  0.0325
   15SAPS  H12R 1923   0.025  -0.036   7.075 -0.3055 -0.0406  0.4454
   15SAPS  C213 1924   0.175  -0.126   7.223 -0.3535 -0.4181  0.2636
   15SAPS  H13R 1925   0.254  -0.055   7.254 -0.5406 -0.5800  1.1229
   15SAPS  H13S 1926   0.217  -0.229   7.227 -1.2815 -0.8650 -0.8675
   15SAPS  C214 1927   0.083  -0.127   7.342  0.0233 -0.3490  0.8013
   15SAPS  H14R 1928   0.086  -0.219   7.402 -0.3631  0.2073  1.6993
   15SAPS  C215 1929  -0.001  -0.026   7.376  0.4652 -0.3930 -0.3375
   15SAPS  H15R 1930  -0.075  -0.054   7.453 -0.8090 -0.3915 -1.5084
   15SAPS  C216 1931  -0.026   0.115   7.321 -0.2571  0.2632  0.5176
   15SAPS  H16R 1932  -0.126   0.125   7.275  0.4208  3.8001 -0.5037
   15SAPS  H16S 1933   0.052   0.138   7.245  0.2118 -1.6926  0.3527
   15SAPS  C217 1934  -0.023   0.212   7.441 -0.3348 -0.5754  0.2683
   15SAPS  H17R 1935   0.061   0.187   7.508  0.4678  1.6339  0.1527
   15SAPS  H17S 1936  -0.119   0.203   7.497 -1.2103  1.6602 -0.7536
   15SAPS  C218 1937  -0.023   0.367   7.412  0.1266 -0.2292 -0.4972
   15SAPS  H18R 1938  -0.078   0.390   7.318  0.0531  2.3526  0.1095
   15SAPS  H18S 1939   0.080   0.400   7.392  0.6878 -1.0298  0.9108
   15SAPS  C219 1940  -0.066   0.458   7.526 -0.6237 -0.1904  0.0400
   15SAPS  H19R 1941  -0.174   0.434   7.532 -0.4321 -0.8712  1.1835
   15SAPS  H19S 1942  -0.056   0.565   7.502  0.5413 -0.0130  1.1569
   15SAPS  C220 1943  -0.004   0.434   7.668  0.2076 -0.0079  0.7129
   15SAPS  H20R 1944  -0.055   0.358   7.730 -1.1480 -0.1671 -0.5443
   15SAPS  H20S 1945  -0.011   0.526   7.729 -1.7643 -0.7347  1.6356
   15SAPS  H20T 1946   0.103   0.405   7.659 -0.4895 -2.2685 -1.4587
   15SAPS   C33 1947   0.886   0.483   6.560  0.1007  0.9964  0.4460
   15SAPS   H3X 1948   0.812   0.561   6.532 -0.6671  0.0060 -0.3511
   15SAPS   H3Y 1949   0.987   0.512   6.524  0.2508  2.0615  1.6439
   15SAPS   C34 1950   0.892   0.473   6.714  0.1879 -0.3165 -0.6446
   15SAPS   H4X 1951   0.807   0.419   6.760  0.0876  1.6593  1.6722
   15SAPS   H4Y 1952   0.887   0.577   6.751 -0.6637  0.0365 -1.7026
   15SAPS   C35 1953   1.017   0.413   6.778 -0.0569 -0.1027 -0.9142
   15SAPS   H5X 1954   1.100   0.473   6.734  0.0776  0.5853  0.2232
   15SAPS   H5Y 1955   1.020   0.303   6.767 -2.0927 -0.2572 -0.3386
   15SAPS   C36 1956   1.021   0.450   6.928  0.3405 -0.9927  0.2906
   15SAPS   H6X 1957   1.002   0.557   6.951 -1.7304 -1.4235  0.8238
   15SAPS   H6Y 1958   1.115   0.411   6.974  1.7093  2.1509  0.4046
   15SAPS   C37 1959   0.910   0.385   7.007  0.6309 -0.0096 -0.0757
   15SAPS   H7X 1960   0.891   0.285   6.962  0.3860  0.0643 -0.1359
   15SAPS   H7Y 1961   0.816   0.440   6.987  0.0749 -1.0113 -0.2825
   15SAPS   C38 1962   0.923   0.383   7.157 -0.6730  0.4090 -0.2415
   15SAPS   H8X 1963   1.002   0.309   7.184 -1.4700 -0.0581  0.8702
   15SAPS   H8Y 1964   0.837   0.341   7.213  1.0141 -2.0468  0.6851
   15SAPS   C39 1965   0.967   0.510   7.221 -0.3502 -0.8814 -0.3168
   15SAPS   H9X 1966   0.902   0.592   7.184  0.0095  0.2371  1.3918
   15SAPS   H9Y 1967   1.068   0.539   7.184 -0.9537  1.7959 -0.0783
   15SAPS  C310 1968   0.956   0.524   7.376 -0.5281 -0.5421  0.1238
   15SAPS  H10X 1969   0.848   0.532   7.402 -0.7669 -1.3627 -0.5747
   15SAPS  H10Y 1970   1.009   0.615   7.411 -0.5478 -1.0685  1.5947
   15SAPS  C311 1971   1.026   0.404   7.442 -0.0240 -0.9419 -0.6653
   15SAPS  H11X 1972   1.127   0.395   7.398  0.4931  1.8097 -0.1996
   15SAPS  H11Y 1973   0.971   0.310   7.419 -1.4618  0.1202 -1.7880
   15SAPS  C312 1974   1.026   0.422   7.596  0.2362  0.0682 -0.3465
   15SAPS  H12X 1975   1.070   0.517   7.632 -0.6529 -0.5738  2.7278
   15SAPS  H12Y 1976   1.079   0.333   7.638  0.1305 -0.0861 -0.5370
   15SAPS  C313 1977   0.881   0.411   7.659  0.5001 -0.3956  0.8822
   15SAPS  H13X 1978   0.831   0.333   7.598  2.1121  0.7005 -2.0489
   15SAPS  H13Y 1979   0.818   0.501   7.649 -0.1866 -1.1066 -1.8400
   15SAPS  C314 1980   0.880   0.377   7.811 -0.0062 -0.4297  0.6223
   15SAPS  H14X 1981   0.913   0.467   7.869 -2.6773  1.7245 -0.9714
   15SAPS  H14Y 1982   0.955   0.296   7.824 -1.8110 -1.9846  1.8467
   15SAPS  C315 1983   0.738   0.334   7.847 -0.6378 -0.4103  1.1079
   15SAPS  H15X 1984   0.689   0.276   7.767  1.1470 -1.1296  0.5010
   15SAPS  H15Y 1985   0.683   0.430   7.859  0.5472  0.1857  2.0559
   15SAPS  C316 1986   0.750   0.259   7.982  0.0592  0.1522  0.5152
   15SAPS  H16X 1987   0.826   0.302   8.052 -0.8503 -0.1387  1.7219
   15SAPS  H16Y 1988   0.773   0.153   7.961  0.9088  0.7488 -1.8673
   15SAPS  C317 1989   0.625   0.265   8.073  0.3171  0.0642 -0.1970
   15SAPS  H17X 1990   0.574   0.166   8.068  1.2835 -0.5073  0.7490
   15SAPS  H17Y 1991   0.556   0.340   8.028  0.3725  1.1170  1.3802
   15SAPS  C318 1992   0.649   0.286   8.218  0.2415 -0.2650  0.4071
   15SAPS  H18X 1993   0.563   0.287   8.288 -0.0943  0.4898 -0.0034
   15SAPS  H18Y 1994   0.690   0.387   8.239  0.8769 -0.6751  1.1686
   15SAPS  H18Z 1995   0.723   0.215   8.259 -0.2484 -1.0569 -0.0679
   16SAPS     N 1996   3.330   1.772   6.103 -0.5362  0.4473 -0.2427
   16SAPS   HN1 1997   3.285   1.678   6.092  0.1691  0.0331  0.3075
   16SAPS   HN2 1998   3.308   1.817   6.012  2.3670 -0.4683 -1.5167
   16SAPS   HN3 1999   3.434   1.767   6.109 -0.4570  0.8761 -1.1009
   16SAPS   C12 2000   3.264   1.847   6.220  0.3867 -0.1902  0.7728
   16SAPS  H12A 2001   3.274   1.779   6.303  3.2957 -1.2734 -0.3286
   16SAPS   C13 2002   3.337   1.980   6.263 -0.3266  0.1500  0.5968
   16SAPS  O13A 2003   3.425   2.032   6.191 -0.0258 -0.3179 -0.0051
   16SAPS  O13B 2004   3.310   2.016   6.376  0.3555 -0.0906  0.2339
   16SAPS   C11 2005   3.114   1.874   6.192 -0.0727  0.1098  0.1859
   16SAPS  H11A 2006   3.064   1.907   6.285  1.8373  1.6932  0.7027
   16SAPS  H11B 2007   3.056   1.782   6.165 -1.5736  0.4954  1.8729
   16SAPS     P 2008   2.945   2.024   6.066 -0.1153 -0.2509  0.0772
   16SAPS   O13 2009   2.952   2.135   5.966 -0.3082 -0.2924  0.0115
   16SAPS   O14 2010   2.864   1.905   6.032  0.0761 -0.7988 -0.2472
   16SAPS   O12 2011   3.094   1.971   6.091  0.4247 -0.1165  0.1130
   16SAPS   O11 2012   2.900   2.089   6.206 -0.5228 -0.2768 -0.0398
   16SAPS    C1 2013   2.949   2.223   6.245  0.3028  0.4545 -0.8875
   16SAPS    HA 2014   3.033   2.210   6.316  0.4181 -2.4015 -1.4318
   16SAPS    HB 2015   2.968   2.295   6.162 -1.0033  2.8007  0.7285
   16SAPS    C2 2016   2.842   2.305   6.327  0.3783 -0.6405 -0.5235
   16SAPS    HS 2017   2.886   2.403   6.354  2.6721 -2.0250  1.1788
   16SAPS   O21 2018   2.800   2.238   6.445  0.6641  0.3275 -0.4609
   16SAPS   C21 2019   2.877   2.268   6.549  0.6745  0.0221  0.1639
   16SAPS   O22 2020   2.982   2.336   6.540 -0.3687 -0.4289  0.2012
   16SAPS   C22 2021   2.826   2.197   6.678 -0.3125 -0.0006 -0.3876
   16SAPS   H2R 2022   2.783   2.101   6.642  0.4276  0.2559 -2.0267
   16SAPS   H2S 2023   2.921   2.166   6.726 -0.4092 -0.0934 -0.2563
   16SAPS    C3 2024   2.721   2.331   6.231 -0.0315  0.7663 -0.5478
   16SAPS    HX 2025   2.706   2.232   6.184  0.4311  0.7991 -0.7686
   16SAPS    HY 2026   2.760   2.408   6.161  0.2153  1.3674  0.2320
   16SAPS   O31 2027   2.605   2.365   6.299  0.2219 -0.1754 -0.1001
   16SAPS   C31 2028   2.589   2.494   6.342 -1.2707  0.1743 -0.3445
   16SAPS   O32 2029   2.670   2.584   6.327 -0.5969  0.0064  0.3045
   16SAPS   C32 2030   2.457   2.509   6.412  0.6597  0.1620  0.0275
   16SAPS   H2X 2031   2.436   2.423   6.479 -0.6352  2.6007  2.9911
   16SAPS   H2Y 2032   2.375   2.513   6.336 -1.0902 -1.9295  1.6641
   16SAPS   C23 2033   2.726   2.280   6.757  0.4760 -0.4715 -0.2973
   16SAPS   H3R 2034   2.622   2.292   6.721 -0.4429 -1.0168  1.9820
   16SAPS   H3S 2035   2.768   2.382   6.750  1.6190 -0.9641 -0.8030
   16SAPS   C24 2036   2.717   2.246   6.913  0.0726  0.6711  0.3228
   16SAPS   H4R 2037   2.817   2.215   6.951  0.6113 -2.4162 -3.0268
   16SAPS   H4S 2038   2.667   2.147   6.922  0.3271  0.6060  1.0628
   16SAPS   C25 2039   2.654   2.354   6.996 -0.0389 -0.8121 -0.6705
   16SAPS   H5R 2040   2.561   2.396   6.955  1.0034 -0.3537 -2.6778
   16SAPS   C26 2041   2.708   2.399   7.116 -0.5807  0.0025  0.6020
   16SAPS   H6R 2042   2.668   2.491   7.162  0.4913 -0.1100  1.8245
   16SAPS   C27 2043   2.835   2.354   7.183  0.6370 -0.1727 -0.4766
   16SAPS   H7R 2044   2.904   2.301   7.114  0.2127 -0.8576 -0.3852
   16SAPS   H7S 2045   2.802   2.277   7.257 -0.9985 -1.4217 -2.3998
   16SAPS   C28 2046   2.921   2.472   7.240 -0.5338 -0.0161 -0.1453
   16SAPS   H8R 2047   2.980   2.521   7.162  1.5897 -0.8498  0.8447
   16SAPS   C29 2048   2.919   2.506   7.371  1.4269 -0.1296 -0.6065
   16SAPS   H9R 2049   2.982   2.578   7.425 -0.5449  0.2428  1.3312
   16SAPS  C210 2050   2.824   2.446   7.469  0.4643  0.7810 -0.6270
   16SAPS  H10R 2051   2.872   2.358   7.518 -0.3692 -0.1556 -1.4582
   16SAPS  H10S 2052   2.730   2.413   7.420 -1.3756  1.8982  1.9096
   16SAPS  C211 2053   2.786   2.549   7.575 -0.2214  0.3742  0.1598
   16SAPS  H11R 2054   2.694   2.603   7.553 -1.8416 -2.4301 -0.5047
   16SAPS  C212 2055   2.848   2.566   7.692 -0.5378 -0.8018  0.0687
   16SAPS  H12R 2056   2.809   2.642   7.762  0.4024 -0.6643  0.4547
   16SAPS  C213 2057   2.968   2.505   7.751 -0.5149  0.4975  0.2004
   16SAPS  H13R 2058   2.979   2.406   7.703 -0.5930  0.5056  0.1648
   16SAPS  H13S 2059   2.947   2.484   7.858  0.7854 -1.0618  0.1936
   16SAPS  C214 2060   3.098   2.580   7.759  0.7886 -1.1225  0.0779
   16SAPS  H14R 2061   3.134   2.613   7.660 -0.6062 -0.6800 -0.3031
   16SAPS  C215 2062   3.176   2.604   7.869 -0.2583  0.4251 -0.6866
   16SAPS  H15R 2063   3.271   2.659   7.866 -0.9967  1.7134 -2.1964
   16SAPS  C216 2064   3.131   2.578   8.009  0.4041 -0.2414 -0.7209
   16SAPS  H16R 2065   3.024   2.604   8.020  0.0454 -1.4394 -1.1693
   16SAPS  H16S 2066   3.174   2.643   8.088 -1.3605  0.6948 -0.4863
   16SAPS  C217 2067   3.141   2.435   8.047 -0.0476 -0.1607 -0.0738
   16SAPS  H17R 2068   3.247   2.404   8.057  1.1345  2.0089 -3.9566
   16SAPS  H17S 2069   3.091   2.371   7.971  1.0076 -0.9877 -0.1057
   16SAPS  C218 2070   3.078   2.410   8.179 -0.4020 -0.0414  0.3669
   16SAPS  H18R 2071   2.969   2.395   8.162 -0.6956  0.4211  1.7308
   16SAPS  H18S 2072   3.095   2.489   8.256  0.5769 -2.6881  3.0296
   16SAPS  C219 2073   3.141   2.280   8.222  0.8725 -0.3511 -0.3134
   16SAPS  H19R 2074   3.251   2.294   8.223  0.9845 -1.1537 -1.1302
   16SAPS  H19S 2075   3.113   2.195   8.157  0.4736 -1.1650  0.8864
   16SAPS  C220 2076   3.098   2.243   8.364 -1.1667  0.8511  0.2984
   16SAPS  H20R 2077   3.163   2.159   8.396  0.0646  1.5261 -0.3819
   16SAPS  H20S 2078   2.990   2.214   8.365 -1.4928  1.7918  3.0772
   16SAPS  H20T 2079   3.097   2.330   8.433  0.1642  1.3582 -0.3031
   16SAPS   C33 2080   2.454   2.635   6.505  0.3076 -0.2353 -0.0699
   16SAPS   H3X 2081   2.353   2.679   6.520  0.8120  1.2790 -0.9643
   16SAPS   H3Y 2082   2.512   2.717   6.458  2.6889 -2.4550 -1.2865
   16SAPS   C34 2083   2.507   2.615   6.650 -0.7447  0.2021  0.4578
   16SAPS   H4X 2084   2.605   2.567   6.628 -1.0878  0.4437 -1.8343
   16SAPS   H4Y 2085   2.445   2.555   6.720 -0.9889 -0.0279  0.0399
   16SAPS   C35 2086   2.524   2.743   6.731 -0.1091 -0.8520 -0.4689
   16SAPS   H5X 2087   2.430   2.801   6.723  0.1800 -0.3766 -0.4688
   16SAPS   H5Y 2088   2.605   2.799   6.680 -0.5027  0.8043  0.6542
   16SAPS   C36 2089   2.558   2.718   6.881 -0.4575 -0.6345 -0.4074
   16SAPS   H6X 2090   2.629   2.632   6.881  2.0364  1.1222 -4.3391
   16SAPS   H6Y 2091   2.462   2.684   6.924 -0.4248 -1.5920 -1.0521
   16SAPS   C37 2092   2.599   2.843   6.961  0.0567  0.1914 -0.8995
   16SAPS   H7X 2093   2.527   2.923   6.934 -1.2176 -1.2612 -1.9647
   16SAPS   H7Y 2094   2.704   2.876   6.944  0.0553  0.6391 -0.0684
   16SAPS   C38 2095   2.586   2.812   7.113 -0.2073 -0.0302 -0.0056
   16SAPS   H8X 2096   2.651   2.722   7.127 -1.4500 -1.0704 -0.7392
   16SAPS   H8Y 2097   2.484   2.780   7.142  0.1729 -0.5580  0.8020
   16SAPS   C39 2098   2.648   2.918   7.209 -0.6544  0.2320 -0.0227
   16SAPS   H9X 2099   2.611   3.019   7.186 -1.0260  0.3138  0.8832
   16SAPS   H9Y 2100   2.758   2.903   7.204 -0.7665 -0.5213 -0.4013
   16SAPS  C310 2101   2.600   2.885   7.357  0.1852  0.1829  0.2922
   16SAPS  H10X 2102   2.631   2.785   7.392  0.5797  0.4300  0.6652
   16SAPS  H10Y 2103   2.489   2.884   7.351  0.0386  1.6045  1.9424
   16SAPS  C311 2104   2.617   2.993   7.467  0.0600 -0.3714  0.1566
   16SAPS  H11X 2105   2.554   3.080   7.438 -0.0518 -0.2068  0.8704
   16SAPS  H11Y 2106   2.722   3.031   7.464  0.4793 -1.4622  0.4776
   16SAPS  C312 2107   2.593   2.935   7.605  0.1148  0.2135  0.0720
   16SAPS  H12X 2108   2.667   2.853   7.619 -0.7711 -0.9240 -1.6278
   16SAPS  H12Y 2109   2.490   2.892   7.605 -0.3912  1.2913  1.7154
   16SAPS  C313 2110   2.587   3.038   7.717  0.0949 -0.4555 -0.3882
   16SAPS  H13X 2111   2.510   3.113   7.688 -1.2038 -1.4267  0.4439
   16SAPS  H13Y 2112   2.688   3.084   7.723 -0.5261  1.2721 -2.1464
   16SAPS  C314 2113   2.539   2.980   7.852 -0.1618  0.2136  0.1742
   16SAPS  H14X 2114   2.444   2.926   7.833  1.1291 -1.4356 -2.1228
   16SAPS  H14Y 2115   2.506   3.059   7.923  0.2921  0.6133 -0.0495
   16SAPS  C315 2116   2.629   2.881   7.927 -0.5960  0.6507 -0.3009
   16SAPS  H15X 2117   2.731   2.920   7.947  1.3297 -3.5548 -0.8281
   16SAPS  H15Y 2118   2.657   2.797   7.860  2.1489 -0.0494  1.5779
   16SAPS  C316 2119   2.570   2.835   8.061 -1.1698  0.1173 -0.9271
   16SAPS  H16X 2120   2.462   2.859   8.068 -0.9126  0.8148  1.1012
   16SAPS  H16Y 2121   2.616   2.900   8.138 -1.6629 -0.5294 -0.0763
   16SAPS  C317 2122   2.600   2.688   8.115  0.4701  0.7341 -0.0050
   16SAPS  H17X 2123   2.542   2.621   8.048 -0.5826  0.5056  1.1082
   16SAPS  H17Y 2124   2.549   2.698   8.213 -1.9414  1.9917 -1.3008
   16SAPS  C318 2125   2.751   2.656   8.134 -0.1977 -0.0451 -0.1154
   16SAPS  H18X 2126   2.780   2.564   8.189  0.8023  0.9682  1.1354
   16SAPS  H18Y 2127   2.800   2.734   8.196  2.1203 -0.4543 -1.3311
   16SAPS  H18Z 2128   2.809   2.663   8.039  0.1043 -0.5812  0.0267
   17SAPC     N 2129   4.158   2.375  10.696 -0.6828  0.1905  0.3214
   17SAPC   C12 2130   4.227   2.410  10.562 -0.6708  0.5019 -0.1804
   17SAPC  H12A 2131   4.176   2.358  10.482 -0.7116 -0.8612  0.6954
   17SAPC  H12B 2132   4.327   2.369  10.552  0.2506  2.3829  0.8648
   17SAPC   C13 2133   4.161   2.225  10.698  0.4848  0.2125 -0.2384
   17SAPC  H13A 2134   4.262   2.201  10.669  0.7055 -0.2700  0.8922
   17SAPC  H13B 2135   4.152   2.208  10.804 -0.0895  0.6842 -0.2069
   17SAPC  H13C 2136   4.089   2.183  10.629 -1.6671  3.2617 -0.0311
   17SAPC   C14 2137   4.226   2.433  10.814  0.4324  0.2442 -0.2245
   17SAPC  H14A 2138   4.331   2.405  10.819  0.5089  0.5169 -0.2909
   17SAPC  H14B 2139   4.234   2.540  10.801  1.8304  0.5254  2.2972
   17SAPC  H14C 2140   4.177   2.417  10.908 -1.0836  0.8460 -0.8857
   17SAPC   C15 2141   4.020   2.430  10.701  0.1171  0.5954 -0.7049
   17SAPC  H15A 2142   3.970   2.389  10.787 -0.6657  1.7371 -0.5982
   17SAPC  H15B 2143   4.018   2.537  10.709  1.9218  0.7187 -1.4624
   17SAPC  H15C 2144   3.967   2.407  10.610 -1.1052 -0.5169  0.2523
   17SAPC   C11 2145   4.231   2.557  10.522  0.8179 -0.9009  0.0052
   17SAPC  H11A 2146   4.130   2.602  10.529  1.1286  0.0409 -1.1827
   17SAPC  H11B 2147   4.270   2.565  10.418  0.4198  1.2297 -0.0247
   17SAPC     P 2148   4.476   2.641  10.559  0.1123 -0.3077  0.3386
   17SAPC   O13 2149   4.549   2.741  10.646 -0.2466  0.1449 -0.1486
   17SAPC   O14 2150   4.536   2.512  10.526  0.2755  0.3355 -0.1016
   17SAPC   O12 2151   4.319   2.631  10.609  0.0082  0.3089  0.3046
   17SAPC   O11 2152   4.465   2.709  10.420  0.4467  0.0470  0.0310
   17SAPC    C1 2153   4.586   2.749  10.352  0.4113 -0.4308 -0.1391
   17SAPC    HA 2154   4.683   2.719  10.397 -1.0130 -1.9162  2.1688
   17SAPC    HB 2155   4.574   2.722  10.245 -1.1650  0.1573 -0.1291
   17SAPC    C2 2156   4.601   2.903  10.340  0.1565 -0.3545  0.4454
   17SAPC    HS 2157   4.615   2.944  10.442 -1.6341 -1.5682  1.2359
   17SAPC   O21 2158   4.477   2.958  10.277  0.0576  0.4707 -0.0538
   17SAPC   C21 2159   4.444   3.079  10.321  0.1549  0.3168  0.6387
   17SAPC   O22 2160   4.493   3.141  10.411 -0.1183 -0.2419  0.3168
   17SAPC   C22 2161   4.329   3.124  10.230 -0.3432  0.4438  0.0896
   17SAPC   H2R 2162   4.310   3.042  10.157  0.8898 -1.5064  1.8346
   17SAPC   H2S 2163   4.234   3.136  10.284 -1.0945 -0.9898 -0.8484
   17SAPC    C3 2164   4.727   2.947  10.270  0.3314 -0.4384  0.6412
   17SAPC    HX 2165   4.811   2.898  10.323  0.2513 -1.0455  0.2171
   17SAPC    HY 2166   4.728   3.058  10.281  0.7774 -0.2770 -0.8746
   17SAPC   O31 2167   4.718   2.915  10.130 -0.2580  0.0297  0.0074
   17SAPC   C31 2168   4.808   2.838  10.069 -0.4201  0.7598 -0.3682
   17SAPC   O32 2169   4.911   2.798  10.121 -0.7368 -0.1179 -0.3737
   17SAPC   C32 2170   4.748   2.795   9.939 -1.0961  0.1183  0.1811
   17SAPC   H2X 2171   4.714   2.890   9.893  0.2273  0.4632 -0.1202
   17SAPC   H2Y 2172   4.653   2.743   9.960 -0.6812 -1.0730 -0.8174
   17SAPC   C23 2173   4.370   3.246  10.154  0.4993 -0.3566  1.4831
   17SAPC   H3R 2174   4.417   3.321  10.222  1.2259 -0.7377  1.4208
   17SAPC   H3S 2175   4.284   3.299  10.109  0.9525 -1.3310 -0.6194
   17SAPC   C24 2176   4.483   3.227  10.055 -0.2197  0.0066  0.1060
   17SAPC   H4R 2177   4.574   3.203  10.114  0.7691  3.1373  0.0427
   17SAPC   H4S 2178   4.514   3.329  10.024  2.6236 -1.0123 -0.7304
   17SAPC   C25 2179   4.479   3.131   9.940  0.0905 -0.6467 -0.5967
   17SAPC   H5R 2180   4.484   3.024   9.966 -1.2068 -0.6697 -0.3424
   17SAPC   C26 2181   4.496   3.174   9.813 -0.6370 -0.0635 -0.6312
   17SAPC   H6R 2182   4.501   3.098   9.735 -1.0129  0.0508 -0.7690
   17SAPC   C27 2183   4.518   3.312   9.774 -0.9695 -0.0972  0.2370
   17SAPC   H7R 2184   4.441   3.384   9.810 -0.8092  0.7896 -1.1161
   17SAPC   H7S 2185   4.500   3.315   9.665 -0.2710 -1.6036  0.0499
   17SAPC   C28 2186   4.656   3.359   9.782  0.5039  0.0601  0.2591
   17SAPC   H8R 2187   4.675   3.429   9.865  0.2383  1.4253 -0.7846
   17SAPC   C29 2188   4.761   3.333   9.700 -0.2867  0.0352 -0.4467
   17SAPC   H9R 2189   4.853   3.390   9.722 -1.7960  2.1465  0.8139
   17SAPC  C210 2190   4.767   3.238   9.581 -0.4591  0.4526 -0.4142
   17SAPC  H10R 2191   4.675   3.182   9.555 -0.1102  0.7062 -2.4237
   17SAPC  H10S 2192   4.830   3.155   9.619 -0.1456  1.4068  1.2429
   17SAPC  C211 2193   4.836   3.293   9.456  1.0956  0.0823 -0.4295
   17SAPC  H11R 2194   4.908   3.373   9.476  0.4720  0.4455  0.4492
   17SAPC  C212 2195   4.826   3.242   9.332 -0.0621 -0.1041 -0.0637
   17SAPC  H12R 2196   4.890   3.289   9.255  1.0585 -1.4056  0.0428
   17SAPC  C213 2197   4.729   3.135   9.292 -0.3282  0.3900 -1.2262
   17SAPC  H13R 2198   4.734   3.057   9.371  0.3263 -0.2281 -1.8553
   17SAPC  H13S 2199   4.767   3.078   9.204 -0.1434  0.9533 -1.5138
   17SAPC  C214 2200   4.593   3.194   9.275  0.8365 -0.4558  0.1717
   17SAPC  H14R 2201   4.558   3.263   9.354 -1.3104 -0.9563 -0.2830
   17SAPC  C215 2202   4.531   3.194   9.153 -0.0702  0.4578 -0.5939
   17SAPC  H15R 2203   4.436   3.247   9.136 -0.8481 -0.8906 -0.5837
   17SAPC  C216 2204   4.578   3.123   9.034  0.0363  0.2615  0.3794
   17SAPC  H16R 2205   4.616   3.020   9.047 -0.9007 -0.3947 -1.6356
   17SAPC  H16S 2206   4.672   3.173   9.003  0.1086 -0.7537 -1.1163
   17SAPC  C217 2207   4.459   3.134   8.938  0.1601 -0.4013 -0.0232
   17SAPC  H17R 2208   4.433   3.239   8.916 -0.5070 -0.7647 -1.0716
   17SAPC  H17S 2209   4.375   3.078   8.985 -0.4137  2.5895  2.8768
   17SAPC  C218 2210   4.487   3.069   8.810 -0.9444  0.1523  0.0244
   17SAPC  H18R 2211   4.473   2.960   8.828 -1.5542  0.7268  3.6876
   17SAPC  H18S 2212   4.591   3.087   8.775 -0.2083  0.2527  2.1769
   17SAPC  C219 2213   4.386   3.108   8.703  0.3836  0.4985 -0.5556
   17SAPC  H19R 2214   4.393   3.219   8.707  2.4308  0.4073  1.8831
   17SAPC  H19S 2215   4.282   3.079   8.728  0.1097  1.0925 -0.9846
   17SAPC  C220 2216   4.414   3.054   8.562  0.1763  0.0485 -0.1540
   17SAPC  H20R 2217   4.400   2.944   8.567  2.4236 -0.2113  1.9171
   17SAPC  H20S 2218   4.519   3.072   8.530 -0.2804  1.0322 -1.1906
   17SAPC  H20T 2219   4.350   3.095   8.480 -0.1980  5.1244  2.2850
   17SAPC   C33 2220   4.832   2.710   9.841 -0.6938  0.6555 -0.3062
   17SAPC   H3X 2221   4.855   2.611   9.887 -0.6315  1.3140  1.1632
   17SAPC   H3Y 2222   4.935   2.754   9.841 -1.2758  2.1392 -1.9860
   17SAPC   C34 2223   4.769   2.683   9.705  0.2628 -0.1831  0.6090
   17SAPC   H4X 2224   4.677   2.621   9.713  1.4317 -1.9665  0.8469
   17SAPC   H4Y 2225   4.848   2.621   9.656 -0.2129  0.2159 -0.7280
   17SAPC   C35 2226   4.740   2.814   9.626  0.1783 -0.0333  0.6456
   17SAPC   H5X 2227   4.835   2.852   9.583  0.8240 -1.8261  0.3738
   17SAPC   H5Y 2228   4.704   2.897   9.689 -0.1666  0.3687 -0.0683
   17SAPC   C36 2229   4.667   2.794   9.488  0.3707 -0.7713 -0.1067
   17SAPC   H6X 2230   4.656   2.897   9.449  1.9029 -0.8330 -0.7461
   17SAPC   H6Y 2231   4.571   2.740   9.510 -0.6399  0.2444 -1.8557
   17SAPC   C37 2232   4.733   2.726   9.380  0.2336  0.2171  0.0255
   17SAPC   H7X 2233   4.749   2.617   9.393 -0.4606 -0.1927 -2.2099
   17SAPC   H7Y 2234   4.832   2.774   9.364  0.1570  0.1431 -0.6660
   17SAPC   C38 2235   4.652   2.745   9.245  0.5503 -0.7253  0.2662
   17SAPC   H8X 2236   4.642   2.853   9.222 -3.9773 -1.2317 -0.9937
   17SAPC   H8Y 2237   4.548   2.710   9.262 -0.6819  1.2092 -2.5151
   17SAPC   C39 2238   4.715   2.675   9.128  0.3872  0.1042  0.2005
   17SAPC   H9X 2239   4.705   2.568   9.157  1.1757  0.2704  1.1398
   17SAPC   H9Y 2240   4.819   2.707   9.105  0.8488 -2.2066 -1.2559
   17SAPC  C310 2241   4.630   2.699   9.006 -0.2474 -0.4195  0.6259
   17SAPC  H10X 2242   4.627   2.806   8.976  0.4693 -0.6912 -0.4643
   17SAPC  H10Y 2243   4.526   2.663   9.023 -1.1403  2.6354  2.5605
   17SAPC  C311 2244   4.704   2.643   8.884  0.3785  0.5469 -0.2235
   17SAPC  H11X 2245   4.738   2.538   8.901 -0.6174  0.3618  0.7311
   17SAPC  H11Y 2246   4.794   2.707   8.876  0.1258  1.1062  1.2492
   17SAPC  C312 2247   4.614   2.661   8.760 -0.1563 -0.0344  0.3034
   17SAPC  H12X 2248   4.594   2.770   8.750  0.8620  0.0881 -0.5996
   17SAPC  H12Y 2249   4.514   2.614   8.767 -0.4455  0.2921 -1.3760
   17SAPC  C313 2250   4.681   2.611   8.629 -0.5858 -0.1515  0.2560
   17SAPC  H13X 2251   4.707   2.504   8.638  0.1537 -0.1821 -1.8395
   17SAPC  H13Y 2252   4.774   2.666   8.603 -0.3444 -0.7067 -0.0660
   17SAPC  C314 2253   4.581   2.618   8.515 -0.5354 -0.1850 -0.3732
   17SAPC  H14X 2254   4.483   2.582   8.550  0.0305 -0.9515  0.4678
   17SAPC  H14Y 2255   4.617   2.545   8.439  2.2919  1.4346 -0.7409
   17SAPC  C315 2256   4.581   2.761   8.448 -0.4258  0.4597 -0.3465
   17SAPC  H15X 2257   4.688   2.770   8.422 -0.1076 -1.8867 -0.0684
   17SAPC  H15Y 2258   4.563   2.832   8.532  1.8722 -0.2126  0.8076
   17SAPC  C316 2259   4.481   2.778   8.339  0.1247 -0.4323 -0.3795
   17SAPC  H16X 2260   4.378   2.767   8.378  0.7834 -1.5057  1.1894
   17SAPC  H16Y 2261   4.502   2.686   8.280 -0.1779  0.0319 -1.2194
   17SAPC  C317 2262   4.497   2.901   8.255  0.3576  0.2393 -0.1021
   17SAPC  H17X 2263   4.596   2.907   8.205  0.0590 -0.9319 -0.8808
   17SAPC  H17Y 2264   4.478   2.987   8.323 -2.1702 -0.2311 -0.0999
   17SAPC  C318 2265   4.393   2.912   8.132 -0.1511 -0.3286  0.0171
   17SAPC  H18X 2266   4.301   2.971   8.151  0.0502 -0.2481  0.7736
   17SAPC  H18Y 2267   4.458   2.957   8.053  2.7806 -2.5960  0.9727
   17SAPC  H18Z 2268   4.362   2.810   8.102 -0.9512 -0.2330  0.4788
   18SAPC     N 2269   4.943   4.228  10.539 -0.4239 -0.5570 -0.5426
   18SAPC   C12 2270   5.046   4.160  10.460 -0.6712 -0.0758  0.0444
   18SAPC  H12A 2271   5.103   4.091  10.521 -0.9529 -0.4208 -0.0759
   18SAPC  H12B 2272   5.115   4.230  10.415 -1.5919  0.9632  0.2149
   18SAPC   C13 2273   5.019   4.316  10.633 -0.3183  0.1254 -0.6703
   18SAPC  H13A 2274   5.085   4.270  10.705  1.3894  2.8376 -0.3731
   18SAPC  H13B 2275   5.057   4.396  10.572 -0.2451 -0.4588 -1.3946
   18SAPC  H13C 2276   4.950   4.369  10.697  0.2069  0.4143 -0.3361
   18SAPC   C14 2277   4.863   4.327  10.457 -0.1865  0.2898  1.0285
   18SAPC  H14A 2278   4.787   4.271  10.404 -0.0233 -0.0031  1.1026
   18SAPC  H14B 2279   4.819   4.401  10.523 -0.9442  1.2906 -0.5345
   18SAPC  H14C 2280   4.925   4.378  10.384 -1.6295 -2.3785 -2.3311
   18SAPC   C15 2281   4.844   4.137  10.608 -0.9371 -0.4932  0.2753
   18SAPC  H15A 2282   4.768   4.187  10.667 -1.9549  0.6297 -1.8546
   18SAPC  H15B 2283   4.800   4.073  10.533 -1.3963  1.2559 -1.0244
   18SAPC  H15C 2284   4.889   4.071  10.680 -2.1539 -1.6474  0.0160
   18SAPC   C11 2285   4.981   4.080  10.338  0.2013 -0.3245  0.0024
   18SAPC  H11A 2286   5.066   4.046  10.275  0.2124  1.7476 -1.2027
   18SAPC  H11B 2287   4.925   4.149  10.272  0.7295  0.3391  0.2327
   18SAPC     P 2288   4.940   3.841  10.415  0.3970  0.0541  0.2169
   18SAPC   O13 2289   5.054   3.857  10.512  0.1310  0.3837  0.6896
   18SAPC   O14 2290   4.823   3.769  10.476 -0.1985  0.3121 -0.1842
   18SAPC   O12 2291   4.887   3.976  10.373 -0.2160  0.2938 -0.1147
   18SAPC   O11 2292   4.986   3.781  10.272 -0.1783  0.8730  0.0732
   18SAPC    C1 2293   4.892   3.788  10.160 -0.2878 -0.9943 -0.2353
   18SAPC    HA 2294   4.833   3.882  10.163  2.7422  1.0355  0.7152
   18SAPC    HB 2295   4.946   3.803  10.064 -0.0938  1.4522  0.2090
   18SAPC    C2 2296   4.793   3.659  10.152 -0.4592 -0.7910 -0.6446
   18SAPC    HS 2297   4.773   3.616  10.253  0.5077  0.3922  0.0700
   18SAPC   O21 2298   4.854   3.565  10.072  0.4873 -0.5025  0.6037
   18SAPC   C21 2299   4.944   3.486  10.132  0.3924 -0.5343 -0.0137
   18SAPC   O22 2300   4.956   3.479  10.253  0.3169  0.0400 -0.3134
   18SAPC   C22 2301   5.026   3.412  10.021 -0.2892 -1.0439 -0.7839
   18SAPC   H2R 2302   4.956   3.409   9.935 -0.2590 -0.4301 -0.8365
   18SAPC   H2S 2303   5.117   3.466   9.987  0.0656 -0.1103  1.4707
   18SAPC    C3 2304   4.648   3.702  10.090 -0.3568  0.0827 -0.3662
   18SAPC    HX 2305   4.584   3.766  10.155 -1.3751 -0.3877 -0.8745
   18SAPC    HY 2306   4.597   3.603  10.097  1.3049 -0.8725 -1.3077
   18SAPC   O31 2307   4.661   3.741   9.952 -0.2352  0.0776 -0.0849
   18SAPC   C31 2308   4.559   3.818   9.904 -0.4481 -0.0330 -0.6664
   18SAPC   O32 2309   4.468   3.858   9.968 -0.2247 -0.1783  0.0547
   18SAPC   C32 2310   4.584   3.857   9.763  0.4429 -0.0414  0.4105
   18SAPC   H2X 2311   4.648   3.948   9.764 -0.0419  0.3620 -1.6105
   18SAPC   H2Y 2312   4.478   3.876   9.735  0.9827  2.7280 -0.0174
   18SAPC   C23 2313   5.072   3.273  10.057 -0.0482 -0.3084  0.0741
   18SAPC   H3R 2314   5.007   3.244  10.142 -2.3726 -1.9683 -2.1266
   18SAPC   H3S 2315   5.178   3.278  10.090 -0.5119  1.1935  1.5100
   18SAPC   C24 2316   5.045   3.176   9.941 -0.6212  0.8877  0.1857
   18SAPC   H4R 2317   5.083   3.214   9.844  0.7869  0.1712  0.4311
   18SAPC   H4S 2318   4.934   3.172   9.935 -0.5626  0.5105 -0.7400
   18SAPC   C25 2319   5.091   3.037   9.975  0.8242  0.3294  0.5683
   18SAPC   H5R 2320   5.046   2.997  10.067  1.0920 -0.3449  0.4061
   18SAPC   C26 2321   5.155   2.955   9.886 -1.0075 -0.0036  0.3493
   18SAPC   H6R 2322   5.180   2.854   9.919 -1.0109  0.8319  3.1830
   18SAPC   C27 2323   5.221   2.993   9.754 -0.0073  0.7864 -0.3470
   18SAPC   H7R 2324   5.310   2.931   9.732 -1.2774 -1.4704  0.6070
   18SAPC   H7S 2325   5.260   3.097   9.751  1.2960  0.3048 -1.0847
   18SAPC   C28 2326   5.124   2.960   9.643 -0.2466  0.2298 -1.3801
   18SAPC   H8R 2327   5.019   2.964   9.675  0.3582  2.3848  0.5548
   18SAPC   C29 2328   5.152   2.936   9.512 -0.2400  0.1020 -0.0458
   18SAPC   H9R 2329   5.074   2.923   9.435  0.0480  1.0051 -0.5036
   18SAPC  C210 2330   5.293   2.933   9.456 -0.3821  0.0808 -0.6411
   18SAPC  H10R 2331   5.362   2.891   9.531 -1.2744 -1.7645 -0.7798
   18SAPC  H10S 2332   5.332   3.033   9.428  0.8800 -0.4803 -0.9789
   18SAPC  C211 2333   5.318   2.844   9.337 -0.0972 -0.3862  0.0907
   18SAPC  H11R 2334   5.386   2.762   9.366 -1.3850 -1.3257  0.5743
   18SAPC  C212 2335   5.274   2.868   9.211 -0.0041  0.7438  0.3618
   18SAPC  H12R 2336   5.313   2.797   9.136  1.4282 -1.1650  2.7332
   18SAPC  C213 2337   5.179   2.978   9.172  0.6935 -0.1475 -0.3489
   18SAPC  H13R 2338   5.223   3.041   9.091  1.2535 -0.4730 -0.3010
   18SAPC  H13S 2339   5.156   3.050   9.253  0.4776 -2.1248  1.4269
   18SAPC  C214 2340   5.043   2.927   9.145 -0.4490 -0.0585  0.4023
   18SAPC  H14R 2341   4.994   2.898   9.239  1.4135  0.1319  1.4964
   18SAPC  C215 2342   4.980   2.926   9.026  0.2679  0.6545 -0.1226
   18SAPC  H15R 2343   4.875   2.894   9.020  0.5914 -0.6224  0.7638
   18SAPC  C216 2344   5.042   2.958   8.890  0.3170  0.2790 -0.0440
   18SAPC  H16R 2345   5.140   3.010   8.903  1.0049 -1.1764  0.8486
   18SAPC  H16S 2346   4.963   3.018   8.840  0.6589  0.3126 -0.5472
   18SAPC  C217 2347   5.069   2.837   8.795 -0.3250 -0.3302 -0.2623
   18SAPC  H17R 2348   5.090   2.877   8.693  0.0547 -0.3565 -0.1951
   18SAPC  H17S 2349   4.975   2.779   8.780 -1.0227  0.9954 -1.2388
   18SAPC  C218 2350   5.182   2.745   8.826  0.0739 -0.5252 -0.3123
   18SAPC  H18R 2351   5.177   2.659   8.756 -1.5075 -0.0231 -0.8587
   18SAPC  H18S 2352   5.175   2.700   8.927 -0.0458  1.6949  0.7174
   18SAPC  C219 2353   5.317   2.819   8.815  0.5507  0.7826 -0.2021
   18SAPC  H19R 2354   5.319   2.913   8.874 -1.4465 -0.8178  2.6819
   18SAPC  H19S 2355   5.334   2.849   8.709  0.0803  2.5237  0.1750
   18SAPC  C220 2356   5.433   2.730   8.852 -0.0359 -1.1140 -0.5640
   18SAPC  H20R 2357   5.442   2.650   8.776  0.2237 -1.0831 -0.5659
   18SAPC  H20S 2358   5.430   2.689   8.955  1.3071  1.1390  0.4363
   18SAPC  H20T 2359   5.528   2.788   8.847  0.1166 -1.1454  1.3265
   18SAPC   C33 2360   4.635   3.747   9.670 -0.4802 -0.8974  0.1966
   18SAPC   H3X 2361   4.588   3.649   9.690 -1.7196 -0.3199  0.2017
   18SAPC   H3Y 2362   4.745   3.738   9.681 -0.2228  1.7651  0.4453
   18SAPC   C34 2363   4.611   3.785   9.527  0.4067 -0.3166 -0.2455
   18SAPC   H4X 2364   4.675   3.870   9.496 -1.9568  1.1170 -1.5389
   18SAPC   H4Y 2365   4.505   3.810   9.503 -0.2209 -3.2027 -0.8035
   18SAPC   C35 2366   4.648   3.672   9.432  0.4175 -0.2587  0.2550
   18SAPC   H5X 2367   4.603   3.576   9.466  1.0804 -0.7959 -0.3670
   18SAPC   H5Y 2368   4.755   3.644   9.433  0.5382 -0.3411 -3.5365
   18SAPC   C36 2369   4.594   3.716   9.294 -0.2667  0.2000  0.8180
   18SAPC   H6X 2370   4.626   3.819   9.268  0.1592 -0.4715 -1.5269
   18SAPC   H6Y 2371   4.482   3.714   9.295 -0.2713  0.1259  0.3787
   18SAPC   C37 2372   4.633   3.633   9.171  0.2068  0.1330  0.1121
   18SAPC   H7X 2373   4.583   3.534   9.171 -1.0451  0.7069 -2.0346
   18SAPC   H7Y 2374   4.739   3.604   9.188 -0.0961 -0.7484  0.5633
   18SAPC   C38 2375   4.610   3.705   9.044  0.0393  0.1300  0.1326
   18SAPC   H8X 2376   4.662   3.803   9.049 -2.0174  1.3133 -0.4203
   18SAPC   H8Y 2377   4.505   3.742   9.034  0.1146  0.4042  0.3428
   18SAPC   C39 2378   4.658   3.640   8.912 -0.3602  1.0372  0.3909
   18SAPC   H9X 2379   4.603   3.546   8.890 -0.3043  1.0555  0.1746
   18SAPC   H9Y 2380   4.762   3.608   8.934 -0.2744  2.6657  2.7249
   18SAPC  C310 2381   4.654   3.738   8.800 -0.2211 -0.3413 -0.7199
   18SAPC  H10X 2382   4.708   3.823   8.845 -0.2282 -1.6151  1.8554
   18SAPC  H10Y 2383   4.551   3.769   8.772  0.3605  0.7940 -1.6817
   18SAPC  C311 2384   4.716   3.687   8.669  0.1133  0.0065  0.0873
   18SAPC  H11X 2385   4.675   3.755   8.591 -0.9222 -0.6675  0.0259
   18SAPC  H11Y 2386   4.680   3.584   8.645 -1.4861  0.8262 -1.2884
   18SAPC  C312 2387   4.864   3.706   8.668 -0.3369  0.1005  0.0519
   18SAPC  H12X 2388   4.905   3.635   8.743 -0.8427 -2.4110 -1.9115
   18SAPC  H12Y 2389   4.876   3.813   8.694 -2.7216  0.4498 -0.0464
   18SAPC  C313 2390   4.936   3.681   8.531 -0.4672  0.5110 -0.3851
   18SAPC  H13X 2391   4.933   3.571   8.520  0.0690  0.4159  0.3135
   18SAPC  H13Y 2392   5.042   3.714   8.534  0.3503 -1.9161 -0.9701
   18SAPC  C314 2393   4.878   3.762   8.408 -0.6702 -0.2880 -0.0921
   18SAPC  H14X 2394   4.861   3.870   8.427 -1.8943 -0.3629 -0.6762
   18SAPC  H14Y 2395   4.770   3.738   8.399 -0.7054  0.0294 -0.5589
   18SAPC  C315 2396   4.943   3.729   8.277  0.4726  0.3460  0.0589
   18SAPC  H15X 2397   4.942   3.618   8.266 -2.2598  0.2248  0.9383
   18SAPC  H15Y 2398   5.047   3.766   8.262  1.6550 -1.8574  2.1062
   18SAPC  C316 2399   4.865   3.798   8.152 -0.2562 -0.4552 -0.5557
   18SAPC  H16X 2400   4.762   3.759   8.166  0.3337 -0.6721  5.5580
   18SAPC  H16Y 2401   4.904   3.755   8.057  0.3196 -0.0424 -0.5143
   18SAPC  C317 2402   4.866   3.954   8.158 -0.5920  0.2461 -0.4401
   18SAPC  H17X 2403   4.969   3.982   8.188 -0.2930 -0.0979 -1.1058
   18SAPC  H17Y 2404   4.801   3.989   8.241 -0.0919  0.1212  0.0078
   18SAPC  C318 2405   4.811   4.012   8.028  0.4192  0.0945 -0.0306
   18SAPC  H18X 2406   4.876   4.006   7.938 -1.9240 -1.2356 -1.7234
   18SAPC  H18Y 2407   4.771   4.113   8.047 -1.3892 -0.6004  0.0327
   18SAPC  H18Z 2408   4.720   3.953   8.006  0.4634 -0.0046  0.0443
   19SAPC     N 2409   4.236   4.836  10.670 -0.1980  0.4726  0.4389
   19SAPC   C12 2410   4.231   4.795  10.519 -0.3659  0.3726 -0.9876
   19SAPC  H12A 2411   4.175   4.871  10.467 -2.1961  0.4475  0.9449
   19SAPC  H12B 2412   4.169   4.707  10.510 -1.0874  0.8927 -1.1039
   19SAPC   C13 2413   4.098   4.857  10.721  0.1307  0.1947 -0.0736
   19SAPC  H13A 2414   4.053   4.944  10.676  0.4921 -0.0983 -1.0274
   19SAPC  H13B 2415   4.036   4.769  10.708  1.0780 -0.4169 -0.6053
   19SAPC  H13C 2416   4.096   4.876  10.827 -3.3817  0.9699 -0.1504
   19SAPC   C14 2417   4.304   4.724  10.757  0.4345  0.1375  0.3459
   19SAPC  H14A 2418   4.390   4.682  10.707 -0.5168 -0.7782 -0.6051
   19SAPC  H14B 2419   4.336   4.761  10.853  0.8731  0.0459  0.2354
   19SAPC  H14C 2420   4.250   4.631  10.769  1.8082 -0.7718 -0.3520
   19SAPC   C15 2421   4.316   4.959  10.687 -0.4381 -0.4173 -0.0576
   19SAPC  H15A 2422   4.419   4.943  10.657 -0.2966 -0.1244  0.2677
   19SAPC  H15B 2423   4.284   5.038  10.620 -0.2107  0.5271  0.9355
   19SAPC  H15C 2424   4.321   4.981  10.792  1.1760 -1.5148  0.1416
   19SAPC   C11 2425   4.369   4.767  10.452  0.5787  0.3567  0.0403
   19SAPC  H11A 2426   4.427   4.861  10.446  1.7337 -0.3514 -0.2448
   19SAPC  H11B 2427   4.346   4.746  10.345 -0.5650  0.2166  0.3007
   19SAPC     P 2428   4.596   4.647  10.515 -0.1260  0.1169 -0.5114
   19SAPC   O13 2429   4.643   4.748  10.609 -0.8941  0.2529 -0.4809
   19SAPC   O14 2430   4.642   4.507  10.554  0.2566 -0.2551 -0.3615
   19SAPC   O12 2431   4.440   4.651  10.510 -0.0340 -0.2842 -0.2956
   19SAPC   O11 2432   4.637   4.690  10.373 -0.3224  0.2587  0.3775
   19SAPC    C1 2433   4.647   4.600  10.262 -0.0408  0.3213 -0.0054
   19SAPC    HA 2434   4.711   4.514  10.289 -0.4091  0.3454  0.9622
   19SAPC    HB 2435   4.550   4.561  10.224  0.9681 -3.1772  0.7016
   19SAPC    C2 2436   4.717   4.673  10.140 -0.0808 -0.0170 -0.5785
   19SAPC    HS 2437   4.794   4.746  10.172 -1.1690  0.5801  0.7845
   19SAPC   O21 2438   4.603   4.731  10.066 -0.2367  0.7482  0.2632
   19SAPC   C21 2439   4.587   4.863  10.087  0.2584 -0.6323 -0.0461
   19SAPC   O22 2440   4.637   4.938  10.170 -0.3155  0.0132  0.6687
   19SAPC   C22 2441   4.481   4.901   9.992  0.5632  0.5712  0.0089
   19SAPC   H2R 2442   4.412   4.820   9.960  0.6281  1.0437 -1.4039
   19SAPC   H2S 2443   4.408   4.966  10.045  0.1164  1.1616 -1.2952
   19SAPC    C3 2444   4.789   4.561  10.051  0.5933 -0.4462  0.3660
   19SAPC    HX 2445   4.698   4.511  10.012  0.0576 -4.0130  5.2842
   19SAPC    HY 2446   4.844   4.489  10.115 -0.5775 -1.6403  0.0616
   19SAPC   O31 2447   4.877   4.615   9.952 -0.0753  0.6334  0.1638
   19SAPC   C31 2448   4.899   4.526   9.845  0.3160 -0.4863 -0.0509
   19SAPC   O32 2449   4.848   4.419   9.837 -0.4157  0.7738  0.0682
   19SAPC   C32 2450   4.983   4.587   9.730 -0.1102  0.3865 -1.0859
   19SAPC   H2X 2451   5.062   4.513   9.707  2.4478  2.6247 -0.0458
   19SAPC   H2Y 2452   5.021   4.686   9.763 -0.7835  0.7302 -1.3256
   19SAPC   C23 2453   4.518   4.994   9.872 -0.5037  0.5453  0.1633
   19SAPC   H3R 2454   4.582   5.074   9.915 -2.0779  1.2822  1.2445
   19SAPC   H3S 2455   4.422   5.039   9.838 -0.7603 -1.0908 -1.4249
   19SAPC   C24 2456   4.589   4.919   9.753  0.1570 -0.6648 -0.2439
   19SAPC   H4R 2457   4.681   4.865   9.785 -0.2482 -1.7213 -0.8313
   19SAPC   H4S 2458   4.624   4.995   9.680  0.5727  1.0812  1.6795
   19SAPC   C25 2459   4.495   4.827   9.677  0.4639 -0.8313  1.2599
   19SAPC   H5R 2460   4.426   4.763   9.734 -0.0817 -3.0966 -1.6622
   19SAPC   C26 2461   4.470   4.803   9.544  0.0818 -0.2144  1.1633
   19SAPC   H6R 2462   4.395   4.731   9.508 -1.3735  2.1126 -0.7647
   19SAPC   C27 2463   4.554   4.869   9.428 -0.1880  0.6841 -0.0348
   19SAPC   H7R 2464   4.562   4.797   9.344 -1.1024 -1.1726  1.4093
   19SAPC   H7S 2465   4.656   4.896   9.465 -0.9233  0.2830  2.4304
   19SAPC   C28 2466   4.497   4.996   9.362 -0.3226 -0.1446  0.1861
   19SAPC   H8R 2467   4.525   5.086   9.419  1.6396 -0.2144 -0.5709
   19SAPC   C29 2468   4.446   5.016   9.240 -0.4111 -1.2486 -0.6970
   19SAPC   H9R 2469   4.407   5.114   9.210 -0.9099 -1.1707  0.1772
   19SAPC  C210 2470   4.411   4.907   9.145 -0.1886  0.0972  0.1177
   19SAPC  H10R 2471   4.393   4.807   9.188  0.2180 -0.2567 -0.5289
   19SAPC  H10S 2472   4.496   4.888   9.077  0.4466 -0.1611  0.9653
   19SAPC  C211 2473   4.288   4.945   9.071  0.2106  0.7632  0.8343
   19SAPC  H11R 2474   4.200   4.881   9.086 -0.8196  1.6329 -1.1380
   19SAPC  C212 2475   4.271   5.047   8.980  0.5601  0.7985 -0.9802
   19SAPC  H12R 2476   4.166   5.060   8.951  0.9243  1.6456 -2.0091
   19SAPC  C213 2477   4.361   5.146   8.925  0.2393  0.4524  0.3334
   19SAPC  H13R 2478   4.398   5.117   8.825  1.9045  0.9436  0.7838
   19SAPC  H13S 2479   4.450   5.151   8.991  0.0444  1.5951  0.5318
   19SAPC  C214 2480   4.297   5.282   8.920  0.0603 -0.0179  0.2976
   19SAPC  H14R 2481   4.256   5.308   9.018 -0.7082  0.7854 -0.2225
   19SAPC  C215 2482   4.281   5.366   8.812 -0.1515 -0.2616 -0.7290
   19SAPC  H15R 2483   4.213   5.452   8.822 -1.5230 -1.3293 -0.4574
   19SAPC  C216 2484   4.332   5.361   8.671 -1.1117  0.2270  0.0685
   19SAPC  H16R 2485   4.427   5.304   8.668 -0.1284  1.8460 -0.9871
   19SAPC  H16S 2486   4.339   5.466   8.635  2.3652  0.4696  1.1037
   19SAPC  C217 2487   4.230   5.281   8.581  0.3862  0.1179  0.0983
   19SAPC  H17R 2488   4.219   5.179   8.622 -0.2749 -0.7662 -2.1184
   19SAPC  H17S 2489   4.272   5.275   8.478 -1.6668 -1.0336 -0.7217
   19SAPC  C218 2490   4.098   5.350   8.574  0.4764 -0.1009  0.5721
   19SAPC  H18R 2491   4.126   5.456   8.590  0.9821 -0.3784  1.6516
   19SAPC  H18S 2492   4.028   5.320   8.655 -1.3363  1.3685 -0.3887
   19SAPC  C219 2493   4.018   5.340   8.437 -0.3879 -0.2050 -0.2832
   19SAPC  H19R 2494   4.094   5.340   8.356  0.3920 -0.5320  0.4360
   19SAPC  H19S 2495   3.959   5.434   8.433  1.2529  0.9234  0.9014
   19SAPC  C220 2496   3.933   5.214   8.432  0.5264 -0.8681  0.7403
   19SAPC  H20R 2497   3.835   5.223   8.484 -0.4791  4.5320 -1.3944
   19SAPC  H20S 2498   3.992   5.124   8.460  0.2963 -0.6176  2.1193
   19SAPC  H20T 2499   3.906   5.198   8.326  2.4126  1.8527 -0.2766
   19SAPC   C33 2500   4.897   4.611   9.608  0.3324 -0.6958 -0.0088
   19SAPC   H3X 2501   4.823   4.692   9.626  1.5676  0.2589  0.9865
   19SAPC   H3Y 2502   4.840   4.526   9.564  0.1835  1.3552 -4.2277
   19SAPC   C34 2503   4.991   4.646   9.499 -0.2858 -0.2099  0.2937
   19SAPC   H4X 2504   5.059   4.565   9.464  0.5102  1.1998 -1.5903
   19SAPC   H4Y 2505   5.057   4.729   9.531 -1.3824  0.8455 -0.1047
   19SAPC   C35 2506   4.921   4.706   9.372  0.0328  0.1199  0.0826
   19SAPC   H5X 2507   5.004   4.774   9.343 -0.3812  0.6836  0.2241
   19SAPC   H5Y 2508   4.832   4.766   9.399 -0.3086  0.6218 -1.9875
   19SAPC   C36 2509   4.885   4.606   9.263 -0.5591  0.4957  0.5601
   19SAPC   H6X 2510   4.794   4.546   9.288 -1.2988  1.6346  0.6736
   19SAPC   H6Y 2511   4.970   4.536   9.249 -1.8533 -1.4289  1.6906
   19SAPC   C37 2512   4.851   4.678   9.132 -0.3355  0.3237  0.2879
   19SAPC   H7X 2513   4.944   4.736   9.116 -0.8827  0.9460 -0.6987
   19SAPC   H7Y 2514   4.761   4.741   9.147 -1.6583 -1.2999 -0.5468
   19SAPC   C38 2515   4.843   4.582   9.009 -0.0122 -0.2826  0.7369
   19SAPC   H8X 2516   4.771   4.498   9.010 -0.1676 -0.1535  0.3622
   19SAPC   H8Y 2517   4.943   4.534   9.008  0.0531 -0.1399  0.4751
   19SAPC   C39 2518   4.827   4.660   8.880 -0.3336  0.0245  0.2721
   19SAPC   H9X 2519   4.820   4.581   8.802 -1.0728  0.5409 -0.1916
   19SAPC   H9Y 2520   4.909   4.732   8.859  0.1871 -0.7827 -0.5757
   19SAPC  C310 2521   4.694   4.745   8.863 -0.3457  0.2314 -0.2596
   19SAPC  H10X 2522   4.698   4.821   8.944  1.5089 -1.2455  1.1391
   19SAPC  H10Y 2523   4.618   4.672   8.896  1.3676 -1.8124 -0.6036
   19SAPC  C311 2524   4.682   4.815   8.726  0.3441 -0.3862  0.3173
   19SAPC  H11X 2525   4.681   4.733   8.652 -1.4324 -0.0546 -0.0757
   19SAPC  H11Y 2526   4.763   4.889   8.710 -0.4896  1.1087  2.4764
   19SAPC  C312 2527   4.556   4.908   8.701 -0.7917  0.7145  0.1181
   19SAPC  H12X 2528   4.580   5.004   8.752  2.4037  0.0973 -0.0140
   19SAPC  H12Y 2529   4.468   4.864   8.753 -0.1786 -2.9103 -1.6233
   19SAPC  C313 2530   4.528   4.936   8.553  0.1463 -0.1243 -0.3995
   19SAPC  H13X 2531   4.621   4.971   8.502 -0.4444  0.6616 -0.9886
   19SAPC  H13Y 2532   4.453   5.018   8.555 -2.7155 -2.6070 -0.2584
   19SAPC  C314 2533   4.470   4.812   8.486  0.5006  0.8187  0.7695
   19SAPC  H14X 2534   4.368   4.787   8.522  1.0280 -1.2654  0.9693
   19SAPC  H14Y 2535   4.525   4.716   8.498  1.3468  1.3417  1.1507
   19SAPC  C315 2536   4.465   4.831   8.335  0.0461  1.0528  0.4273
   19SAPC  H15X 2537   4.408   4.742   8.302  2.9670 -1.8269  2.5301
   19SAPC  H15Y 2538   4.561   4.834   8.280  0.5374 -0.3512  1.1616
   19SAPC  C316 2539   4.380   4.958   8.289  0.3682 -0.2800  0.2684
   19SAPC  H16X 2540   4.442   5.050   8.289  0.2508 -0.0879 -3.1109
   19SAPC  H16Y 2541   4.291   4.976   8.352  0.7977 -0.2061  0.8671
   19SAPC  C317 2542   4.342   4.939   8.147 -0.0597 -0.0929  0.3706
   19SAPC  H17X 2543   4.284   4.844   8.139  1.8106 -1.2287 -0.5544
   19SAPC  H17Y 2544   4.435   4.924   8.087  0.0638 -0.8982  0.7468
   19SAPC  C318 2545   4.264   5.060   8.104  0.5520 -0.1917 -0.3665
   19SAPC  H18X 2546   4.234   5.052   7.997  0.2087  1.7361 -0.4396
   19SAPC  H18Y 2547   4.316   5.156   8.123  0.1839  0.0114 -0.3872
   19SAPC  H18Z 2548   4.172   5.069   8.165  2.0854 -1.4864  2.3329
   20SAPC     N 2549   3.842   1.032  11.047 -0.0751 -0.3058  0.4029
   20SAPC   C12 2550   3.805   1.076  10.906 -0.0808 -0.1392  0.1406
   20SAPC  H12A 2551   3.879   1.036  10.838  0.5884  0.2728  0.5998
   20SAPC  H12B 2552   3.817   1.182  10.889 -3.4957  0.3779  0.3841
   20SAPC   C13 2553   3.981   1.082  11.076  0.6318  0.0126 -0.7755
   20SAPC  H13A 2554   4.048   1.030  11.010  0.3187  1.3658 -2.2281
   20SAPC  H13B 2555   3.983   1.190  11.084  0.1248 -0.1341  2.6127
   20SAPC  H13C 2556   3.993   1.064  11.182 -1.5504  2.4888  0.0101
   20SAPC   C14 2557   3.750   1.092  11.150 -0.7999 -0.5154  0.3535
   20SAPC  H14A 2558   3.748   1.200  11.150  0.8551 -0.4526  1.2589
   20SAPC  H14B 2559   3.652   1.063  11.116 -0.7992  0.1472 -0.2423
   20SAPC  H14C 2560   3.749   1.059  11.252 -2.4616 -0.7614  0.2827
   20SAPC   C15 2561   3.848   0.884  11.069 -0.3288 -0.8358  0.0834
   20SAPC  H15A 2562   3.893   0.864  11.165  1.1184  1.4587 -0.0421
   20SAPC  H15B 2563   3.749   0.841  11.070 -1.4677  1.6063 -1.1268
   20SAPC  H15C 2564   3.909   0.835  10.994  0.3570  1.6443 -1.0631
   20SAPC   C11 2565   3.662   1.036  10.857 -0.5209  0.0740 -0.2876
   20SAPC  H11A 2566   3.622   1.098  10.774 -2.2223  0.0677  0.4877
   20SAPC  H11B 2567   3.594   1.044  10.944 -1.3894  0.5299 -0.9986
   20SAPC     P 2568   3.742   0.841  10.695 -0.0718  0.0920 -0.1758
   20SAPC   O13 2569   3.860   0.916  10.661 -0.2840 -0.0554  0.5407
   20SAPC   O14 2570   3.757   0.699  10.726 -0.2401  0.6948  0.2450
   20SAPC   O12 2571   3.664   0.897  10.816 -0.4904 -0.0796  0.0427
   20SAPC   O11 2572   3.640   0.854  10.577  0.0892  0.4560 -0.0646
   20SAPC    C1 2573   3.610   0.972  10.507 -0.1838 -0.4543  0.7043
   20SAPC    HA 2574   3.500   0.973  10.491 -0.0787  0.7984 -0.0921
   20SAPC    HB 2575   3.636   1.065  10.562 -0.3921 -0.1973  0.3743
   20SAPC    C2 2576   3.675   0.979  10.370 -0.4458  0.0428  0.2679
   20SAPC    HS 2577   3.786   0.979  10.373 -0.4378 -0.1193 -0.0149
   20SAPC   O21 2578   3.629   1.094  10.289  0.0778 -0.2465  0.0954
   20SAPC   C21 2579   3.695   1.209  10.303  0.2262  0.0268  0.0732
   20SAPC   O22 2580   3.786   1.230  10.380  0.1434  0.0218  0.2202
   20SAPC   C22 2581   3.609   1.323  10.238 -0.3616  0.1027  0.5755
   20SAPC   H2R 2582   3.511   1.333  10.290 -0.9436  0.3273 -0.5475
   20SAPC   H2S 2583   3.661   1.419  10.255 -1.2382  0.9261 -1.1647
   20SAPC    C3 2584   3.648   0.854  10.294  0.1983 -0.6734  0.4688
   20SAPC    HX 2585   3.537   0.856  10.281  0.3595 -0.5923 -1.1091
   20SAPC    HY 2586   3.652   0.772  10.368 -1.8618  0.1773  1.6186
   20SAPC   O31 2587   3.717   0.846  10.170  0.7881 -0.4634 -0.4251
   20SAPC   C31 2588   3.654   0.909  10.072 -0.2287  0.4137 -0.1193
   20SAPC   O32 2589   3.554   0.971  10.074  0.5097 -0.2319 -0.0495
   20SAPC   C32 2590   3.731   0.890   9.941  0.2050  0.2843  0.7347
   20SAPC   H2X 2591   3.741   0.781   9.918  2.4173  0.7261 -0.5913
   20SAPC   H2Y 2592   3.830   0.933   9.964  0.2839  1.5787 -1.7143
   20SAPC   C23 2593   3.573   1.290  10.087  0.9328 -0.3979  0.3531
   20SAPC   H3R 2594   3.477   1.235  10.092 -1.0331  2.7200 -0.2129
   20SAPC   H3S 2595   3.648   1.223  10.038  1.7368  1.5599 -1.2297
   20SAPC   C24 2596   3.559   1.421   9.999  0.3295  0.2756 -0.0632
   20SAPC   H4R 2597   3.562   1.388   9.893 -1.2198  1.8052 -0.6214
   20SAPC   H4S 2598   3.653   1.476  10.020  0.8959 -0.8212  0.3609
   20SAPC   C25 2599   3.443   1.513  10.021 -0.3933 -0.3124  0.8809
   20SAPC   H5R 2600   3.411   1.521  10.126 -0.5332 -0.5354  0.8555
   20SAPC   C26 2601   3.373   1.575   9.925  0.2875  0.3410  0.5749
   20SAPC   H6R 2602   3.286   1.632   9.962  0.9993  1.8665 -0.0254
   20SAPC   C27 2603   3.390   1.559   9.772 -0.8622  0.1038 -0.0744
   20SAPC   H7R 2604   3.424   1.456   9.747 -1.3798 -0.0111 -0.3239
   20SAPC   H7S 2605   3.481   1.614   9.741 -2.6999  2.1542 -2.2174
   20SAPC   C28 2606   3.265   1.594   9.693  0.5654  0.6609  0.0887
   20SAPC   H8R 2607   3.195   1.669   9.733  0.0839 -0.4621  1.4155
   20SAPC   C29 2608   3.241   1.555   9.568  0.3349 -0.0563 -0.1032
   20SAPC   H9R 2609   3.151   1.598   9.522  1.8002  1.1113 -2.0773
   20SAPC  C210 2610   3.325   1.476   9.474 -0.2713  0.4192 -0.5145
   20SAPC  H10R 2611   3.266   1.471   9.380  1.7905  2.3889 -2.0257
   20SAPC  H10S 2612   3.326   1.372   9.513  0.3072 -0.1535 -1.9859
   20SAPC  C211 2613   3.463   1.535   9.439  0.2359 -0.7270  0.1067
   20SAPC  H11R 2614   3.515   1.575   9.528  0.1077 -1.1381  0.3661
   20SAPC  C212 2615   3.527   1.522   9.324  0.2756 -0.4010 -0.3505
   20SAPC  H12R 2616   3.624   1.571   9.310  0.7255 -1.0175  0.5279
   20SAPC  C213 2617   3.472   1.446   9.200  0.0863 -0.2676  0.3129
   20SAPC  H13R 2618   3.365   1.417   9.195 -0.1015  0.5156 -0.5176
   20SAPC  H13S 2619   3.526   1.349   9.196 -1.3377 -1.0537 -0.8070
   20SAPC  C214 2620   3.515   1.510   9.075 -0.1737 -0.0614  0.3487
   20SAPC  H14R 2621   3.620   1.491   9.049  0.1399 -0.0159  1.5071
   20SAPC  C215 2622   3.442   1.580   8.989 -0.3780 -0.8361  0.0336
   20SAPC  H15R 2623   3.489   1.616   8.897 -0.3385 -0.1652  0.3141
   20SAPC  C216 2624   3.295   1.615   9.010 -0.3613 -0.0328  0.4828
   20SAPC  H16R 2625   3.296   1.692   9.090 -2.6060 -0.7720  1.2984
   20SAPC  H16S 2626   3.244   1.531   9.063 -2.8598  0.8753 -0.3613
   20SAPC  C217 2627   3.239   1.653   8.876 -0.5066  0.4193  0.6086
   20SAPC  H17R 2628   3.260   1.572   8.803  1.1686  2.2253 -0.9955
   20SAPC  H17S 2629   3.292   1.741   8.836  1.7760 -0.9844  0.3499
   20SAPC  C218 2630   3.091   1.682   8.897  0.6927  0.1923 -0.7209
   20SAPC  H18R 2631   3.083   1.757   8.978 -1.9617 -1.4016  0.6328
   20SAPC  H18S 2632   3.040   1.593   8.940  1.1256  0.2369 -0.1107
   20SAPC  C219 2633   3.011   1.737   8.770 -0.0349 -0.3059 -0.1857
   20SAPC  H19R 2634   3.028   1.670   8.683  0.9180  0.1959 -0.4022
   20SAPC  H19S 2635   3.057   1.830   8.730 -1.0566  0.1888 -0.2318
   20SAPC  C220 2636   2.861   1.759   8.811  0.4191 -0.0747  0.3997
   20SAPC  H20R 2637   2.789   1.794   8.733 -0.9495  0.1044  1.6993
   20SAPC  H20S 2638   2.865   1.846   8.881  0.2678 -0.3421  0.7433
   20SAPC  H20T 2639   2.813   1.673   8.861 -1.4630  0.4168 -0.4567
   20SAPC   C33 2640   3.677   0.977   9.826  0.4468  0.5724 -0.2590
   20SAPC   H3X 2641   3.676   1.086   9.849 -1.2109  0.6299 -0.4689
   20SAPC   H3Y 2642   3.570   0.948   9.818  0.5055 -0.5430  2.3624
   20SAPC   C34 2643   3.738   0.939   9.693  0.0182  0.1449  0.2872
   20SAPC   H4X 2644   3.727   0.831   9.672 -1.1868  0.7833 -2.8550
   20SAPC   H4Y 2645   3.842   0.970   9.716 -0.9863  2.5240  2.1586
   20SAPC   C35 2646   3.685   1.032   9.578 -0.1409 -0.0601 -0.5184
   20SAPC   H5X 2647   3.714   1.137   9.600  1.2757 -1.0022  2.6186
   20SAPC   H5Y 2648   3.574   1.023   9.580 -0.2940  1.6526 -0.2616
   20SAPC   C36 2649   3.762   0.996   9.445  0.2847  0.0234 -0.0892
   20SAPC   H6X 2650   3.741   0.890   9.417 -1.6703  0.5045 -0.6405
   20SAPC   H6Y 2651   3.871   1.011   9.458  0.4496 -1.1351 -0.0276
   20SAPC   C37 2652   3.701   1.085   9.331 -0.1016 -0.2779 -0.4071
   20SAPC   H7X 2653   3.721   1.193   9.347  1.0216 -0.9696  4.1863
   20SAPC   H7Y 2654   3.591   1.086   9.345  0.1171  0.3472  1.5306
   20SAPC   C38 2655   3.734   1.042   9.189 -0.0279  0.3605  0.3390
   20SAPC   H8X 2656   3.699   0.936   9.184  0.5786  0.2162 -1.5469
   20SAPC   H8Y 2657   3.840   1.041   9.156  0.3097  2.1703  1.2546
   20SAPC   C39 2658   3.644   1.119   9.093 -0.2878  0.1407  0.5749
   20SAPC   H9X 2659   3.684   1.221   9.113 -0.2520  0.6179 -1.6408
   20SAPC   H9Y 2660   3.535   1.107   9.108 -0.7195 -0.4231 -2.3723
   20SAPC  C310 2661   3.671   1.088   8.944  0.4117 -0.2860 -0.1096
   20SAPC  H10X 2662   3.638   0.985   8.919 -0.3115 -0.1663  0.3274
   20SAPC  H10Y 2663   3.779   1.093   8.919  0.6808 -2.5093  0.4103
   20SAPC  C311 2664   3.593   1.184   8.857  0.2014  0.2275 -0.5866
   20SAPC  H11X 2665   3.611   1.290   8.884  2.1237  0.2795 -1.8888
   20SAPC  H11Y 2666   3.483   1.172   8.869 -0.0362  0.5503 -2.1511
   20SAPC  C312 2667   3.624   1.167   8.702 -0.7917 -0.4777 -0.9269
   20SAPC  H12X 2668   3.532   1.213   8.659 -1.0335  2.7157  2.4819
   20SAPC  H12Y 2669   3.625   1.061   8.668 -0.2631 -0.4047 -1.1582
   20SAPC  C313 2670   3.763   1.238   8.664 -0.1865 -0.4150  0.1856
   20SAPC  H13X 2671   3.835   1.189   8.733 -2.0033 -0.3858  2.2170
   20SAPC  H13Y 2672   3.759   1.345   8.691  2.4082 -0.1732 -0.1339
   20SAPC  C314 2673   3.808   1.220   8.515 -0.4370  0.8029  0.3395
   20SAPC  H14X 2674   3.846   1.115   8.513 -0.9495  0.6181 -0.9855
   20SAPC  H14Y 2675   3.892   1.286   8.486 -0.2512 -0.3883 -2.1157
   20SAPC  C315 2676   3.696   1.218   8.408  0.1455  0.1542 -0.0960
   20SAPC  H15X 2677   3.654   1.317   8.379  0.5750 -0.2844 -2.3628
   20SAPC  H15Y 2678   3.605   1.162   8.440 -0.1031  0.2086 -0.6872
   20SAPC  C316 2679   3.747   1.142   8.293  0.2941 -0.0558 -0.1586
   20SAPC  H16X 2680   3.769   1.041   8.332 -2.9161 -0.2271  1.5322
   20SAPC  H16Y 2681   3.842   1.188   8.257  0.0498 -0.7594 -1.7722
   20SAPC  C317 2682   3.646   1.147   8.178  0.7974 -0.6336 -0.1812
   20SAPC  H17X 2683   3.623   1.255   8.165 -0.7378 -0.7645  1.1048
   20SAPC  H17Y 2684   3.552   1.100   8.214 -1.4716  4.0647  0.8068
   20SAPC  C318 2685   3.681   1.084   8.043  0.2775 -0.0736  0.1592
   20SAPC  H18X 2686   3.599   1.102   7.971  1.0088 -1.1959 -0.9729
   20SAPC  H18Y 2687   3.705   0.977   8.054 -0.1396 -0.1830  0.0241
   20SAPC  H18Z 2688   3.775   1.133   8.010 -0.2788  0.7006 -0.3144
   21SAPC     N 2689   6.022   0.386  10.579  0.1736 -0.2587  0.2610
   21SAPC   C12 2690   5.890   0.396  10.505  0.0658  0.2068  0.4232
   21SAPC  H12A 2691   5.815   0.363  10.575  0.7756 -0.5793  0.8365
   21SAPC  H12B 2692   5.899   0.339  10.414 -1.0379 -0.1370  0.5233
   21SAPC   C13 2693   6.047   0.239  10.600 -0.7836  0.1591  0.3962
   21SAPC  H13A 2694   5.984   0.180  10.665 -1.1848  2.0632  1.7861
   21SAPC  H13B 2695   6.063   0.185  10.507  0.5109  1.1461  0.0248
   21SAPC  H13C 2696   6.148   0.234  10.638  0.2249  0.4480 -2.0064
   21SAPC   C14 2697   6.126   0.450  10.493 -0.0819 -0.3338 -0.2904
   21SAPC  H14A 2698   6.138   0.406  10.394  2.9614  2.0540 -1.1416
   21SAPC  H14B 2699   6.105   0.554  10.476  2.6094  0.8787  2.8627
   21SAPC  H14C 2700   6.217   0.434  10.549 -0.7681 -2.5896  0.2865
   21SAPC   C15 2701   6.018   0.455  10.720 -0.4130 -0.2305 -0.2520
   21SAPC  H15A 2702   6.004   0.562  10.714  2.1717  0.0901 -3.4311
   21SAPC  H15B 2703   5.931   0.412  10.767  0.3573 -1.3647  0.1823
   21SAPC  H15C 2704   6.111   0.430  10.769  0.1009  0.3807 -0.8934
   21SAPC   C11 2705   5.851   0.532  10.456 -0.2893  0.0042  0.5033
   21SAPC  H11A 2706   5.748   0.524  10.414  0.6442  1.0684 -2.1855
   21SAPC  H11B 2707   5.901   0.552  10.359 -2.4422  0.6821 -0.5560
   21SAPC     P 2708   5.746   0.650  10.669 -0.1770  0.1395 -0.1814
   21SAPC   O13 2709   5.690   0.516  10.679  0.3830  0.1933 -0.3058
   21SAPC   O14 2710   5.804   0.711  10.793  0.0046  0.2180 -0.0106
   21SAPC   O12 2711   5.857   0.637  10.553 -0.2763  0.2266  0.2750
   21SAPC   O11 2712   5.640   0.749  10.608  0.9188 -0.1950 -0.1604
   21SAPC    C1 2713   5.687   0.888  10.583  0.6118 -0.4317  0.9594
   21SAPC    HA 2714   5.680   0.945  10.678  0.3457 -1.3383  1.4878
   21SAPC    HB 2715   5.795   0.886  10.556  0.4462  0.9711  0.0973
   21SAPC    C2 2716   5.604   0.960  10.470  0.1329  0.3974 -0.1859
   21SAPC    HS 2717   5.495   0.941  10.478  0.3530 -1.1822 -0.6366
   21SAPC   O21 2718   5.651   0.901  10.348  0.0908 -0.1751  0.2503
   21SAPC   C21 2719   5.590   0.797  10.298  0.9523 -0.1215 -0.7344
   21SAPC   O22 2720   5.491   0.741  10.347 -0.5604 -0.1097  0.2859
   21SAPC   C22 2721   5.666   0.746  10.180 -0.0120  0.6343 -0.0680
   21SAPC   H2R 2722   5.700   0.835  10.122 -2.6255  1.7834  0.0168
   21SAPC   H2S 2723   5.754   0.689  10.217 -0.5068  0.5249  0.9723
   21SAPC    C3 2724   5.630   1.111  10.459  0.3807  0.2889 -0.0728
   21SAPC    HX 2725   5.739   1.115  10.438  0.4549  1.4797  0.5152
   21SAPC    HY 2726   5.607   1.152  10.559 -0.0812 -0.3324  0.0791
   21SAPC   O31 2727   5.550   1.166  10.345  0.0304 -0.0215  0.0694
   21SAPC   C31 2728   5.426   1.209  10.377  0.2022 -0.4003  0.1544
   21SAPC   O32 2729   5.373   1.213  10.487 -0.3610  0.1588 -0.4512
   21SAPC   C32 2730   5.357   1.242  10.247 -0.3904 -0.0889  0.2043
   21SAPC   H2X 2731   5.435   1.275  10.175  1.2034  0.0291  1.9034
   21SAPC   H2Y 2732   5.299   1.333  10.274 -2.7100 -1.4513  0.0543
   21SAPC   C23 2733   5.600   0.646  10.090  0.2428  0.0180 -0.1462
   21SAPC   H3R 2734   5.511   0.695  10.045  1.2903  0.0162 -2.3336
   21SAPC   H3S 2735   5.565   0.563  10.154  2.1040 -0.1683  0.7187
   21SAPC   C24 2736   5.687   0.619   9.966 -0.7391  0.2551 -0.4018
   21SAPC   H4R 2737   5.788   0.597  10.007 -0.6649  1.3618  0.0547
   21SAPC   H4S 2738   5.706   0.713   9.910  1.2446  0.2358  0.1748
   21SAPC   C25 2739   5.638   0.518   9.868  0.2031 -0.4692 -0.5001
   21SAPC   H5R 2740   5.656   0.417   9.908 -0.3127  0.3774  2.0186
   21SAPC   C26 2741   5.549   0.535   9.771  0.3577 -1.1207 -0.3947
   21SAPC   H6R 2742   5.549   0.454   9.696  1.8234 -0.2378 -1.4291
   21SAPC   C27 2743   5.508   0.678   9.717 -0.0712 -0.1089  0.7292
   21SAPC   H7R 2744   5.468   0.743   9.798 -1.2734  0.5566 -0.3720
   21SAPC   H7S 2745   5.424   0.654   9.649  0.6101 -1.3659  0.2906
   21SAPC   C28 2746   5.619   0.755   9.647 -0.3388 -0.1396 -0.3003
   21SAPC   H8R 2747   5.681   0.813   9.717 -1.0160 -1.0703  1.1162
   21SAPC   C29 2748   5.642   0.753   9.517  0.1515  0.6855  0.3998
   21SAPC   H9R 2749   5.721   0.821   9.482  0.7718  0.8530  2.0311
   21SAPC  C210 2750   5.563   0.670   9.415  0.3309  0.4487  0.4019
   21SAPC  H10R 2751   5.461   0.712   9.404  0.3637  0.4819  0.2194
   21SAPC  H10S 2752   5.544   0.569   9.459 -0.7125  0.5865  0.2772
   21SAPC  C211 2753   5.624   0.651   9.270  0.1038  0.1484 -0.3808
   21SAPC  H11R 2754   5.686   0.560   9.270  0.5124  0.4204 -0.0460
   21SAPC  C212 2755   5.607   0.718   9.154  0.9963 -0.7591 -0.2414
   21SAPC  H12R 2756   5.672   0.704   9.066  2.0182 -1.9859  0.6877
   21SAPC  C213 2757   5.522   0.843   9.147 -0.0434  0.0077  0.3452
   21SAPC  H13R 2758   5.591   0.930   9.141 -0.8535  0.6519  0.1456
   21SAPC  H13S 2759   5.445   0.853   9.226  0.0667  3.7563  0.1356
   21SAPC  C214 2760   5.451   0.839   9.019 -0.2427  0.5760  0.4223
   21SAPC  H14R 2761   5.362   0.774   9.021  0.1526  0.0335  0.5542
   21SAPC  C215 2762   5.475   0.897   8.905 -0.0114 -0.0580  0.4738
   21SAPC  H15R 2763   5.415   0.873   8.816 -0.0124  0.8738  0.2103
   21SAPC  C216 2764   5.584   0.990   8.882  0.6459 -0.9847  0.2728
   21SAPC  H16R 2765   5.605   1.055   8.970 -1.1870 -1.3081  1.0020
   21SAPC  H16S 2766   5.572   1.053   8.791  0.9397 -0.4478  0.5970
   21SAPC  C217 2767   5.713   0.907   8.857  0.1834 -0.0703 -0.5466
   21SAPC  H17R 2768   5.734   0.830   8.934  0.3556 -1.3685 -1.8473
   21SAPC  H17S 2769   5.803   0.971   8.845 -0.1154  0.1102 -1.9912
   21SAPC  C218 2770   5.713   0.840   8.720 -0.4924  0.6063 -0.0306
   21SAPC  H18R 2771   5.655   0.906   8.651  0.6737  1.6200 -0.0781
   21SAPC  H18S 2772   5.663   0.741   8.717  0.2638 -0.0588  4.0050
   21SAPC  C219 2773   5.856   0.826   8.648  0.3269 -0.7917 -0.3677
   21SAPC  H19R 2774   5.931   0.781   8.716  0.9008  1.5694  0.6780
   21SAPC  H19S 2775   5.897   0.928   8.663 -2.3876  0.1429  1.4521
   21SAPC  C220 2776   5.848   0.764   8.513 -0.6343  0.2498  0.2000
   21SAPC  H20R 2777   5.832   0.655   8.527 -1.0081 -0.2125 -3.0473
   21SAPC  H20S 2778   5.938   0.788   8.452 -0.0567 -1.7418  0.1967
   21SAPC  H20T 2779   5.765   0.807   8.453 -1.8093 -1.5535  0.4733
   21SAPC   C33 2780   5.257   1.144  10.206  0.1511  0.0150 -0.0044
   21SAPC   H3X 2781   5.227   1.166  10.101  2.1348  3.2045 -0.0260
   21SAPC   H3Y 2782   5.164   1.148  10.268  1.0693  1.9632  1.3432
   21SAPC   C34 2783   5.308   0.998  10.203 -0.0723  0.6776  0.1703
   21SAPC   H4X 2784   5.341   0.965  10.304 -0.7751 -0.8171 -0.0516
   21SAPC   H4Y 2785   5.399   0.996  10.141  0.1440 -0.4129  0.5041
   21SAPC   C35 2786   5.210   0.895  10.158 -0.5275  0.2023 -0.3165
   21SAPC   H5X 2787   5.138   0.866  10.238 -0.6734 -0.7996 -0.7954
   21SAPC   H5Y 2788   5.260   0.802  10.125 -1.4343 -0.2830 -0.3598
   21SAPC   C36 2789   5.129   0.933  10.031  0.0236 -0.1489 -0.0037
   21SAPC   H6X 2790   5.198   0.952   9.946 -1.1547  0.4732 -0.8588
   21SAPC   H6Y 2791   5.068   1.019  10.068  3.9823  2.1088  1.9561
   21SAPC   C37 2792   5.037   0.811  10.005  0.2835 -0.2400  0.1334
   21SAPC   H7X 2793   4.976   0.786  10.094  1.7604  0.9350  1.5524
   21SAPC   H7Y 2794   5.107   0.729   9.978 -0.0261 -0.0794 -1.2482
   21SAPC   C38 2795   4.961   0.847   9.879  0.6951  0.9091 -0.7973
   21SAPC   H8X 2796   4.923   0.950   9.893 -2.7978 -0.0433 -2.1527
   21SAPC   H8Y 2797   4.873   0.781   9.866  0.0012  2.1094 -2.7534
   21SAPC   C39 2798   5.045   0.838   9.746 -0.2744  0.3483 -0.3379
   21SAPC   H9X 2799   5.115   0.753   9.758 -0.2946  0.2698 -0.7680
   21SAPC   H9Y 2800   5.106   0.931   9.755  0.9400 -0.5251  0.8649
   21SAPC  C310 2801   4.966   0.846   9.621 -0.8522 -0.0596  0.1337
   21SAPC  H10X 2802   4.911   0.943   9.612 -1.2968 -0.2747  0.4833
   21SAPC  H10Y 2803   4.902   0.757   9.603  0.0782 -0.4420 -1.4435
   21SAPC  C311 2804   5.059   0.848   9.495 -0.5814  0.2304 -0.0741
   21SAPC  H11X 2805   5.144   0.781   9.519  1.7157  2.4779 -1.4638
   21SAPC  H11Y 2806   5.109   0.947   9.492 -1.7109  0.9167  1.6199
   21SAPC  C312 2807   4.979   0.823   9.370 -0.2474  0.5402  0.2015
   21SAPC  H12X 2808   4.888   0.885   9.362 -0.0695  0.8549  0.5420
   21SAPC  H12Y 2809   4.948   0.716   9.376  1.1778 -0.1137 -2.4590
   21SAPC  C313 2810   5.061   0.848   9.249  0.3518  0.2198 -0.5148
   21SAPC  H13X 2811   5.146   0.779   9.230  0.6282  0.3005  0.3720
   21SAPC  H13Y 2812   5.103   0.951   9.250  0.4719  0.1785 -0.9316
   21SAPC  C314 2813   4.977   0.849   9.119 -0.1499  0.2801 -0.1519
   21SAPC  H14X 2814   4.891   0.915   9.140  1.6236  2.5364  0.3703
   21SAPC  H14Y 2815   4.938   0.745   9.111 -0.3431  0.3155  0.2988
   21SAPC  C315 2816   5.058   0.892   8.997  0.9438  0.5692 -0.1060
   21SAPC  H15X 2817   5.142   0.820   8.989 -0.5368 -1.7081  2.7408
   21SAPC  H15Y 2818   5.098   0.996   9.007  1.8645  0.2615 -0.5222
   21SAPC  C316 2819   4.978   0.875   8.869 -0.7647  0.1497 -0.2997
   21SAPC  H16X 2820   4.889   0.942   8.873 -1.7469 -1.0221 -1.6816
   21SAPC  H16Y 2821   4.935   0.773   8.863 -1.6822  0.3943  1.5177
   21SAPC  C317 2822   5.054   0.900   8.745 -0.0477 -0.8576  0.1529
   21SAPC  H17X 2823   5.137   0.827   8.734  1.4755  0.1858  3.3682
   21SAPC  H17Y 2824   5.113   0.994   8.756  0.3886 -0.7300 -2.5493
   21SAPC  C318 2825   4.967   0.920   8.624 -0.4121  0.2237  0.4823
   21SAPC  H18X 2826   4.908   0.828   8.604 -1.0186  1.2490 -3.2121
   21SAPC  H18Y 2827   5.036   0.931   8.538  0.2657 -1.8168  0.7230
   21SAPC  H18Z 2828   4.913   1.017   8.629  2.7746  2.4114 -2.5469
   22SAPC     N 2829   4.246   4.006  10.241 -0.0880 -0.3616  0.5071
   22SAPC   C12 2830   4.141   3.987  10.339 -0.2083 -0.3327 -0.3415
   22SAPC  H12A 2831   4.186   3.994  10.437  0.0203  0.4149 -0.4941
   22SAPC  H12B 2832   4.103   3.885  10.338  0.4281 -0.6522  2.1558
   22SAPC   C13 2833   4.367   3.928  10.270  0.5164  0.6753  0.1216
   22SAPC  H13A 2834   4.354   3.821  10.277  2.4284  0.4585  1.2988
   22SAPC  H13B 2835   4.433   3.933  10.185 -0.7072 -3.3892 -1.2539
   22SAPC  H13C 2836   4.420   3.969  10.355 -0.6093  0.4332  0.9674
   22SAPC   C14 2837   4.192   3.953  10.114 -0.7418 -0.4691 -0.1146
   22SAPC  H14A 2838   4.256   3.961  10.028 -1.8480 -3.0763 -1.2641
   22SAPC  H14B 2839   4.178   3.847  10.125  2.6688 -1.1299 -0.9886
   22SAPC  H14C 2840   4.099   4.003  10.092 -2.2545 -2.7974  0.5598
   22SAPC   C15 2841   4.284   4.144  10.222  0.1992 -0.0370 -0.3606
   22SAPC  H15A 2842   4.338   4.172  10.312 -0.1171 -1.4761  0.3170
   22SAPC  H15B 2843   4.355   4.150  10.141  0.7351  0.3908  0.1240
   22SAPC  H15C 2844   4.198   4.207  10.206  1.1441  1.3465 -0.1892
   22SAPC   C11 2845   4.026   4.071  10.317  0.0673  0.1227 -0.2275
   22SAPC  H11A 2846   3.992   4.091  10.213  0.5605  1.2409 -0.1863
   22SAPC  H11B 2847   4.059   4.171  10.353 -3.0174  0.5112  1.9333
   22SAPC     P 2848   3.809   3.929  10.390 -0.1705  0.4956 -0.2755
   22SAPC   O13 2849   3.866   3.793  10.392  0.0475  0.1707  0.1437
   22SAPC   O14 2850   3.698   3.950  10.481 -0.5419 -0.3873 -0.0448
   22SAPC   O12 2851   3.926   4.029  10.413  0.1328  0.0090 -0.6652
   22SAPC   O11 2852   3.772   3.954  10.238 -0.2307 -0.5223 -0.1335
   22SAPC    C1 2853   3.647   3.898  10.188  0.5584 -0.3135 -0.1201
   22SAPC    HA 2854   3.601   3.818  10.249 -1.1245 -0.3152 -1.3190
   22SAPC    HB 2855   3.564   3.972  10.185  0.2505 -0.6927 -1.5480
   22SAPC    C2 2856   3.662   3.842  10.041  0.2958 -0.4468  0.2649
   22SAPC    HS 2857   3.742   3.766  10.051 -0.8191 -1.6321  0.5145
   22SAPC   O21 2858   3.690   3.953   9.948  0.2717  0.2157 -0.1555
   22SAPC   C21 2859   3.823   3.980   9.919  0.2548  0.4927  0.1717
   22SAPC   O22 2860   3.913   3.901   9.946 -0.2769 -0.2725  0.5863
   22SAPC   C22 2861   3.827   4.106   9.839  0.7894  0.5180 -0.2375
   22SAPC   H2R 2862   3.755   4.090   9.757 -1.6455 -0.4317  1.9332
   22SAPC   H2S 2863   3.788   4.188   9.904  1.0509  0.1662  0.3716
   22SAPC    C3 2864   3.532   3.766   9.996  0.1849  0.5290 -0.6098
   22SAPC    HX 2865   3.444   3.828  10.023  1.0598  2.1447 -1.2739
   22SAPC    HY 2866   3.510   3.671  10.047 -0.8839  0.8858 -0.3861
   22SAPC   O31 2867   3.520   3.751   9.851  0.5341 -0.1909  0.0097
   22SAPC   C31 2868   3.610   3.679   9.792  0.1797 -0.4202 -0.3813
   22SAPC   O32 2869   3.708   3.625   9.836 -0.0926  0.2512  0.0008
   22SAPC   C32 2870   3.578   3.683   9.640  0.5132  0.3160 -0.2046
   22SAPC   H2X 2871   3.631   3.770   9.597 -0.8934  1.2329 -0.1469
   22SAPC   H2Y 2872   3.469   3.680   9.618  0.2360  2.8465  0.4741
   22SAPC   C23 2873   3.970   4.141   9.800 -0.5046  0.3246  0.6105
   22SAPC   H3R 2874   4.001   4.049   9.747 -0.2255  0.8536 -0.1671
   22SAPC   H3S 2875   4.043   4.140   9.883  1.1870  1.5061 -0.7975
   22SAPC   C24 2876   3.980   4.259   9.714  0.0089 -0.6744 -0.1426
   22SAPC   H4R 2877   3.919   4.234   9.625  1.1077 -1.2203 -0.7640
   22SAPC   H4S 2878   4.080   4.284   9.671 -1.6197  0.6996 -3.4939
   22SAPC   C25 2879   3.928   4.379   9.787  0.6444 -0.1452 -0.4122
   22SAPC   H5R 2880   3.833   4.372   9.841 -0.0565  0.5772 -1.5141
   22SAPC   C26 2881   3.974   4.508   9.787 -0.0171 -0.3252  0.4902
   22SAPC   H6R 2882   3.924   4.581   9.853 -1.9082 -2.4071  1.5069
   22SAPC   C27 2883   4.093   4.557   9.709  0.0524 -0.8584 -0.7964
   22SAPC   H7R 2884   4.092   4.511   9.608 -1.3279 -2.3688 -0.1392
   22SAPC   H7S 2885   4.188   4.526   9.758 -1.0380 -1.9990  0.7184
   22SAPC   C28 2886   4.096   4.708   9.690 -0.5434  1.0271  0.2579
   22SAPC   H8R 2887   4.128   4.752   9.786 -1.3630 -2.4231  2.3247
   22SAPC   C29 2888   4.053   4.792   9.591  0.7321  0.6990  0.2456
   22SAPC   H9R 2889   4.075   4.899   9.600  0.3010  0.6805  1.7964
   22SAPC  C210 2890   3.998   4.740   9.461 -0.4554 -0.4091 -0.3451
   22SAPC  H10R 2891   3.930   4.814   9.414 -2.0127 -1.1317  0.7107
   22SAPC  H10S 2892   3.933   4.654   9.487 -2.1360  1.4651  2.0513
   22SAPC  C211 2893   4.101   4.703   9.354  0.5172 -0.2891  0.3676
   22SAPC  H11R 2894   4.204   4.740   9.365  0.1329  0.9425  0.0240
   22SAPC  C212 2895   4.081   4.605   9.264 -0.1655 -0.0967 -0.0009
   22SAPC  H12R 2896   4.160   4.579   9.192 -0.3056 -0.4895 -0.0125
   22SAPC  C213 2897   3.949   4.538   9.230 -0.4365 -0.1578 -0.0062
   22SAPC  H13R 2898   3.950   4.530   9.120 -0.5049  1.1310 -0.1185
   22SAPC  H13S 2899   3.864   4.600   9.268 -1.6330 -0.9795 -1.2582
   22SAPC  C214 2900   3.955   4.402   9.305 -0.3017  0.5816 -0.1135
   22SAPC  H14R 2901   3.946   4.407   9.414  0.7335  0.5898 -0.0207
   22SAPC  C215 2902   3.945   4.281   9.245 -0.2184 -0.2881 -0.0387
   22SAPC  H15R 2903   3.953   4.193   9.310 -0.4483 -2.0452 -2.2968
   22SAPC  C216 2904   3.951   4.248   9.100 -0.3191 -0.3857  0.1115
   22SAPC  H16R 2905   3.970   4.139   9.089  1.5556 -0.0248 -0.6105
   22SAPC  H16S 2906   4.042   4.288   9.051 -1.3653 -0.5514 -2.0442
   22SAPC  C217 2907   3.828   4.285   9.022 -0.4172  0.4992  0.1856
   22SAPC  H17R 2908   3.815   4.395   9.010 -1.5719  0.2900 -0.6503
   22SAPC  H17S 2909   3.731   4.259   9.070 -0.1982 -0.4585  0.1238
   22SAPC  C218 2910   3.830   4.220   8.884 -0.2920  0.2857  0.0428
   22SAPC  H18R 2911   3.788   4.120   8.860  0.5913  0.1632 -1.0984
   22SAPC  H18S 2912   3.937   4.195   8.867 -1.4272 -3.9364 -2.5405
   22SAPC  C219 2913   3.786   4.329   8.779 -0.2650 -0.4847  0.1420
   22SAPC  H19R 2914   3.862   4.410   8.772 -0.1240 -0.6782 -0.6508
   22SAPC  H19S 2915   3.687   4.371   8.810  0.1420 -0.8761  2.0794
   22SAPC  C220 2916   3.774   4.271   8.637 -0.5736  0.5477 -0.1600
   22SAPC  H20R 2917   3.697   4.192   8.645  1.1836 -1.2996 -0.7653
   22SAPC  H20S 2918   3.868   4.222   8.606 -0.5646  0.4147  0.0725
   22SAPC  H20T 2919   3.747   4.346   8.559 -1.6003  3.5029  2.7829
   22SAPC   C33 2920   3.625   3.556   9.559 -0.1880 -0.3684 -1.0749
   22SAPC   H3X 2921   3.580   3.463   9.600  2.8372 -1.9448 -0.9795
   22SAPC   H3Y 2922   3.736   3.545   9.569 -0.4184 -1.8224  0.2245
   22SAPC   C34 2923   3.596   3.559   9.410 -0.6054  0.0272  0.6317
   22SAPC   H4X 2924   3.654   3.644   9.367 -3.2293  2.1494  1.0734
   22SAPC   H4Y 2925   3.490   3.590   9.408 -0.8348 -0.7185  1.2048
   22SAPC   C35 2926   3.630   3.428   9.346 -0.3563 -0.2765 -0.5853
   22SAPC   H5X 2927   3.579   3.344   9.397 -0.9797  0.6979  0.4422
   22SAPC   H5Y 2928   3.734   3.406   9.379  0.5780  0.7824 -2.6148
   22SAPC   C36 2929   3.615   3.420   9.196 -0.2861  0.3970  0.6182
   22SAPC   H6X 2930   3.660   3.507   9.143  1.6780 -0.5575  0.6243
   22SAPC   H6Y 2931   3.504   3.425   9.192 -0.4211 -1.2558  1.5916
   22SAPC   C37 2932   3.682   3.296   9.141 -0.3035 -0.0981  0.2466
   22SAPC   H7X 2933   3.652   3.206   9.199  0.4312 -0.3870  0.1957
   22SAPC   H7Y 2934   3.792   3.306   9.156  0.4067 -3.2118 -1.9450
   22SAPC   C38 2935   3.660   3.285   8.992  0.1102 -0.2854 -0.3795
   22SAPC   H8X 2936   3.662   3.386   8.945 -0.4625  0.1970  0.6150
   22SAPC   H8Y 2937   3.557   3.247   8.973 -0.6431  0.4562  1.9227
   22SAPC   C39 2938   3.754   3.186   8.922  0.4086  0.0266  0.0414
   22SAPC   H9X 2939   3.748   3.086   8.970 -0.8996  0.6988  1.3197
   22SAPC   H9Y 2940   3.862   3.208   8.937  0.6431 -0.6559 -0.5596
   22SAPC  C310 2941   3.723   3.174   8.776  0.2777  0.3820 -0.1714
   22SAPC  H10X 2942   3.717   3.274   8.727 -0.7050 -0.7329 -2.5212
   22SAPC  H10Y 2943   3.621   3.131   8.772  0.7287 -0.7186 -0.2517
   22SAPC  C311 2944   3.813   3.080   8.694 -0.3411  0.5154 -0.1301
   22SAPC  H11X 2945   3.746   2.992   8.691 -1.0410  1.0604 -1.4217
   22SAPC  H11Y 2946   3.907   3.057   8.749  0.5261  0.4211 -1.5906
   22SAPC  C312 2947   3.859   3.143   8.558  0.3877  0.6857  0.3210
   22SAPC  H12X 2948   3.940   3.080   8.515 -0.1972 -0.4584  0.8573
   22SAPC  H12Y 2949   3.902   3.241   8.587  1.3125  0.5589 -0.5610
   22SAPC  C313 2950   3.743   3.154   8.459 -0.3639  0.2212  0.1182
   22SAPC  H13X 2951   3.757   3.241   8.390  0.5848 -0.0998 -0.1121
   22SAPC  H13Y 2952   3.648   3.169   8.514 -0.3695  0.7679 -0.0290
   22SAPC  C314 2953   3.726   3.024   8.381  0.8261 -0.4798  0.9797
   22SAPC  H14X 2954   3.723   2.940   8.454 -1.2508 -0.6959  0.6878
   22SAPC  H14Y 2955   3.810   3.000   8.312 -0.3179 -3.3673  0.4521
   22SAPC  C315 2956   3.609   3.045   8.279  0.5319  0.0415  0.1002
   22SAPC  H15X 2957   3.629   3.134   8.216 -2.0932 -0.5410 -1.7309
   22SAPC  H15Y 2958   3.511   3.065   8.326  0.1735 -0.1582 -0.5516
   22SAPC  C316 2959   3.598   2.926   8.186  0.1548  0.0617 -0.9456
   22SAPC  H16X 2960   3.593   2.839   8.255  1.1837  0.5465 -0.2302
   22SAPC  H16Y 2961   3.691   2.922   8.125  0.7220  2.1383 -0.3089
   22SAPC  C317 2962   3.482   2.945   8.091 -0.5270  0.4398 -0.2664
   22SAPC  H17X 2963   3.516   3.038   8.040  0.6103 -0.1765 -0.6652
   22SAPC  H17Y 2964   3.389   2.950   8.152  0.1322 -1.2818  0.9522
   22SAPC  C318 2965   3.458   2.830   7.997  0.0214  0.0822  0.3118
   22SAPC  H18X 2966   3.550   2.806   7.940  0.5159 -0.5576  1.3506
   22SAPC  H18Y 2967   3.384   2.857   7.919  0.0075 -0.4789  0.1257
   22SAPC  H18Z 2968   3.445   2.727   8.038  2.5347 -0.9010 -1.1177
   23SAPC     N 2969   5.785   5.183  10.105  0.6706  0.3022 -0.3161
   23SAPC   C12 2970   5.816   5.039  10.144 -0.2709  0.4014 -0.1500
   23SAPC  H12A 2971   5.730   4.993  10.191 -0.8626 -0.4254 -1.9421
   23SAPC  H12B 2972   5.898   5.026  10.212 -1.0885 -1.3438  0.5686
   23SAPC   C13 2973   5.895   5.240  10.020  0.6997  0.6608  0.1649
   23SAPC  H13A 2974   5.885   5.348  10.017 -1.7729  0.4586 -1.5770
   23SAPC  H13B 2975   5.991   5.231  10.068 -0.0637 -0.9188  1.4856
   23SAPC  H13C 2976   5.906   5.210   9.917 -0.1641  2.9107 -0.6386
   23SAPC   C14 2977   5.662   5.192  10.028 -1.1011 -0.0646 -0.0948
   23SAPC  H14A 2978   5.665   5.136   9.936  0.1649 -0.6744  0.2965
   23SAPC  H14B 2979   5.575   5.172  10.089 -0.5711  1.9032  1.4444
   23SAPC  H14C 2980   5.647   5.298  10.012  0.4335  0.3298  0.8728
   23SAPC   C15 2981   5.759   5.267  10.233 -0.1122 -0.5824  0.8833
   23SAPC  H15A 2982   5.679   5.225  10.293  0.5362 -2.7651  0.3357
   23SAPC  H15B 2983   5.845   5.284  10.297 -0.7530 -0.9014  1.8416
   23SAPC  H15C 2984   5.728   5.365  10.201  0.9053  0.0714  1.8339
   23SAPC   C11 2985   5.845   4.940  10.030 -1.3941  0.5206  0.0580
   23SAPC  H11A 2986   5.873   4.841  10.071 -2.3583 -0.0732 -0.6620
   23SAPC  H11B 2987   5.944   4.972   9.990 -1.1219 -0.1198  0.2211
   23SAPC     P 2988   5.648   4.810   9.918 -0.1016 -0.2524 -0.2112
   23SAPC   O13 2989   5.652   4.741  10.048  0.0218 -0.1245  0.8791
   23SAPC   O14 2990   5.517   4.866   9.887 -0.7856 -0.3062  0.1726
   23SAPC   O12 2991   5.747   4.930   9.925  0.0754  0.7022  1.2853
   23SAPC   O11 2992   5.702   4.713   9.809  0.0583 -0.2066 -0.2555
   23SAPC    C1 2993   5.790   4.759   9.706 -0.3342 -0.2595  0.2829
   23SAPC    HA 2994   5.880   4.815   9.741 -0.6101 -0.2778  1.0428
   23SAPC    HB 2995   5.830   4.679   9.640  1.6225  0.3991  0.5981
   23SAPC    C2 2996   5.717   4.853   9.603  0.3079 -0.1470  0.5072
   23SAPC    HS 2997   5.672   4.930   9.669 -0.4918 -1.0410  1.0157
   23SAPC   O21 2998   5.619   4.760   9.543  0.5543  0.2674 -0.3653
   23SAPC   C21 2999   5.506   4.819   9.500 -0.1500  0.4884  0.0880
   23SAPC   O22 3000   5.471   4.934   9.530 -1.0449  0.0347  0.4821
   23SAPC   C22 3001   5.429   4.706   9.429 -0.6933 -0.1186  0.4188
   23SAPC   H2R 3002   5.502   4.643   9.374 -1.8513 -1.2488  0.1324
   23SAPC   H2S 3003   5.391   4.637   9.507 -1.8013  1.0311  0.9284
   23SAPC    C3 3004   5.799   4.912   9.486  0.6446  0.1873  0.0179
   23SAPC    HX 3005   5.855   4.999   9.527  0.8757 -0.7812  1.8528
   23SAPC    HY 3006   5.735   4.954   9.405  1.2675 -0.7315 -0.9662
   23SAPC   O31 3007   5.887   4.808   9.432 -0.6183  0.2681 -0.4959
   23SAPC   C31 3008   5.834   4.746   9.323 -0.7879 -0.1481  0.1591
   23SAPC   O32 3009   5.732   4.782   9.268 -0.6048  0.2226  0.1565
   23SAPC   C32 3010   5.904   4.616   9.290  0.2925  0.3215 -0.0312
   23SAPC   H2X 3011   5.825   4.542   9.269  0.2033 -0.3144  2.2889
   23SAPC   H2Y 3012   5.959   4.586   9.382 -1.0612  0.1529  0.7514
   23SAPC   C23 3013   5.316   4.754   9.336 -0.2111 -0.6846 -0.4338
   23SAPC   H3R 3014   5.256   4.842   9.368  1.4794  0.4812 -0.3414
   23SAPC   H3S 3015   5.245   4.670   9.319 -0.2708 -0.2134 -2.8759
   23SAPC   C24 3016   5.373   4.789   9.195 -0.2398  0.6262 -1.0704
   23SAPC   H4R 3017   5.454   4.859   9.221  1.0578 -1.3766  0.6368
   23SAPC   H4S 3018   5.298   4.843   9.133 -2.9113 -0.4539  1.0109
   23SAPC   C25 3019   5.420   4.656   9.128 -0.8870 -0.2510  0.0943
   23SAPC   H5R 3020   5.507   4.613   9.180 -1.1275 -0.2163  0.5305
   23SAPC   C26 3021   5.372   4.604   9.016 -0.4150 -0.1069 -0.1054
   23SAPC   H6R 3022   5.411   4.509   8.976  1.7221  0.3260  0.7575
   23SAPC   C27 3023   5.249   4.669   8.945  0.0208  0.5201 -0.3867
   23SAPC   H7R 3024   5.244   4.778   8.967  1.2409  1.0487 -2.4439
   23SAPC   H7S 3025   5.161   4.610   8.975  0.9297 -1.8463 -2.0737
   23SAPC   C28 3026   5.277   4.656   8.797 -0.6450 -0.2348 -0.1335
   23SAPC   H8R 3027   5.338   4.739   8.757 -1.2026  0.4665  0.4487
   23SAPC   C29 3028   5.206   4.582   8.715  0.1053  0.6477  0.7342
   23SAPC   H9R 3029   5.231   4.585   8.608  3.4784 -0.2045  1.3821
   23SAPC  C210 3030   5.121   4.463   8.756  0.6101 -0.1827  0.1848
   23SAPC  H10R 3031   5.078   4.425   8.661 -0.3054 -1.7365  1.1851
   23SAPC  H10S 3032   5.045   4.520   8.815  1.5794  2.7942 -1.2413
   23SAPC  C211 3033   5.178   4.358   8.839 -0.2767 -0.1767  0.0754
   23SAPC  H11R 3034   5.155   4.359   8.946 -1.7045 -0.8872 -0.2070
   23SAPC  C212 3035   5.259   4.268   8.789 -0.4782 -0.2612 -0.1121
   23SAPC  H12R 3036   5.302   4.196   8.861  2.5438  2.1624  0.7321
   23SAPC  C213 3037   5.311   4.258   8.646  0.6125 -0.2389 -0.3621
   23SAPC  H13R 3038   5.325   4.360   8.606  0.4909 -0.5098 -1.1251
   23SAPC  H13S 3039   5.230   4.210   8.587 -0.4594  0.9910  0.0577
   23SAPC  C214 3040   5.439   4.192   8.619  0.5650  0.5399  0.4875
   23SAPC  H14R 3041   5.476   4.152   8.715 -0.2782 -0.0444  0.5721
   23SAPC  C215 3042   5.498   4.177   8.504 -0.7590  0.0767  0.8973
   23SAPC  H15R 3043   5.598   4.131   8.497  0.6233  2.9487  0.2744
   23SAPC  C216 3044   5.442   4.232   8.376  0.3968 -1.2920 -0.6474
   23SAPC  H16R 3045   5.342   4.279   8.392 -0.5389 -3.3876  0.0179
   23SAPC  H16S 3046   5.426   4.147   8.306 -0.7666 -0.5299 -1.3450
   23SAPC  C217 3047   5.525   4.329   8.291  0.3031 -0.1515  0.0429
   23SAPC  H17R 3048   5.532   4.429   8.339  0.5539 -0.3672  0.4617
   23SAPC  H17S 3049   5.469   4.339   8.195  0.4804 -0.5990 -0.1060
   23SAPC  C218 3050   5.658   4.261   8.249  0.4017  0.7055 -0.1339
   23SAPC  H18R 3051   5.646   4.174   8.181  2.5403  1.9894 -2.3150
   23SAPC  H18S 3052   5.714   4.240   8.343  1.1399  0.7079 -0.5677
   23SAPC  C219 3053   5.765   4.349   8.178 -0.1117  0.5460  0.4019
   23SAPC  H19R 3054   5.851   4.283   8.152 -1.4913 -0.9723 -0.4944
   23SAPC  H19S 3055   5.806   4.426   8.247  1.0939 -1.1484  1.6661
   23SAPC  C220 3056   5.729   4.399   8.036  0.3600 -0.1154 -0.4615
   23SAPC  H20R 3057   5.817   4.443   7.985  0.6158 -1.1312 -0.9119
   23SAPC  H20S 3058   5.648   4.475   8.037  0.9101  0.5449 -2.0485
   23SAPC  H20T 3059   5.699   4.311   7.975 -0.8684 -1.2210  1.6367
   23SAPC   C33 3060   6.003   4.630   9.172 -0.0048 -0.0401 -0.9133
   23SAPC   H3X 3061   6.087   4.687   9.217 -1.1957 -0.9895  2.9826
   23SAPC   H3Y 3062   5.959   4.671   9.079  1.3775 -1.5321 -2.2884
   23SAPC   C34 3063   6.062   4.496   9.124 -0.0919 -0.4943 -0.2459
   23SAPC   H4X 3064   5.971   4.440   9.095 -1.6144  2.0692 -0.6380
   23SAPC   H4Y 3065   6.123   4.455   9.207  1.4946  1.9407 -0.1098
   23SAPC   C35 3066   6.170   4.514   9.014  1.1445  0.8074  0.5632
   23SAPC   H5X 3067   6.231   4.421   9.005  0.8960  0.5678  1.3421
   23SAPC   H5Y 3068   6.232   4.598   9.050  2.6471  0.4092 -0.9655
   23SAPC   C36 3069   6.118   4.526   8.865  0.0044  0.2443 -0.4505
   23SAPC   H6X 3070   6.036   4.601   8.872  0.4293  0.6361  0.4388
   23SAPC   H6Y 3071   6.073   4.431   8.827  0.6318 -0.7815  1.2718
   23SAPC   C37 3072   6.226   4.580   8.776  0.3098 -0.3670 -0.0018
   23SAPC   H7X 3073   6.319   4.524   8.801 -0.0547 -1.6731 -1.4462
   23SAPC   H7Y 3074   6.253   4.686   8.791  0.8726 -0.4221 -0.5919
   23SAPC   C38 3075   6.199   4.574   8.624 -0.1849  0.2025  0.0495
   23SAPC   H8X 3076   6.112   4.634   8.593  0.0622 -1.1171 -3.8067
   23SAPC   H8Y 3077   6.172   4.474   8.583  0.4026  1.1296 -2.7946
   23SAPC   C39 3078   6.317   4.619   8.534  0.0236 -0.1929  0.5369
   23SAPC   H9X 3079   6.412   4.581   8.579  1.9489 -2.2628 -4.5535
   23SAPC   H9Y 3080   6.329   4.729   8.538 -0.2427  0.0353 -2.6050
   23SAPC  C310 3081   6.283   4.598   8.384 -0.7451 -0.1670 -0.0250
   23SAPC  H10X 3082   6.184   4.639   8.353 -0.5515 -0.5256 -1.1739
   23SAPC  H10Y 3083   6.262   4.495   8.347 -0.8977  0.2562 -1.1906
   23SAPC  C311 3084   6.396   4.654   8.290  0.0375  0.5340 -0.1456
   23SAPC  H11X 3085   6.490   4.605   8.324 -0.0836  1.6321  1.9407
   23SAPC  H11Y 3086   6.393   4.762   8.316 -0.1520  0.5664 -0.3071
   23SAPC  C312 3087   6.371   4.634   8.141  0.6451  0.1970  0.2197
   23SAPC  H12X 3088   6.268   4.661   8.109  0.5748 -0.1899  0.1165
   23SAPC  H12Y 3089   6.386   4.531   8.105  0.3335  0.6327 -1.2019
   23SAPC  C313 3090   6.480   4.719   8.073  0.1206  0.0401 -0.3309
   23SAPC  H13X 3091   6.492   4.686   7.967 -0.4557 -1.1955 -0.0441
   23SAPC  H13Y 3092   6.569   4.690   8.132  0.3589  0.5046 -0.4660
   23SAPC  C314 3093   6.452   4.865   8.060  0.1528 -0.2598 -0.0421
   23SAPC  H14X 3094   6.552   4.908   8.041  0.4112  0.0860  1.8833
   23SAPC  H14Y 3095   6.411   4.901   8.157 -4.3554 -3.2339 -0.5238
   23SAPC  C315 3096   6.331   4.884   7.967 -0.2809 -0.3441  0.1703
   23SAPC  H15X 3097   6.237   4.840   8.007  0.0336 -2.3304 -1.1333
   23SAPC  H15Y 3098   6.354   4.815   7.883  1.7042 -0.5623  0.8544
   23SAPC  C316 3099   6.298   5.026   7.921  0.5360  0.3091 -0.6710
   23SAPC  H16X 3100   6.201   5.035   7.867 -0.5229  3.3774  1.4757
   23SAPC  H16Y 3101   6.377   5.059   7.850  1.9521  3.8045  2.2044
   23SAPC  C317 3102   6.303   5.130   8.033 -0.3670  0.0624 -0.3601
   23SAPC  H17X 3103   6.403   5.132   8.083  0.0180 -0.8322 -1.0615
   23SAPC  H17Y 3104   6.238   5.104   8.119  0.8641 -0.6148  0.3989
   23SAPC  C318 3105   6.290   5.278   7.990  0.0250  0.9346  0.2803
   23SAPC  H18X 3106   6.188   5.309   7.958  0.1582  2.5632  1.3217
   23SAPC  H18Y 3107   6.357   5.298   7.904  1.7253  2.2727  1.8451
   23SAPC  H18Z 3108   6.309   5.355   8.068 -0.9614  1.1978  0.2756
   24SAPC     N 3109   1.101   0.576  10.419  0.6813 -0.3973 -0.6322
   24SAPC   C12 3110   1.030   0.615  10.289  0.5693  0.1608 -0.0788
   24SAPC  H12A 3111   1.080   0.699  10.244 -0.8969  1.6433  0.9580
   24SAPC  H12B 3112   0.925   0.633  10.307  0.8533  2.5415 -0.4480
   24SAPC   C13 3113   1.082   0.435  10.441  0.4030 -0.3136  0.4975
   24SAPC  H13A 3114   0.982   0.413  10.477 -0.4339  1.7008 -0.4798
   24SAPC  H13B 3115   1.098   0.382  10.349 -0.6059  4.5245 -2.8050
   24SAPC  H13C 3116   1.138   0.410  10.530 -1.4072 -0.9047  1.5232
   24SAPC   C14 3117   1.250   0.577  10.396 -0.6043 -0.1208  0.7527
   24SAPC  H14A 3118   1.285   0.666  10.345 -0.9120 -1.4453 -1.9424
   24SAPC  H14B 3119   1.307   0.567  10.486 -0.3448 -2.8682  0.3534
   24SAPC  H14C 3120   1.278   0.500  10.326 -1.1835  1.2526 -1.1072
   24SAPC   C15 3121   1.067   0.664  10.534  0.0060 -0.1178 -0.3011
   24SAPC  H15A 3122   0.960   0.671  10.549 -0.5322 -1.2701 -2.9800
   24SAPC  H15B 3123   1.124   0.638  10.622  2.0312  1.7425 -0.9768
   24SAPC  H15C 3124   1.106   0.762  10.508 -1.0611  0.3394 -0.2273
   24SAPC   C11 3125   1.031   0.509  10.172  0.0942  0.4588  1.1666
   24SAPC  H11A 3126   0.956   0.544  10.099 -0.3827 -0.9605  0.9515
   24SAPC  H11B 3127   0.991   0.414  10.213  2.1830 -0.5266  1.0439
   24SAPC     P 3128   1.221   0.571  10.009  0.1552 -0.5317 -0.1501
   24SAPC   O13 3129   1.203   0.713  10.050 -0.0048  0.2369  0.2971
   24SAPC   O14 3130   1.362   0.526   9.991  0.0199  0.2247  0.4749
   24SAPC   O12 3131   1.158   0.482  10.119 -0.0734  0.2589  0.0345
   24SAPC   O11 3132   1.129   0.552   9.883  0.4451  0.1945 -0.1045
   24SAPC    C1 3133   1.076   0.434   9.828  0.0380 -0.1894 -0.0038
   24SAPC    HA 3134   1.141   0.396   9.746 -1.4701 -1.2581 -0.7581
   24SAPC    HB 3135   1.070   0.348   9.897  0.9093 -0.9451 -0.8360
   24SAPC    C2 3136   0.940   0.468   9.761  0.3072  0.6273  0.4843
   24SAPC    HS 3137   0.900   0.377   9.711  0.6182 -0.0299  1.4085
   24SAPC   O21 3138   0.960   0.580   9.677 -0.5844 -0.5805  0.7549
   24SAPC   C21 3139   0.983   0.550   9.553  0.4937  0.6373  0.4046
   24SAPC   O22 3140   0.986   0.438   9.509 -0.0397  0.4803  0.5346
   24SAPC   C22 3141   1.025   0.670   9.474  0.5655 -0.0270  0.3997
   24SAPC   H2R 3142   1.083   0.728   9.548  0.9478  1.9353 -1.3335
   24SAPC   H2S 3143   1.083   0.628   9.389 -0.2648  2.0524 -1.3185
   24SAPC    C3 3144   0.844   0.496   9.872  0.0974  0.0824  0.0426
   24SAPC    HX 3145   0.842   0.597   9.919 -1.0090 -0.1649  0.5640
   24SAPC    HY 3146   0.856   0.422   9.953 -2.8653  0.7670  1.2392
   24SAPC   O31 3147   0.707   0.467   9.825  0.2904  0.1443 -0.9009
   24SAPC   C31 3148   0.643   0.562   9.756  0.2087 -0.2387 -0.7213
   24SAPC   O32 3149   0.683   0.673   9.743 -0.2363 -0.3037 -0.3615
   24SAPC   C32 3150   0.502   0.518   9.726 -0.8714 -0.5811 -0.4416
   24SAPC   H2X 3151   0.452   0.614   9.701 -1.4864 -0.2580  1.8856
   24SAPC   H2Y 3152   0.455   0.468   9.813 -1.7700 -0.4044 -0.8156
   24SAPC   C23 3153   0.895   0.733   9.430  0.6861 -0.2352  0.0588
   24SAPC   H3R 3154   0.909   0.843   9.422 -0.7961  0.1430  1.9242
   24SAPC   H3S 3155   0.814   0.716   9.504 -0.3913  0.3266 -0.9451
   24SAPC   C24 3156   0.844   0.687   9.296 -0.3101 -0.0628 -0.2761
   24SAPC   H4R 3157   0.733   0.691   9.302 -0.6662 -4.9918  1.2047
   24SAPC   H4S 3158   0.873   0.580   9.291 -0.7098 -0.1431 -4.5096
   24SAPC   C25 3159   0.902   0.758   9.173  0.5400 -0.2162 -0.1074
   24SAPC   H5R 3160   1.011   0.748   9.176  0.4335 -1.1563  1.4179
   24SAPC   C26 3161   0.843   0.823   9.071  0.3238 -0.0752  0.3480
   24SAPC   H6R 3162   0.908   0.861   8.992  2.3096 -0.6136  1.6524
   24SAPC   C27 3163   0.687   0.833   9.050 -0.5307 -0.1547 -0.3218
   24SAPC   H7R 3164   0.634   0.818   9.146 -1.5996  1.0145 -0.6931
   24SAPC   H7S 3165   0.654   0.753   8.980  0.5887 -0.2561 -0.7625
   24SAPC   C28 3166   0.652   0.972   9.002  0.3035  0.3008  0.4048
   24SAPC   H8R 3167   0.602   1.034   9.078 -0.0418  1.2875 -0.5984
   24SAPC   C29 3168   0.684   1.022   8.880  0.4989 -0.5706  0.0493
   24SAPC   H9R 3169   0.649   1.122   8.853 -0.4211 -0.9979 -0.3719
   24SAPC  C210 3170   0.762   0.945   8.781 -0.2556 -0.2831  0.0717
   24SAPC  H10R 3171   0.695   0.930   8.693 -1.4587  0.6642  0.7790
   24SAPC  H10S 3172   0.772   0.839   8.810 -1.5643 -0.2112  0.8609
   24SAPC  C211 3173   0.899   1.004   8.749  0.7598 -0.0755  0.7911
   24SAPC  H11R 3174   0.974   0.970   8.821  0.1140 -2.2092  0.5338
   24SAPC  C212 3175   0.922   1.084   8.641  0.3413 -0.1985  0.0043
   24SAPC  H12R 3176   1.026   1.120   8.632 -0.2358  1.1495 -2.3173
   24SAPC  C213 3177   0.817   1.123   8.540 -0.4880  0.2293 -0.0655
   24SAPC  H13R 3178   0.796   1.231   8.553  1.8617  0.5878  1.3806
   24SAPC  H13S 3179   0.718   1.073   8.545 -1.4566  1.9327 -1.3473
   24SAPC  C214 3180   0.879   1.099   8.402 -0.4090 -0.4415  0.3096
   24SAPC  H14R 3181   0.914   1.185   8.343  0.0320  0.7752  2.2574
   24SAPC  C215 3182   0.894   0.977   8.339  0.5657  0.4658  0.3717
   24SAPC  H15R 3183   0.931   0.964   8.237 -0.5102  0.0035  0.0234
   24SAPC  C216 3184   0.866   0.837   8.402 -0.5328 -0.1620  0.1609
   24SAPC  H16R 3185   0.767   0.834   8.452 -0.4127  2.2184  0.6411
   24SAPC  H16S 3186   0.941   0.808   8.479 -1.2232  1.2808  1.4199
   24SAPC  C217 3187   0.876   0.721   8.294 -0.1192  0.1441  0.6548
   24SAPC  H17R 3188   0.790   0.737   8.226  1.7409  1.8110 -1.4523
   24SAPC  H17S 3189   0.865   0.626   8.351 -1.4334  0.0211  0.2203
   24SAPC  C218 3190   1.001   0.717   8.217 -0.2496  0.0123  0.1834
   24SAPC  H18R 3191   1.082   0.738   8.290 -2.3156  1.4342  2.2090
   24SAPC  H18S 3192   1.002   0.788   8.132  0.0809  1.0472  1.0199
   24SAPC  C219 3193   1.023   0.571   8.161 -0.5691 -0.8429 -0.3423
   24SAPC  H19R 3194   0.934   0.548   8.098 -1.6395  0.1280  0.7695
   24SAPC  H19S 3195   1.027   0.508   8.252 -0.1785 -0.2042  0.0926
   24SAPC  C220 3196   1.153   0.554   8.084 -0.1303  0.3961 -0.7611
   24SAPC  H20R 3197   1.239   0.580   8.149  0.2286  0.9594 -1.4461
   24SAPC  H20S 3198   1.167   0.633   8.007  1.1871 -0.0006 -0.9465
   24SAPC  H20T 3199   1.166   0.451   8.044 -1.2372 -0.9769  2.1315
   24SAPC   C33 3200   0.495   0.423   9.606  0.2699 -0.0127  0.2005
   24SAPC   H3X 3201   0.385   0.419   9.590  0.2155 -1.2689  0.7510
   24SAPC   H3Y 3202   0.532   0.324   9.640 -2.9213 -1.6456 -0.6640
   24SAPC   C34 3203   0.566   0.461   9.474  0.5783 -0.2331 -0.8446
   24SAPC   H4X 3204   0.675   0.479   9.479  0.0747  3.4811  0.0173
   24SAPC   H4Y 3205   0.536   0.565   9.448  0.2804 -0.0825  0.0695
   24SAPC   C35 3206   0.513   0.372   9.352 -0.2274 -0.0932  0.7132
   24SAPC   H5X 3207   0.420   0.319   9.384  0.9850 -1.4857  2.0730
   24SAPC   H5Y 3208   0.587   0.293   9.324 -0.7715  0.1663 -1.6847
   24SAPC   C36 3209   0.493   0.433   9.205 -0.2527  0.1993 -0.2118
   24SAPC   H6X 3210   0.578   0.499   9.176 -0.3033  0.6640  0.6608
   24SAPC   H6Y 3211   0.412   0.507   9.222 -0.5765 -0.3640  0.7658
   24SAPC   C37 3212   0.455   0.334   9.095  0.4220  0.0653 -0.0310
   24SAPC   H7X 3213   0.357   0.293   9.124  1.4687 -1.5608  1.4154
   24SAPC   H7Y 3214   0.533   0.255   9.101  0.3311  0.0439  0.8801
   24SAPC   C38 3215   0.446   0.409   8.953 -0.6405  0.6425 -0.2478
   24SAPC   H8X 3216   0.384   0.501   8.963 -1.4894  0.4286 -2.9063
   24SAPC   H8Y 3217   0.395   0.349   8.876  0.4612  3.6724 -3.6299
   24SAPC   C39 3218   0.590   0.455   8.922  0.4423 -0.1706 -0.2915
   24SAPC   H9X 3219   0.650   0.362   8.928  1.5836  0.3972 -2.0875
   24SAPC   H9Y 3220   0.630   0.529   8.993  0.2234  0.2160 -0.5690
   24SAPC  C310 3221   0.597   0.505   8.769 -0.4386  0.7865 -0.1685
   24SAPC  H10X 3222   0.580   0.423   8.697 -0.6111  0.2687  0.4497
   24SAPC  H10Y 3223   0.704   0.530   8.756  0.8236 -2.5898  2.2877
   24SAPC  C311 3224   0.513   0.626   8.730  0.0218  0.6315 -0.5109
   24SAPC  H11X 3225   0.528   0.702   8.810 -2.7333 -1.5199  2.3298
   24SAPC  H11Y 3226   0.409   0.592   8.749  0.8059 -0.9242  1.3063
   24SAPC  C312 3227   0.547   0.668   8.588  0.6740 -0.1722  0.1580
   24SAPC  H12X 3228   0.520   0.597   8.508 -0.3586  0.1412  0.2111
   24SAPC  H12Y 3229   0.653   0.702   8.585  0.3244  1.0882  0.9279
   24SAPC  C313 3230   0.459   0.794   8.556 -0.7024  0.1901 -0.0033
   24SAPC  H13X 3231   0.499   0.883   8.609 -1.7892  0.4040  0.4809
   24SAPC  H13Y 3232   0.362   0.763   8.600 -0.1373 -0.6959  0.6396
   24SAPC  C314 3233   0.452   0.834   8.410  0.5472 -0.0818  0.4140
   24SAPC  H14X 3234   0.431   0.744   8.348 -0.5556  1.1694 -1.1250
   24SAPC  H14Y 3235   0.548   0.883   8.379  0.8245 -0.9413 -0.1182
   24SAPC  C315 3236   0.348   0.944   8.382 -0.3820 -0.4028  0.0788
   24SAPC  H15X 3237   0.251   0.905   8.418  0.3590 -0.8808  1.6440
   24SAPC  H15Y 3238   0.330   0.951   8.273  0.3881 -2.0270 -0.1906
   24SAPC  C316 3239   0.392   1.083   8.436  0.6714 -0.4564 -0.0824
   24SAPC  H16X 3240   0.489   1.121   8.398  1.5732 -0.8903  1.6727
   24SAPC  H16Y 3241   0.387   1.080   8.547 -0.4478  4.7785  0.2341
   24SAPC  C317 3242   0.279   1.190   8.400 -0.3340  0.6035  0.6249
   24SAPC  H17X 3243   0.291   1.283   8.459  1.4137  0.9800 -0.2450
   24SAPC  H17Y 3244   0.182   1.144   8.429  0.3572  0.0754  2.2364
   24SAPC  C318 3245   0.277   1.241   8.249  0.6015 -0.5513 -0.6620
   24SAPC  H18X 3246   0.229   1.161   8.187 -2.2295 -0.2716  0.9893
   24SAPC  H18Y 3247   0.380   1.274   8.223 -0.1775  1.4985 -1.3986
   24SAPC  H18Z 3248   0.210   1.329   8.238 -1.3109 -2.0577 -1.8800
   25SAPC     N 3249   5.213   5.299   5.929 -0.0534 -0.1422 -0.2063
   25SAPC   C12 3250   5.114   5.290   6.038  0.6751  0.5001  0.0832
   25SAPC  H12A 3251   5.088   5.185   6.047  2.5425 -0.1336 -1.2310
   25SAPC  H12B 3252   5.023   5.344   6.018  1.6976  2.3267  0.1262
   25SAPC   C13 3253   5.225   5.442   5.886  0.0477  0.3237  0.2575
   25SAPC  H13A 3254   5.302   5.472   5.817 -1.6713  1.3630 -1.2927
   25SAPC  H13B 3255   5.134   5.470   5.835  0.5049  2.1402  0.3919
   25SAPC  H13C 3256   5.246   5.497   5.976  4.3939  0.1278 -0.4598
   25SAPC   C14 3257   5.355   5.270   5.977 -0.1323  0.2292  0.5668
   25SAPC  H14A 3258   5.355   5.169   6.014  0.9517  0.2135  0.5373
   25SAPC  H14B 3259   5.424   5.293   5.897 -1.9028 -2.6355 -2.0023
   25SAPC  H14C 3260   5.383   5.338   6.056  2.5689 -0.3313  0.1910
   25SAPC   C15 3261   5.173   5.219   5.809  0.3509  0.1594  0.5373
   25SAPC  H15A 3262   5.126   5.126   5.833 -0.7702  0.1205 -1.5781
   25SAPC  H15B 3263   5.102   5.269   5.745  1.0253  0.0895 -0.2990
   25SAPC  H15C 3264   5.257   5.186   5.749 -1.5060 -1.1494 -1.4747
   25SAPC   C11 3265   5.154   5.346   6.174 -0.6283 -0.1996  0.0568
   25SAPC  H11A 3266   5.247   5.292   6.200 -0.9393 -1.2319 -0.8728
   25SAPC  H11B 3267   5.085   5.316   6.256 -4.1243 -0.5216 -2.7299
   25SAPC     P 3268   5.050   5.587   6.206  0.5716  0.2922 -0.2266
   25SAPC   O13 3269   5.105   5.718   6.240  0.5177  0.3854 -0.1234
   25SAPC   O14 3270   4.947   5.580   6.098 -0.2684  0.1151  0.6276
   25SAPC   O12 3271   5.175   5.487   6.174 -0.0353 -0.4228 -0.1917
   25SAPC   O11 3272   4.979   5.536   6.330  0.2223 -0.0829 -0.1473
   25SAPC    C1 3273   5.041   5.487   6.455  0.4221 -0.1310 -0.0693
   25SAPC    HA 3274   4.988   5.397   6.493  2.5419 -0.9845  1.0210
   25SAPC    HB 3275   5.149   5.463   6.441  0.5724 -0.0368  0.8798
   25SAPC    C2 3276   5.041   5.603   6.557  1.0874  0.1934  0.2848
   25SAPC    HS 3277   5.071   5.696   6.504  0.4416  0.1769 -0.1155
   25SAPC   O21 3278   5.141   5.571   6.649 -0.2748  0.4061 -0.7041
   25SAPC   C21 3279   5.178   5.666   6.740  0.4708 -0.3104 -0.0812
   25SAPC   O22 3280   5.137   5.782   6.731  0.5023  0.2810  0.4647
   25SAPC   C22 3281   5.272   5.604   6.847  0.1264 -0.2894 -0.2257
   25SAPC   H2R 3282   5.262   5.494   6.838  0.4340 -0.3184 -0.2244
   25SAPC   H2S 3283   5.373   5.639   6.818  1.0146 -1.9214  0.7492
   25SAPC    C3 3284   4.888   5.630   6.606  0.3814 -0.3620 -0.9006
   25SAPC    HX 3285   4.849   5.534   6.646  0.5618  0.0960  0.4171
   25SAPC    HY 3286   4.819   5.660   6.524 -0.0645 -3.0456 -1.5913
   25SAPC   O31 3287   4.879   5.708   6.722  0.2636  0.1382 -0.0358
   25SAPC   C31 3288   4.851   5.838   6.703  0.7460 -0.1873 -0.1081
   25SAPC   O32 3289   4.836   5.892   6.594 -0.1445 -1.4084 -0.1294
   25SAPC   C32 3290   4.843   5.911   6.839 -0.2412  0.4022 -0.4132
   25SAPC   H2X 3291   4.902   5.851   6.911 -1.5023 -0.3697  0.0052
   25SAPC   H2Y 3292   4.736   5.920   6.870 -0.8486 -3.0232 -1.1660
   25SAPC   C23 3293   5.233   5.660   6.991  0.7316 -0.0774  0.1555
   25SAPC   H3R 3294   5.241   5.771   6.996 -3.7684  0.4445  0.1048
   25SAPC   H3S 3295   5.314   5.618   7.054  2.3884 -0.5838 -2.1720
   25SAPC   C24 3296   5.094   5.615   7.029  0.0911 -0.8555  0.3930
   25SAPC   H4R 3297   5.053   5.541   6.957  0.3437 -0.9936  0.3918
   25SAPC   H4S 3298   5.037   5.708   7.005  2.6092  0.8407  0.5606
   25SAPC   C25 3299   5.080   5.583   7.173  0.6620  0.4609 -0.8850
   25SAPC   H5R 3300   5.130   5.490   7.204  0.7025  0.5757 -0.6006
   25SAPC   C26 3301   5.004   5.644   7.265  0.0138 -0.1621 -0.4771
   25SAPC   H6R 3302   5.033   5.618   7.368 -1.0937  0.3156 -0.0230
   25SAPC   C27 3303   4.921   5.766   7.248  0.2956  0.1206  0.0045
   25SAPC   H7R 3304   4.822   5.730   7.284  0.1700 -2.0147 -2.2538
   25SAPC   H7S 3305   4.908   5.772   7.138  0.1056 -0.6361 -0.0187
   25SAPC   C28 3306   4.971   5.901   7.305 -0.2243  0.2776  0.5135
   25SAPC   H8R 3307   5.017   5.959   7.224 -3.5080  1.6060 -0.5751
   25SAPC   C29 3308   4.978   5.944   7.432  0.2219  0.0509 -0.1088
   25SAPC   H9R 3309   5.029   6.039   7.450 -1.4010  1.5144 -2.5812
   25SAPC  C210 3310   4.902   5.877   7.539  0.0857 -0.0378  0.3146
   25SAPC  H10R 3311   4.956   5.787   7.577  2.2557  1.6957  1.6752
   25SAPC  H10S 3312   4.803   5.838   7.508 -0.8030  1.4836  1.1350
   25SAPC  C211 3313   4.878   5.978   7.649 -0.3014  0.8108 -0.0244
   25SAPC  H11R 3314   4.857   6.079   7.613 -0.2948  0.9411  0.3326
   25SAPC  C212 3315   4.878   5.953   7.783 -0.1907  0.0904  0.3500
   25SAPC  H12R 3316   4.866   6.039   7.850 -0.1942 -0.7711  1.4959
   25SAPC  C213 3317   4.908   5.827   7.864 -0.4920 -0.1811  0.8390
   25SAPC  H13R 3318   5.004   5.830   7.919  0.9551  3.5109 -1.5122
   25SAPC  H13S 3319   4.910   5.743   7.791 -2.0730  1.8436 -1.6734
   25SAPC  C214 3320   4.795   5.803   7.965 -0.6626  0.3288 -0.4636
   25SAPC  H14R 3321   4.723   5.721   7.950  1.1555 -1.5421  0.4199
   25SAPC  C215 3322   4.798   5.861   8.086 -1.0793 -0.4108 -0.1380
   25SAPC  H15R 3323   4.718   5.842   8.160 -0.1177  1.6370  1.5272
   25SAPC  C216 3324   4.902   5.959   8.149 -0.0321 -0.1597  0.5624
   25SAPC  H16R 3325   4.990   5.983   8.085 -0.7795 -0.1151 -0.4707
   25SAPC  H16S 3326   4.955   5.915   8.235  0.0528 -2.0965 -0.4245
   25SAPC  C217 3327   4.837   6.087   8.198  0.1600  0.4391 -0.1446
   25SAPC  H17R 3328   4.746   6.071   8.259  0.2064 -1.4789 -0.5144
   25SAPC  H17S 3329   4.795   6.149   8.116  1.0367 -2.5470 -3.0514
   25SAPC  C218 3330   4.941   6.167   8.274 -0.0028  0.3442  0.0634
   25SAPC  H18R 3331   4.896   6.267   8.287  0.7710  0.8205 -0.8673
   25SAPC  H18S 3332   5.034   6.192   8.220  0.8196 -2.1245  0.1977
   25SAPC  C219 3333   4.971   6.105   8.407 -0.4723 -0.1762  0.5771
   25SAPC  H19R 3334   5.063   6.046   8.388  1.4863  2.8240 -0.1083
   25SAPC  H19S 3335   4.893   6.030   8.429  0.6921 -1.4720  0.4120
   25SAPC  C220 3336   5.002   6.188   8.527  1.1096 -0.5993 -0.8544
   25SAPC  H20R 3337   5.021   6.111   8.606 -1.1492 -1.2059 -0.8283
   25SAPC  H20S 3338   4.920   6.254   8.561  2.8513  0.9642  0.5491
   25SAPC  H20T 3339   5.090   6.252   8.503 -0.2283  0.1830 -4.1586
   25SAPC   C33 3340   4.912   6.044   6.836  0.4602 -0.7767  0.1793
   25SAPC   H3X 3341   4.855   6.116   6.774 -1.1735 -0.2139  2.2481
   25SAPC   H3Y 3342   5.014   6.034   6.793  1.1005 -1.1278  1.7191
   25SAPC   C34 3343   4.916   6.117   6.969  0.7628  0.6026 -0.9874
   25SAPC   H4X 3344   4.980   6.207   6.981 -1.1693  1.8797  0.2906
   25SAPC   H4Y 3345   4.939   6.045   7.051 -4.2986  1.4775  1.5880
   25SAPC   C35 3346   4.775   6.168   7.008 -0.4889 -0.0771  0.1128
   25SAPC   H5X 3347   4.713   6.084   7.047  0.1386 -1.6596 -2.1224
   25SAPC   H5Y 3348   4.726   6.207   6.916 -0.4084 -2.7510 -1.1490
   25SAPC   C36 3349   4.806   6.264   7.122  0.0907 -0.1593 -0.2441
   25SAPC   H6X 3350   4.842   6.362   7.085 -3.9920  0.6652 -2.6695
   25SAPC   H6Y 3351   4.878   6.212   7.189  0.7382  0.8961 -0.0959
   25SAPC   C37 3352   4.676   6.295   7.193  0.2799  0.3265 -0.0450
   25SAPC   H7X 3353   4.625   6.197   7.210  1.3724 -0.3466 -0.5444
   25SAPC   H7Y 3354   4.610   6.348   7.121 -0.2804 -0.5772 -0.2174
   25SAPC   C38 3355   4.686   6.365   7.329  0.5877 -0.7854 -0.4408
   25SAPC   H8X 3356   4.582   6.363   7.367  0.6832 -2.6632 -0.1992
   25SAPC   H8Y 3357   4.718   6.471   7.319  0.9672 -0.8065  0.4154
   25SAPC   C39 3358   4.766   6.296   7.436 -0.1327 -0.0508 -0.0563
   25SAPC   H9X 3359   4.867   6.285   7.389 -0.9985 -1.7612 -1.6491
   25SAPC   H9Y 3360   4.734   6.193   7.460  1.4278 -0.9837 -1.7219
   25SAPC  C310 3361   4.790   6.381   7.560 -0.2834  0.1072 -0.5810
   25SAPC  H10X 3362   4.839   6.477   7.531 -0.5670 -0.2677 -2.4216
   25SAPC  H10Y 3363   4.863   6.323   7.622 -0.1003  2.7157  1.8445
   25SAPC  C311 3364   4.669   6.392   7.651 -0.5251 -0.3954  0.1722
   25SAPC  H11X 3365   4.589   6.440   7.590 -0.7979 -0.2060  0.6698
   25SAPC  H11Y 3366   4.684   6.457   7.740 -2.6214 -0.9915  1.0360
   25SAPC  C312 3367   4.624   6.254   7.704 -1.0031 -0.0840 -0.0780
   25SAPC  H12X 3368   4.709   6.221   7.767  0.9474  2.8026 -0.9564
   25SAPC  H12Y 3369   4.618   6.181   7.620 -0.6733  2.7503 -2.7509
   25SAPC  C313 3370   4.494   6.247   7.795  0.2130 -0.5108 -0.0324
   25SAPC  H13X 3371   4.408   6.271   7.728 -1.1444 -1.9644  1.0898
   25SAPC  H13Y 3372   4.493   6.327   7.872  0.4796 -0.2001 -0.3534
   25SAPC  C314 3373   4.491   6.100   7.841  0.3820  0.0254 -0.3527
   25SAPC  H14X 3374   4.557   6.091   7.931 -3.2393  3.4148  3.0283
   25SAPC  H14Y 3375   4.535   6.042   7.757  1.0568  0.5124 -0.3452
   25SAPC  C315 3376   4.349   6.039   7.865  0.0971  0.0694 -0.3270
   25SAPC  H15X 3377   4.276   6.062   7.784 -1.4820  0.8385  1.2454
   25SAPC  H15Y 3378   4.304   6.094   7.950  0.1669  0.5474 -0.5898
   25SAPC  C316 3379   4.344   5.884   7.888  0.5163 -0.2965  0.2327
   25SAPC  H16X 3380   4.377   5.819   7.803 -0.1647 -1.7523  1.0393
   25SAPC  H16Y 3381   4.235   5.860   7.893 -0.0614  2.2569  0.8262
   25SAPC  C317 3382   4.420   5.829   8.007 -1.0592  0.1736 -0.8961
   25SAPC  H17X 3383   4.528   5.839   7.984 -1.0959  4.6739 -0.1040
   25SAPC  H17Y 3384   4.395   5.722   8.020  1.6490 -0.5258 -0.8499
   25SAPC  C318 3385   4.390   5.911   8.134 -0.2410  0.5445 -0.2286
   25SAPC  H18X 3386   4.444   6.006   8.154  0.2768  0.1227  0.4268
   25SAPC  H18Y 3387   4.422   5.853   8.224  1.5942  4.7239  2.1116
   25SAPC  H18Z 3388   4.281   5.930   8.142 -0.1878  0.7661  0.0063
   26SAPC     N 3389   5.948   3.051   6.022 -0.2163  0.1961 -0.4867
   26SAPC   C12 3390   5.836   2.954   5.977 -0.3140 -0.3406 -0.8437
   26SAPC  H12A 3391   5.757   3.024   5.955  0.8651  1.8161  1.3098
   26SAPC  H12B 3392   5.794   2.903   6.063  1.2461  0.7605  0.6373
   26SAPC   C13 3393   5.899   3.120   6.144 -0.0783 -0.1520 -0.3398
   26SAPC  H13A 3394   5.958   3.208   6.166  1.0502  0.0666 -3.7287
   26SAPC  H13B 3395   5.798   3.158   6.147  0.4879  1.3912 -0.0474
   26SAPC  H13C 3396   5.898   3.054   6.230 -0.3183 -0.7592 -0.7956
   26SAPC   C14 3397   6.071   2.973   6.059 -0.6782 -0.2672  0.1432
   26SAPC  H14A 3398   6.105   2.911   5.978  1.0108 -1.1819  1.5039
   26SAPC  H14B 3399   6.150   3.034   6.099 -0.7450 -0.5092  0.6491
   26SAPC  H14C 3400   6.047   2.898   6.132  0.7439 -0.3524  0.5492
   26SAPC   C15 3401   5.982   3.150   5.914 -0.1202  0.0037  0.1770
   26SAPC  H15A 3402   6.077   3.200   5.920 -2.2632  4.7922 -1.2080
   26SAPC  H15B 3403   5.994   3.097   5.821  2.0870  0.7775 -0.0415
   26SAPC  H15C 3404   5.902   3.222   5.908 -2.0553 -1.9120  1.4879
   26SAPC   C11 3405   5.871   2.855   5.866  0.1603  0.3324  0.3477
   26SAPC  H11A 3406   5.930   2.906   5.787  1.0682 -0.6154  0.3975
   26SAPC  H11B 3407   5.783   2.819   5.809 -0.3388  0.8566  0.7745
   26SAPC     P 3408   5.916   2.646   6.012  0.2911 -0.2816  0.1875
   26SAPC   O13 3409   5.900   2.509   5.955  0.2581 -0.1933  0.0073
   26SAPC   O14 3410   6.005   2.665   6.125 -0.2923 -0.4271  0.3059
   26SAPC   O12 3411   5.950   2.747   5.904  0.0667  0.2299 -0.7330
   26SAPC   O11 3412   5.775   2.684   6.056 -0.4595 -0.0250  0.2750
   26SAPC    C1 3413   5.752   2.737   6.190  0.2113  0.6011  0.7448
   26SAPC    HA 3414   5.833   2.809   6.212 -0.7472  1.2511  2.3254
   26SAPC    HB 3415   5.651   2.782   6.200 -0.6453 -0.4999 -1.9292
   26SAPC    C2 3416   5.750   2.615   6.292 -0.2003 -0.2393 -0.3570
   26SAPC    HS 3417   5.849   2.564   6.291 -0.0003  0.1495 -1.1674
   26SAPC   O21 3418   5.641   2.524   6.256 -0.5343  0.5712  0.3407
   26SAPC   C21 3419   5.669   2.393   6.285 -0.4698 -0.2790  0.1413
   26SAPC   O22 3420   5.782   2.352   6.308  0.4271 -0.4774  0.5513
   26SAPC   C22 3421   5.539   2.320   6.298 -0.5002  0.8432 -0.1040
   26SAPC   H2R 3422   5.461   2.388   6.339 -0.1203  1.5135 -0.4573
   26SAPC   H2S 3423   5.498   2.306   6.196 -1.0486  3.0685 -0.2396
   26SAPC    C3 3424   5.718   2.670   6.437 -0.4373  0.2618  0.1047
   26SAPC    HX 3425   5.611   2.701   6.438  0.0192  1.9404  1.3460
   26SAPC    HY 3426   5.782   2.755   6.468 -0.3528  0.0697  0.4551
   26SAPC   O31 3427   5.740   2.563   6.528 -0.3279  0.6864 -0.3608
   26SAPC   C31 3428   5.870   2.545   6.565 -0.3977  0.1658  0.8819
   26SAPC   O32 3429   5.967   2.612   6.531  0.7471 -0.3833  0.0323
   26SAPC   C32 3430   5.877   2.432   6.662 -0.7981 -0.8744 -0.5634
   26SAPC   H2X 3431   5.857   2.340   6.603 -2.0828 -1.3338  0.5470
   26SAPC   H2Y 3432   5.799   2.455   6.738  0.6498 -0.1262  0.7420
   26SAPC   C23 3433   5.554   2.195   6.392  0.1401 -0.1240 -0.0986
   26SAPC   H3R 3434   5.637   2.127   6.361  0.8020  0.2393  0.8390
   26SAPC   H3S 3435   5.467   2.127   6.382  1.5531 -1.8165 -1.6929
   26SAPC   C24 3436   5.562   2.234   6.546  1.0323 -0.0160 -0.0441
   26SAPC   H4R 3437   5.639   2.312   6.564 -1.2801  2.2191  0.7660
   26SAPC   H4S 3438   5.586   2.139   6.599 -1.0312 -0.8129 -0.4535
   26SAPC   C25 3439   5.423   2.279   6.598  0.3911 -0.3742  0.1849
   26SAPC   H5R 3440   5.341   2.272   6.525  2.3577 -1.2117 -2.0930
   26SAPC   C26 3441   5.401   2.336   6.719 -0.1868  0.5904  0.2233
   26SAPC   H6R 3442   5.297   2.360   6.743 -0.6604  0.1328 -1.2466
   26SAPC   C27 3443   5.491   2.363   6.835 -0.0381  0.5361  0.4949
   26SAPC   H7R 3444   5.592   2.323   6.812  0.2574 -0.1118  2.6611
   26SAPC   H7S 3445   5.452   2.302   6.920  0.9569 -0.6737  0.1115
   26SAPC   C28 3446   5.491   2.505   6.866 -0.1775 -0.5285  0.1152
   26SAPC   H8R 3447   5.571   2.564   6.819  0.6388 -2.3109 -0.8519
   26SAPC   C29 3448   5.415   2.573   6.950 -0.4466  0.2983  0.2597
   26SAPC   H9R 3449   5.432   2.680   6.966 -0.7594  0.3087  0.5265
   26SAPC  C210 3450   5.303   2.520   7.041  0.6396  0.3673 -0.0625
   26SAPC  H10R 3451   5.271   2.414   7.027  2.5891 -0.0434 -2.1330
   26SAPC  H10S 3452   5.210   2.576   7.021  0.3005 -0.0043  0.4604
   26SAPC  C211 3453   5.328   2.552   7.188  0.1570  0.5833  0.9815
   26SAPC  H11R 3454   5.436   2.554   7.212  1.0076 -0.8530 -2.1368
   26SAPC  C212 3455   5.230   2.568   7.282  0.3911  0.2614  0.3689
   26SAPC  H12R 3456   5.249   2.577   7.390 -3.4852 -1.6744  1.3802
   26SAPC  C213 3457   5.084   2.559   7.253  0.1495 -0.7077 -0.0667
   26SAPC  H13R 3458   5.063   2.598   7.151 -2.3486 -1.1425  0.2172
   26SAPC  H13S 3459   5.043   2.644   7.311  0.7845 -0.3276 -0.1618
   26SAPC  C214 3460   5.002   2.432   7.258 -0.2214 -0.2103 -0.3638
   26SAPC  H14R 3461   5.019   2.375   7.165  0.0041 -1.2039  0.2796
   26SAPC  C215 3462   4.914   2.395   7.358  0.2839 -0.0850  0.5373
   26SAPC  H15R 3463   4.861   2.299   7.343  2.4411 -1.2164 -0.3169
   26SAPC  C216 3464   4.877   2.473   7.480 -0.0387  0.6963  0.2369
   26SAPC  H16R 3465   4.768   2.466   7.500 -0.0578 -1.4559 -0.3368
   26SAPC  H16S 3466   4.908   2.579   7.477  0.8944  0.4382  0.4833
   26SAPC  C217 3467   4.926   2.389   7.599  0.6146 -0.1830  0.4020
   26SAPC  H17R 3468   5.031   2.354   7.586  0.1901 -0.6566 -2.1809
   26SAPC  H17S 3469   4.874   2.291   7.590  2.4063 -1.0696 -1.0389
   26SAPC  C218 3470   4.910   2.453   7.742  0.5110 -0.4475 -0.4684
   26SAPC  H18R 3471   4.804   2.467   7.773  0.8522  1.8034 -0.2034
   26SAPC  H18S 3472   4.964   2.550   7.742 -0.7463  0.2724 -0.9651
   26SAPC  C219 3473   4.960   2.364   7.855  0.5587  0.6804  0.8068
   26SAPC  H19R 3474   5.067   2.340   7.837  0.1787 -1.1352  0.7753
   26SAPC  H19S 3475   4.900   2.270   7.849 -0.1631  1.1146  1.2021
   26SAPC  C220 3476   4.950   2.411   8.003 -0.2292 -0.1560 -0.1594
   26SAPC  H20R 3477   4.973   2.325   8.070 -2.3275 -0.0884  0.7284
   26SAPC  H20S 3478   4.848   2.429   8.043 -1.0143 -1.8771 -1.2532
   26SAPC  H20T 3479   5.006   2.503   8.029  0.9414 -0.9067  0.0508
   26SAPC   C33 3480   6.023   2.432   6.724  0.1625 -0.2663  0.0063
   26SAPC   H3X 3481   6.053   2.527   6.774  0.0989  0.8725 -2.0331
   26SAPC   H3Y 3482   6.097   2.412   6.645 -0.9713 -0.9482 -0.9192
   26SAPC   C34 3483   6.042   2.310   6.823  1.1758  0.6296  0.2737
   26SAPC   H4X 3484   6.140   2.265   6.797 -0.7986 -4.9409  1.1336
   26SAPC   H4Y 3485   5.969   2.230   6.798 -0.0028  1.6368  0.3998
   26SAPC   C35 3486   6.048   2.354   6.968 -1.0447 -0.4472  0.5298
   26SAPC   H5X 3487   5.961   2.415   6.997  0.4085  3.3153 -2.1754
   26SAPC   H5Y 3488   6.131   2.428   6.974  0.3335 -2.0148  2.2130
   26SAPC   C36 3489   6.071   2.235   7.062 -0.0113  0.1945 -0.1255
   26SAPC   H6X 3490   6.169   2.188   7.037 -0.4149  0.1051 -1.6222
   26SAPC   H6Y 3491   5.989   2.162   7.043  0.2218  0.0650 -0.6334
   26SAPC   C37 3492   6.061   2.295   7.209 -0.0990  0.3224  0.5667
   26SAPC   H7X 3493   5.969   2.358   7.213  0.2981  1.0596 -0.9741
   26SAPC   H7Y 3494   6.152   2.357   7.224  0.8856  0.9101 -5.3856
   26SAPC   C38 3495   6.041   2.188   7.318 -0.0830 -0.3168 -0.0152
   26SAPC   H8X 3496   6.117   2.110   7.298 -1.5769 -1.6742 -0.6181
   26SAPC   H8Y 3497   5.944   2.138   7.296 -0.9639  0.3438  2.0990
   26SAPC   C39 3498   6.033   2.233   7.462 -0.2860 -0.0042 -0.2213
   26SAPC   H9X 3499   5.952   2.307   7.472 -0.6544 -0.7438  4.0735
   26SAPC   H9Y 3500   6.129   2.278   7.495 -0.7127 -0.4380  1.7552
   26SAPC  C310 3501   5.994   2.121   7.552 -0.3461  0.9600  0.1650
   26SAPC  H10X 3502   6.082   2.062   7.585 -0.0082  2.2941  1.7811
   26SAPC  H10Y 3503   5.921   2.062   7.494  0.4594  0.2635 -0.1665
   26SAPC  C311 3504   5.924   2.182   7.668 -0.0531  0.7617  0.0651
   26SAPC  H11X 3505   5.839   2.247   7.638 -1.7982 -0.3591  2.3278
   26SAPC  H11Y 3506   5.993   2.245   7.729 -0.9039  2.1964 -0.4053
   26SAPC  C312 3507   5.856   2.083   7.763  0.0793  0.3996  0.0214
   26SAPC  H12X 3508   5.932   2.015   7.807 -3.2309 -2.1467  2.2031
   26SAPC  H12Y 3509   5.785   2.022   7.703  0.1014  2.1215 -1.8750
   26SAPC  C313 3510   5.770   2.148   7.877  0.5979  0.2657 -0.4338
   26SAPC  H13X 3511   5.692   2.201   7.818  0.0672 -0.6377 -0.5695
   26SAPC  H13Y 3512   5.830   2.227   7.928  0.5858 -1.6006  2.7364
   26SAPC  C314 3513   5.716   2.048   7.980  0.3943 -0.4292  0.0865
   26SAPC  H14X 3514   5.782   1.964   8.010  0.1033 -0.9052 -0.5728
   26SAPC  H14Y 3515   5.647   1.991   7.915 -1.7403  1.2707  0.7263
   26SAPC  C315 3516   5.621   2.123   8.081 -0.6596 -0.1264 -0.0427
   26SAPC  H15X 3517   5.544   2.185   8.031 -0.0643  1.5549  1.0325
   26SAPC  H15Y 3518   5.690   2.185   8.142 -0.1256 -0.6231 -0.1372
   26SAPC  C316 3519   5.567   2.016   8.169 -0.6102  1.0139 -0.0605
   26SAPC  H16X 3520   5.641   1.940   8.203 -1.0901  0.1417 -0.9345
   26SAPC  H16Y 3521   5.498   1.950   8.112  1.6408 -3.1366  1.5999
   26SAPC  C317 3522   5.494   2.075   8.292  0.7404  0.9805 -0.3578
   26SAPC  H17X 3523   5.428   2.152   8.246  1.9298  2.4010  0.2219
   26SAPC  H17Y 3524   5.559   2.135   8.359 -2.5011  1.7844  2.3241
   26SAPC  C318 3525   5.422   1.974   8.377 -1.0807  0.3165 -0.1664
   26SAPC  H18X 3526   5.349   1.914   8.318  1.1459 -1.4963 -1.2299
   26SAPC  H18Y 3527   5.367   2.018   8.462 -2.1577 -0.9546 -0.1716
   26SAPC  H18Z 3528   5.495   1.904   8.422  0.7617  0.5348 -2.5890
   27SAPC     N 3529   4.033   0.395   6.311 -0.1639 -0.5076  0.7350
   27SAPC   C12 3530   4.061   0.538   6.356 -0.5853  1.0851 -0.0419
   27SAPC  H12A 3531   4.023   0.602   6.278 -0.7258  1.0308 -0.0184
   27SAPC  H12B 3532   4.169   0.540   6.358 -0.5290 -0.5908  2.4195
   27SAPC   C13 3533   3.883   0.373   6.300 -0.4451 -0.0325  0.0552
   27SAPC  H13A 3534   3.871   0.272   6.266 -2.2841  0.9168 -2.3572
   27SAPC  H13B 3535   3.842   0.395   6.398  1.1508 -3.1115  1.5733
   27SAPC  H13C 3536   3.834   0.429   6.223 -0.8712 -1.1352 -0.4925
   27SAPC   C14 3537   4.096   0.381   6.172 -0.2067 -0.3224 -0.0273
   27SAPC  H14A 3538   4.095   0.284   6.123 -0.1028  1.1008 -3.0945
   27SAPC  H14B 3539   4.043   0.448   6.106 -1.2602  0.0437  1.1529
   27SAPC  H14C 3540   4.198   0.416   6.176 -0.1070 -0.6968  1.0451
   27SAPC   C15 3541   4.094   0.297   6.402 -0.9716  0.1528  0.0085
   27SAPC  H15A 3542   4.201   0.299   6.386 -0.8598 -0.7481  0.5582
   27SAPC  H15B 3543   4.064   0.315   6.504 -2.2505  0.2632 -0.3763
   27SAPC  H15C 3544   4.054   0.200   6.377 -1.0108  0.3497 -0.6973
   27SAPC   C11 3545   4.021   0.582   6.499  0.3290  0.1266  0.2061
   27SAPC  H11A 3546   4.070   0.678   6.526 -0.0415  0.4648 -0.3077
   27SAPC  H11B 3547   4.050   0.501   6.570 -0.9243 -0.0969  0.4788
   27SAPC     P 3548   3.812   0.718   6.438 -0.3749 -0.0255 -0.2455
   27SAPC   O13 3549   3.907   0.827   6.426 -0.7996  0.1001 -0.2332
   27SAPC   O14 3550   3.741   0.679   6.313  0.7475  0.2867  0.9305
   27SAPC   O12 3551   3.883   0.594   6.507 -0.4169  0.0657  0.2763
   27SAPC   O11 3552   3.703   0.761   6.539  0.3055 -0.5514  0.3137
   27SAPC    C1 3553   3.602   0.670   6.587 -0.2147  0.0013 -0.1728
   27SAPC    HA 3554   3.629   0.570   6.546 -0.7330 -0.5963  0.9076
   27SAPC    HB 3555   3.607   0.662   6.698 -0.7028  1.5777 -0.0126
   27SAPC    C2 3556   3.458   0.701   6.560  0.1513 -0.2153 -0.2222
   27SAPC    HS 3557   3.447   0.722   6.451 -1.3044  0.9504  0.1223
   27SAPC   O21 3558   3.411   0.808   6.643  0.4862  0.1705  0.2273
   27SAPC   C21 3559   3.295   0.851   6.606  0.2174 -0.1761 -0.3381
   27SAPC   O22 3560   3.233   0.808   6.515  0.0544  0.4090 -0.2835
   27SAPC   C22 3561   3.256   0.957   6.703  0.0070  0.3034  0.3077
   27SAPC   H2R 3562   3.340   0.972   6.775  0.3753 -4.1696  1.0504
   27SAPC   H2S 3563   3.253   1.051   6.643 -0.8159  1.5617  2.2168
   27SAPC    C3 3564   3.377   0.567   6.578  0.2144 -0.1231 -0.2994
   27SAPC    HX 3565   3.426   0.474   6.540  0.4749  0.2079 -0.7872
   27SAPC    HY 3566   3.272   0.578   6.543  0.0414 -2.5532 -0.7917
   27SAPC   O31 3567   3.372   0.541   6.720 -0.9042 -0.0603 -0.3513
   27SAPC   C31 3568   3.287   0.443   6.755 -0.7242 -0.3973  0.2154
   27SAPC   O32 3569   3.204   0.398   6.682  0.2126  0.2379  0.4798
   27SAPC   C32 3570   3.315   0.410   6.895  0.3479  0.2755  0.0432
   27SAPC   H2X 3571   3.386   0.490   6.925  0.5554  1.0469 -2.3459
   27SAPC   H2Y 3572   3.351   0.305   6.883 -1.9726 -0.9352  2.4238
   27SAPC   C23 3573   3.127   0.918   6.771  0.3088 -0.3786  0.2605
   27SAPC   H3R 3574   3.045   0.917   6.695  0.2441 -0.6074  0.3331
   27SAPC   H3S 3575   3.105   1.011   6.826 -1.4334 -0.0530 -0.9103
   27SAPC   C24 3576   3.132   0.785   6.851 -0.1312  0.2606  0.4975
   27SAPC   H4R 3577   3.173   0.717   6.773  0.9158  3.0764 -1.5806
   27SAPC   H4S 3578   3.038   0.744   6.894 -1.0631  2.8505  1.0678
   27SAPC   C25 3579   3.234   0.781   6.959 -0.2262  0.5174  0.1712
   27SAPC   H5R 3580   3.330   0.735   6.931 -0.9261 -1.9487  1.4856
   27SAPC   C26 3581   3.211   0.831   7.081  0.0023  0.5310  0.0043
   27SAPC   H6R 3582   3.282   0.813   7.163  1.8120  1.1824 -1.3561
   27SAPC   C27 3583   3.074   0.878   7.130  0.0289  0.0343  0.5539
   27SAPC   H7R 3584   3.031   0.945   7.052 -0.0316  0.3158  0.8242
   27SAPC   H7S 3585   3.090   0.962   7.202 -0.6223  1.7809 -1.2447
   27SAPC   C28 3586   2.977   0.767   7.161  1.2242  0.6434 -0.2379
   27SAPC   H8R 3587   2.884   0.768   7.103  1.1710 -3.3686 -0.4528
   27SAPC   C29 3588   2.983   0.692   7.274 -0.2698  0.3071  0.3673
   27SAPC   H9R 3589   2.899   0.623   7.293  0.2212 -0.6972 -0.9911
   27SAPC  C210 3590   3.095   0.707   7.382 -0.2216  0.1598  0.5968
   27SAPC  H10R 3591   3.125   0.814   7.392  1.5646 -0.0343 -1.8234
   27SAPC  H10S 3592   3.192   0.658   7.363  1.9399  4.4119 -0.4609
   27SAPC  C211 3593   3.039   0.676   7.522 -0.0689 -0.2720  0.0596
   27SAPC  H11R 3594   3.072   0.583   7.570 -2.7964  0.0305  2.8367
   27SAPC  C212 3595   2.958   0.751   7.601  0.6543  0.6683  0.2670
   27SAPC  H12R 3596   2.931   0.703   7.696  1.2002 -2.2737 -0.9462
   27SAPC  C213 3597   2.876   0.873   7.562 -0.3132 -0.2037 -0.8118
   27SAPC  H13R 3598   2.912   0.911   7.465 -0.1601  2.6180  0.2478
   27SAPC  H13S 3599   2.906   0.952   7.635 -0.1677 -1.8599  1.0323
   27SAPC  C214 3600   2.724   0.847   7.559 -0.1333 -0.3698  0.2353
   27SAPC  H14R 3601   2.686   0.830   7.457 -0.1709  1.1124 -0.0130
   27SAPC  C215 3602   2.635   0.844   7.669 -0.4447 -0.4908  0.0769
   27SAPC  H15R 3603   2.532   0.811   7.651 -1.3856  1.7052  1.0476
   27SAPC  C216 3604   2.661   0.890   7.815 -0.2911 -0.0523 -0.7445
   27SAPC  H16R 3605   2.742   0.966   7.822  0.7371 -1.2812  2.5550
   27SAPC  H16S 3606   2.703   0.811   7.881  0.3277  2.6106  2.3060
   27SAPC  C217 3607   2.526   0.947   7.871 -1.0558 -0.4281  0.3234
   27SAPC  H17R 3608   2.460   0.859   7.892  1.4999 -3.1240 -2.0282
   27SAPC  H17S 3609   2.481   1.026   7.808 -1.5994  0.0259  1.2573
   27SAPC  C218 3610   2.532   1.000   8.013  0.4892  0.7018  0.1996
   27SAPC  H18R 3611   2.585   1.096   8.002  0.9007  0.2731 -2.1145
   27SAPC  H18S 3612   2.601   0.935   8.071  1.8116  0.5434 -1.4850
   27SAPC  C219 3613   2.398   1.030   8.080  0.6318 -0.3784  0.0879
   27SAPC  H19R 3614   2.324   1.076   8.011  1.9036  0.9381 -0.4452
   27SAPC  H19S 3615   2.409   1.111   8.156 -0.5000  0.0899 -0.2310
   27SAPC  C220 3616   2.343   0.909   8.160  0.0402 -0.0103  0.0406
   27SAPC  H20R 3617   2.337   0.816   8.098  1.3645  1.0696 -1.8321
   27SAPC  H20S 3618   2.240   0.934   8.190  0.1783  1.6271 -0.7382
   27SAPC  H20T 3619   2.404   0.878   8.248  0.0448  1.7174  0.6763
   27SAPC   C33 3620   3.187   0.399   6.988 -0.3325  0.7075  0.3292
   27SAPC   H3X 3621   3.103   0.348   6.936 -0.7984 -0.3264  2.0161
   27SAPC   H3Y 3622   3.153   0.502   7.012 -0.4628  1.6309 -3.1883
   27SAPC   C34 3623   3.229   0.336   7.123 -0.4996 -0.1138  0.1356
   27SAPC   H4X 3624   3.283   0.414   7.181 -1.7458  2.8073 -2.3406
   27SAPC   H4Y 3625   3.279   0.238   7.112  0.1019 -0.1123  2.2823
   27SAPC   C35 3626   3.101   0.321   7.213 -0.2017  0.0185  0.2761
   27SAPC   H5X 3627   3.018   0.261   7.171  0.9315 -1.8518  0.5914
   27SAPC   H5Y 3628   3.056   0.416   7.250  0.1753 -0.2619  1.4694
   27SAPC   C36 3629   3.134   0.258   7.349 -0.4440  0.1826 -0.1880
   27SAPC   H6X 3630   3.206   0.321   7.404  0.5627 -2.3382  1.6045
   27SAPC   H6Y 3631   3.184   0.163   7.321 -2.5923 -1.2176  0.4309
   27SAPC   C37 3632   3.017   0.212   7.440  0.5868  0.0231 -0.7576
   27SAPC   H7X 3633   2.953   0.134   7.393 -0.6291  1.2026 -1.1100
   27SAPC   H7Y 3634   2.957   0.301   7.468  0.8860 -0.7567  2.8354
   27SAPC   C38 3635   3.069   0.165   7.585  0.1006 -0.6264  0.1536
   27SAPC   H8X 3636   3.147   0.091   7.557  1.3145  1.4096 -2.2871
   27SAPC   H8Y 3637   2.991   0.111   7.643  2.0441 -3.0098  0.6867
   27SAPC   C39 3638   3.140   0.265   7.675 -0.6521  0.6285 -0.2480
   27SAPC   H9X 3639   3.164   0.352   7.610 -0.6230 -0.1198 -1.2724
   27SAPC   H9Y 3640   3.237   0.230   7.715 -1.1025 -0.0489  0.2787
   27SAPC  C310 3641   3.035   0.314   7.780 -0.7291  0.7148  0.0115
   27SAPC  H10X 3642   2.988   0.221   7.820  0.5900 -0.9744 -2.0872
   27SAPC  H10Y 3643   2.954   0.373   7.732  1.4617  4.0869  0.1597
   27SAPC  C311 3644   3.082   0.410   7.888  0.8272  0.2605  0.0417
   27SAPC  H11X 3645   3.088   0.508   7.837  0.6607 -0.9131 -2.3938
   27SAPC  H11Y 3646   3.186   0.380   7.913  0.6869 -1.0570 -0.8322
   27SAPC  C312 3647   2.984   0.408   8.002  0.0359  0.0681  0.5703
   27SAPC  H12X 3648   2.969   0.299   8.021 -1.0713 -0.0236 -0.6964
   27SAPC  H12Y 3649   2.887   0.451   7.970 -0.8113  1.1199  4.0817
   27SAPC  C313 3650   3.028   0.492   8.123 -0.1701  0.1356  0.3165
   27SAPC  H13X 3651   3.136   0.473   8.142 -0.4702 -0.4434  1.4970
   27SAPC  H13Y 3652   2.963   0.470   8.210 -0.3164 -0.7299 -0.0019
   27SAPC  C314 3653   3.038   0.650   8.092  0.6445 -0.0103 -0.5431
   27SAPC  H14X 3654   3.089   0.667   7.995  0.3135  0.9863 -0.5556
   27SAPC  H14Y 3655   3.106   0.696   8.167 -0.5600  0.7393  0.1377
   27SAPC  C315 3656   2.902   0.720   8.113  0.6073 -0.2957 -0.4670
   27SAPC  H15X 3657   2.829   0.665   8.049  0.3001 -0.8249  0.3138
   27SAPC  H15Y 3658   2.905   0.827   8.086 -0.5507  0.7163  2.9266
   27SAPC  C316 3659   2.851   0.707   8.257  0.2963  0.1605 -0.0289
   27SAPC  H16X 3660   2.923   0.731   8.338 -0.1924  2.2771 -0.1413
   27SAPC  H16Y 3661   2.816   0.603   8.269  2.7787 -0.6340  0.9077
   27SAPC  C317 3662   2.738   0.803   8.282  0.2825  0.7646 -0.2999
   27SAPC  H17X 3663   2.670   0.793   8.195 -0.4912  2.9341 -0.0173
   27SAPC  H17Y 3664   2.780   0.906   8.283  1.1920  0.4319 -1.8309
   27SAPC  C318 3665   2.664   0.779   8.410  0.2169  0.2950  0.1686
   27SAPC  H18X 3666   2.740   0.804   8.488  1.0583 -1.5724  0.0162
   27SAPC  H18Y 3667   2.640   0.672   8.427  0.4704  0.2917  0.5347
   27SAPC  H18Z 3668   2.573   0.839   8.428  0.4001  0.3636  0.9423
   28SAPC     N 3669   2.171   6.056   5.631  0.1249 -0.5585 -0.2059
   28SAPC   C12 3670   2.144   6.014   5.774  0.2137  0.0886  0.1014
   28SAPC  H12A 3671   2.138   5.907   5.778  0.6264  0.0840  0.7706
   28SAPC  H12B 3672   2.046   6.053   5.796 -0.6927  0.9517 -4.4327
   28SAPC   C13 3673   2.166   6.207   5.606  0.0045  0.7567  0.2472
   28SAPC  H13A 3674   2.198   6.238   5.507  1.3491  1.0392  0.7585
   28SAPC  H13B 3675   2.069   6.246   5.634  0.4429  0.1960  2.6943
   28SAPC  H13C 3676   2.235   6.255   5.673  0.3914  0.6730 -0.0894
   28SAPC   C14 3677   2.307   6.010   5.581  0.4932  0.3800 -0.1916
   28SAPC  H14A 3678   2.385   6.063   5.635  0.7454  0.3804 -0.5510
   28SAPC  H14B 3679   2.337   5.908   5.600  0.5318  0.7937  2.2752
   28SAPC  H14C 3680   2.312   6.025   5.474  2.0631 -0.2588 -0.2484
   28SAPC   C15 3681   2.064   5.990   5.548 -0.7816  0.3180 -0.4720
   28SAPC  H15A 3682   2.085   5.999   5.442  2.1488 -1.5781 -0.1957
   28SAPC  H15B 3683   2.072   5.883   5.561  1.4333  0.0702 -3.0407
   28SAPC  H15C 3684   1.966   6.022   5.578 -1.6479 -1.1481 -1.6002
   28SAPC   C11 3685   2.228   6.066   5.895  0.3163  0.3520  0.6700
   28SAPC  H11A 3686   2.327   6.022   5.873 -0.4031 -1.6751  1.2001
   28SAPC  H11B 3687   2.199   6.024   5.994  0.2771 -1.8313 -0.1998
   28SAPC     P 3688   2.095   6.289   5.937 -0.3468  0.2759 -0.2581
   28SAPC   O13 3689   2.103   6.420   5.870  0.1234  0.0553  0.1029
   28SAPC   O14 3690   1.972   6.209   5.913 -0.2101 -0.1379  0.3854
   28SAPC   O12 3691   2.223   6.206   5.898 -0.0392  0.5097 -0.5517
   28SAPC   O11 3692   2.122   6.298   6.095  0.3519  0.2761 -0.2824
   28SAPC    C1 3693   2.256   6.321   6.136  0.0378  0.3685 -0.3236
   28SAPC    HA 3694   2.312   6.227   6.117 -1.4446 -1.1365  2.2044
   28SAPC    HB 3695   2.298   6.417   6.098 -1.5427  2.2144  2.3015
   28SAPC    C2 3696   2.266   6.337   6.291  0.1411 -0.3345  0.1576
   28SAPC    HS 3697   2.351   6.403   6.320 -0.2762  0.7290 -0.9720
   28SAPC   O21 3698   2.269   6.207   6.350  0.0969  0.0368 -0.0795
   28SAPC   C21 3699   2.381   6.152   6.382  0.3140 -0.0396  0.3344
   28SAPC   O22 3700   2.497   6.193   6.361 -0.7027  0.6297 -0.0941
   28SAPC   C22 3701   2.348   6.020   6.459 -0.6897 -0.4111  0.8491
   28SAPC   H2R 3702   2.252   6.031   6.514 -1.1387 -0.3334  0.0647
   28SAPC   H2S 3703   2.333   5.943   6.381  1.2849  2.1521 -2.2861
   28SAPC    C3 3704   2.151   6.424   6.348  0.5940  0.1729 -0.1906
   28SAPC    HX 3705   2.053   6.378   6.324  1.1039 -0.3801 -1.2481
   28SAPC    HY 3706   2.144   6.521   6.294 -0.5639 -0.1223 -0.6062
   28SAPC   O31 3707   2.176   6.463   6.480 -0.4536  0.0677  1.0235
   28SAPC   C31 3708   2.102   6.407   6.569 -0.1668 -0.6132 -0.3260
   28SAPC   O32 3709   2.007   6.328   6.549 -0.0744 -0.0802 -0.0275
   28SAPC   C32 3710   2.144   6.455   6.709  0.3396  0.1450 -0.2264
   28SAPC   H2X 3711   2.102   6.557   6.712 -0.1498 -0.0488 -0.4299
   28SAPC   H2Y 3712   2.254   6.468   6.717  0.3677  2.4690 -2.8147
   28SAPC   C23 3713   2.469   5.980   6.553 -0.4628  0.2282 -0.3179
   28SAPC   H3R 3714   2.565   5.964   6.498 -0.9223 -2.8025 -0.4461
   28SAPC   H3S 3715   2.448   5.878   6.593 -0.6403 -0.9998 -3.2258
   28SAPC   C24 3716   2.492   6.093   6.663  0.0049  0.3177 -0.2720
   28SAPC   H4R 3717   2.584   6.059   6.716  0.3649 -0.3949 -1.3201
   28SAPC   H4S 3718   2.513   6.195   6.624 -0.8174  0.7495  0.3707
   28SAPC   C25 3719   2.384   6.097   6.767 -0.3369 -0.1053 -0.1424
   28SAPC   H5R 3720   2.282   6.086   6.725 -0.9720  0.1209  1.2874
   28SAPC   C26 3721   2.402   6.119   6.900 -0.0225 -0.6072  0.8145
   28SAPC   H6R 3722   2.311   6.115   6.962  0.1907 -0.1933  1.1567
   28SAPC   C27 3723   2.532   6.143   6.968  0.7995 -0.2313  0.9607
   28SAPC   H7R 3724   2.558   6.242   6.925  1.6286 -0.8497  0.0154
   28SAPC   H7S 3725   2.611   6.075   6.931 -0.0846 -0.1214 -1.2415
   28SAPC   C28 3726   2.513   6.140   7.118  0.0808  0.0994  0.0647
   28SAPC   H8R 3727   2.454   6.054   7.152 -0.5660  0.1789 -0.8355
   28SAPC   C29 3728   2.545   6.237   7.209 -0.6070  0.0213 -0.0437
   28SAPC   H9R 3729   2.519   6.207   7.312  0.8970 -0.2379  0.2904
   28SAPC  C210 3730   2.601   6.376   7.191  0.0988  0.2740  0.3929
   28SAPC  H10R 3731   2.608   6.405   7.084 -1.4722  0.6075  0.3578
   28SAPC  H10S 3732   2.705   6.386   7.229  0.5113  0.1623 -0.6870
   28SAPC  C211 3733   2.526   6.486   7.260  0.1111 -0.1397  0.4958
   28SAPC  H11R 3734   2.468   6.541   7.184 -1.1516 -0.8889  0.8797
   28SAPC  C212 3735   2.507   6.495   7.390  0.0101 -0.5208  0.5435
   28SAPC  H12R 3736   2.453   6.583   7.427  0.3329 -0.6173  1.2624
   28SAPC  C213 3737   2.564   6.407   7.498 -0.2421 -0.3235  0.5364
   28SAPC  H13R 3738   2.673   6.397   7.477 -0.6026 -0.3595 -1.4926
   28SAPC  H13S 3739   2.509   6.310   7.491 -0.4842 -0.1714  0.3285
   28SAPC  C214 3740   2.536   6.463   7.638  0.5318  1.2503 -0.3586
   28SAPC  H14R 3741   2.469   6.549   7.630 -3.1737 -1.4877 -1.8606
   28SAPC  C215 3742   2.534   6.395   7.747 -0.7146 -0.8753 -1.0795
   28SAPC  H15R 3743   2.492   6.443   7.837 -0.2643  2.9674 -2.7104
   28SAPC  C216 3744   2.569   6.250   7.777 -0.1153 -0.7645  0.0973
   28SAPC  H16R 3745   2.604   6.190   7.691  1.5738 -1.3489  1.1528
   28SAPC  H16S 3746   2.480   6.200   7.822 -0.1545 -0.6173  0.1843
   28SAPC  C217 3747   2.674   6.234   7.886 -0.7958 -0.4186 -0.2950
   28SAPC  H17R 3748   2.768   6.287   7.860 -1.8586  0.1713 -3.3728
   28SAPC  H17S 3749   2.695   6.127   7.905  0.5965 -0.2857 -0.9804
   28SAPC  C218 3750   2.633   6.306   8.019  0.4926 -0.5933  0.3812
   28SAPC  H18R 3751   2.541   6.262   8.062 -0.7275  1.5015  0.0226
   28SAPC  H18S 3752   2.606   6.412   8.006  0.1429 -0.4726  1.9750
   28SAPC  C219 3753   2.747   6.307   8.122 -0.2040  0.6457 -0.1260
   28SAPC  H19R 3754   2.741   6.396   8.189 -1.1257  1.8068 -1.6507
   28SAPC  H19S 3755   2.847   6.312   8.075 -0.1874 -1.2013 -0.3497
   28SAPC  C220 3756   2.742   6.185   8.216 -0.7838  0.0612  0.5222
   28SAPC  H20R 3757   2.830   6.196   8.282 -1.0844  1.2623  0.7365
   28SAPC  H20S 3758   2.735   6.088   8.161  0.1381 -0.2668  0.9608
   28SAPC  H20T 3759   2.650   6.185   8.279  0.2261 -2.5795  2.1260
   28SAPC   C33 3760   2.089   6.368   6.829  0.6936  0.5535 -0.0259
   28SAPC   H3X 3761   2.144   6.272   6.839 -1.4059 -1.0783 -3.0498
   28SAPC   H3Y 3762   1.986   6.340   6.801  0.8924 -1.4680  1.0564
   28SAPC   C34 3763   2.097   6.440   6.962  0.8525 -0.1470 -0.2967
   28SAPC   H4X 3764   2.044   6.538   6.957 -0.5824 -0.7435  1.9689
   28SAPC   H4Y 3765   2.206   6.460   6.972  0.7428  1.1392 -1.2855
   28SAPC   C35 3766   2.037   6.364   7.087 -0.0858 -0.0333 -0.4892
   28SAPC   H5X 3767   2.078   6.261   7.080 -0.6747 -0.4714  1.8260
   28SAPC   H5Y 3768   1.927   6.350   7.093 -0.0222 -0.4366 -0.1949
   28SAPC   C36 3769   2.079   6.419   7.228 -0.7271 -0.3824 -0.1559
   28SAPC   H6X 3770   2.009   6.502   7.250 -0.2766  0.3227 -1.3050
   28SAPC   H6Y 3771   2.183   6.458   7.220 -0.4668 -0.9598  0.2804
   28SAPC   C37 3772   2.082   6.313   7.341 -0.5831  0.0913 -0.0750
   28SAPC   H7X 3773   2.162   6.238   7.321  1.6712  1.8967  1.6833
   28SAPC   H7Y 3774   1.983   6.262   7.343 -1.7192  2.2195  1.0264
   28SAPC   C38 3775   2.119   6.366   7.481  0.8419 -0.1494  0.1639
   28SAPC   H8X 3776   2.073   6.464   7.507  1.4672 -0.0964  1.1175
   28SAPC   H8Y 3777   2.229   6.377   7.491  1.2616 -2.7282 -0.6188
   28SAPC   C39 3778   2.081   6.263   7.597  0.1349  0.8279  0.2643
   28SAPC   H9X 3779   2.121   6.162   7.573 -1.6829  0.2941 -0.7400
   28SAPC   H9Y 3780   1.971   6.249   7.608  0.1402  1.5827  1.5607
   28SAPC  C310 3781   2.139   6.288   7.740 -0.2303 -0.2334 -0.3043
   28SAPC  H10X 3782   2.122   6.393   7.771  1.5939  0.1953 -0.6393
   28SAPC  H10Y 3783   2.247   6.268   7.727 -0.3341 -0.1719 -1.3793
   28SAPC  C311 3784   2.102   6.185   7.841  0.2164  0.3108 -0.2123
   28SAPC  H11X 3785   2.122   6.081   7.807 -0.7088  0.1984 -0.4501
   28SAPC  H11Y 3786   1.993   6.194   7.858  0.3199 -0.4617  1.0282
   28SAPC  C312 3787   2.162   6.205   7.975  0.3325  0.7537  0.6381
   28SAPC  H12X 3788   2.140   6.308   8.011 -0.4541  0.3150  1.4833
   28SAPC  H12Y 3789   2.272   6.193   7.975  0.2075 -0.7202  1.4134
   28SAPC  C313 3790   2.104   6.129   8.097 -0.0113  0.0722 -0.2498
   28SAPC  H13X 3791   2.132   6.022   8.081  0.8779  0.2312  0.1720
   28SAPC  H13Y 3792   1.994   6.136   8.111  0.2004  2.6796  0.7101
   28SAPC  C314 3793   2.188   6.190   8.215  0.6427  0.2553  0.3832
   28SAPC  H14X 3794   2.144   6.287   8.250  3.8744  2.4308 -1.0832
   28SAPC  H14Y 3795   2.294   6.212   8.189  0.6420 -2.3659 -2.2419
   28SAPC  C315 3796   2.193   6.104   8.345 -0.0568  1.0840 -0.2549
   28SAPC  H15X 3797   2.225   6.000   8.320  0.6089  1.4149 -0.8103
   28SAPC  H15Y 3798   2.091   6.082   8.382  0.9111 -1.5472  1.1376
   28SAPC  C316 3799   2.278   6.169   8.461 -0.9736  0.3592 -0.4712
   28SAPC  H16X 3800   2.228   6.266   8.482  1.1411  1.4829 -0.3441
   28SAPC  H16Y 3801   2.381   6.182   8.421 -0.9276 -0.4622 -0.6337
   28SAPC  C317 3802   2.276   6.074   8.581  0.7728  0.0365 -0.0516
   28SAPC  H17X 3803   2.346   5.988   8.577 -0.6415 -1.1717 -0.0284
   28SAPC  H17Y 3804   2.171   6.036   8.590  1.2251 -1.2037  0.1812
   28SAPC  C318 3805   2.303   6.147   8.712  0.4464 -0.2695 -1.3021
   28SAPC  H18X 3806   2.411   6.174   8.709  1.1513 -2.8914 -2.7152
   28SAPC  H18Y 3807   2.287   6.071   8.791  2.4584 -1.8790 -2.3351
   28SAPC  H18Z 3808   2.240   6.237   8.727  0.2639 -0.5573 -0.2813
   29SAPC     N 3809   5.575   2.553   5.772  0.2743 -0.0064  0.4014
   29SAPC   C12 3810   5.567   2.499   5.912 -0.3532  0.2369  0.1694
   29SAPC  H12A 3811   5.650   2.546   5.961 -0.1333  1.4360 -1.2695
   29SAPC  H12B 3812   5.583   2.393   5.911 -2.5503 -0.1519  0.6342
   29SAPC   C13 3813   5.483   2.487   5.683  0.5443  0.7512  0.6023
   29SAPC  H13A 3814   5.511   2.384   5.667 -0.5086  0.7546 -1.7786
   29SAPC  H13B 3815   5.379   2.482   5.711  0.7091  0.4699  1.1749
   29SAPC  H13C 3816   5.487   2.536   5.587  1.6889 -0.4433  0.0070
   29SAPC   C14 3817   5.544   2.692   5.782 -0.4437 -0.3002 -0.3365
   29SAPC  H14A 3818   5.617   2.727   5.854  0.7871  0.6106 -1.9560
   29SAPC  H14B 3819   5.552   2.740   5.685 -1.1540  1.7438  0.5588
   29SAPC  H14C 3820   5.445   2.702   5.824  0.0021  0.3078  0.5978
   29SAPC   C15 3821   5.712   2.551   5.714  0.3717 -0.1957  0.2589
   29SAPC  H15A 3822   5.716   2.618   5.629 -3.7769  0.8026  0.6678
   29SAPC  H15B 3823   5.794   2.569   5.782  0.0110  3.3768 -0.0697
   29SAPC  H15C 3824   5.736   2.453   5.675 -1.4275  0.3118 -2.3864
   29SAPC   C11 3825   5.438   2.529   5.990  0.5547  0.0716 -0.5082
   29SAPC  H11A 3826   5.456   2.629   6.035 -0.0160  0.2477 -0.6606
   29SAPC  H11B 3827   5.448   2.473   6.085 -0.5869  1.4256  0.4340
   29SAPC     P 3828   5.196   2.596   5.985  0.0401  0.3092 -0.2447
   29SAPC   O13 3829   5.235   2.739   6.004  0.2647  0.0435  0.0619
   29SAPC   O14 3830   5.071   2.571   5.911  0.4425 -0.7579  1.1388
   29SAPC   O12 3831   5.311   2.512   5.923 -0.4388  0.2818  0.1179
   29SAPC   O11 3832   5.177   2.529   6.128  0.1056 -0.0336 -0.3338
   29SAPC    C1 3833   5.134   2.389   6.145  0.5033 -0.4145 -0.5833
   29SAPC    HA 3834   5.055   2.360   6.074 -2.7076  1.7255  1.8270
   29SAPC    HB 3835   5.226   2.330   6.125  1.6743  0.7118  1.1771
   29SAPC    C2 3836   5.101   2.363   6.302  0.1846  0.5304  0.4189
   29SAPC    HS 3837   4.997   2.390   6.331  0.4929  0.6035  1.5085
   29SAPC   O21 3838   5.202   2.442   6.379  0.2551 -0.2018 -0.0602
   29SAPC   C21 3839   5.149   2.558   6.432  0.3631  0.7737 -0.1117
   29SAPC   O22 3840   5.037   2.600   6.406  0.2281  0.3657  0.2223
   29SAPC   C22 3841   5.260   2.626   6.510 -0.1670  0.0509  0.4336
   29SAPC   H2R 3842   5.275   2.567   6.604 -0.3351 -1.1491 -0.2738
   29SAPC   H2S 3843   5.356   2.617   6.455  0.4776 -0.9132  1.6600
   29SAPC    C3 3844   5.104   2.210   6.321 -0.6665  0.5131 -0.6148
   29SAPC    HX 3845   5.205   2.181   6.285  0.4118  2.3003  0.8243
   29SAPC    HY 3846   5.039   2.165   6.243 -2.4411  1.0654  0.4849
   29SAPC   O31 3847   5.085   2.175   6.456  0.2222 -0.2931  0.2600
   29SAPC   C31 3848   4.954   2.176   6.494  0.1909  0.5701  0.2095
   29SAPC   O32 3849   4.859   2.205   6.425 -0.4123 -0.9430  0.4787
   29SAPC   C32 3850   4.927   2.125   6.639  0.5719 -0.3509 -0.1727
   29SAPC   H2X 3851   4.943   2.016   6.646  1.7572 -0.1485  0.4304
   29SAPC   H2Y 3852   4.819   2.151   6.645  0.8673  0.8190  0.3687
   29SAPC   C23 3853   5.232   2.775   6.540 -0.0370  0.4528  0.5927
   29SAPC   H3R 3854   5.182   2.826   6.455  0.7347 -0.2847 -0.3292
   29SAPC   H3S 3855   5.334   2.820   6.535  0.3361 -0.4337 -3.0115
   29SAPC   C24 3856   5.151   2.801   6.663  0.2074 -0.0111  0.9751
   29SAPC   H4R 3857   5.208   2.760   6.749 -0.4140  0.3920  1.5912
   29SAPC   H4S 3858   5.051   2.755   6.646  0.5835  0.1115 -2.2227
   29SAPC   C25 3859   5.135   2.949   6.672  0.0328  0.0806  0.1273
   29SAPC   H5R 3860   5.123   2.995   6.573 -0.7453  0.7564  0.5272
   29SAPC   C26 3861   5.113   3.020   6.782 -0.4282  0.5340  0.2706
   29SAPC   H6R 3862   5.108   3.130   6.774 -1.0784  0.4233 -1.2058
   29SAPC   C27 3863   5.108   2.963   6.919 -0.3082 -0.4972 -0.2508
   29SAPC   H7R 3864   5.213   2.929   6.935  0.1683  1.0538  0.1192
   29SAPC   H7S 3865   5.039   2.876   6.924 -1.2183  0.1697 -0.9385
   29SAPC   C28 3866   5.069   3.064   7.031  0.1818 -0.0611  0.9569
   29SAPC   H8R 3867   4.965   3.060   7.066 -1.4205  0.7896 -3.1305
   29SAPC   C29 3868   5.155   3.152   7.083  0.4607  0.0709  0.1571
   29SAPC   H9R 3869   5.112   3.223   7.156 -0.2356 -0.5266  0.3447
   29SAPC  C210 3870   5.309   3.177   7.058 -0.3893 -0.2926 -0.7041
   29SAPC  H10R 3871   5.334   3.282   7.087  0.2729 -0.0296 -2.1613
   29SAPC  H10S 3872   5.332   3.172   6.950 -1.2899 -1.7592 -0.8509
   29SAPC  C211 3873   5.387   3.084   7.145 -0.0825  1.0469  0.0070
   29SAPC  H11R 3874   5.380   2.981   7.106 -2.4309  0.4425  1.8336
   29SAPC  C212 3875   5.443   3.106   7.264  0.2510  0.1612 -0.4713
   29SAPC  H12R 3876   5.491   3.016   7.306 -1.2899 -0.5135 -0.0688
   29SAPC  C213 3877   5.462   3.228   7.353  0.1113  0.6812  0.5244
   29SAPC  H13R 3878   5.378   3.244   7.424 -1.5862 -0.0849 -1.2197
   29SAPC  H13S 3879   5.437   3.320   7.296  0.6036  0.9573  0.7503
   29SAPC  C214 3880   5.606   3.246   7.400  0.9927  0.4711 -0.0694
   29SAPC  H14R 3881   5.681   3.223   7.323  0.0882 -0.7036 -0.6298
   29SAPC  C215 3882   5.645   3.301   7.520 -0.7346  0.3990 -0.5683
   29SAPC  H15R 3883   5.752   3.315   7.537 -1.2330  0.2298  3.6425
   29SAPC  C216 3884   5.561   3.348   7.636 -0.0568 -0.0451 -0.4168
   29SAPC  H16R 3885   5.452   3.340   7.616 -0.4925  2.2432  0.7280
   29SAPC  H16S 3886   5.580   3.457   7.643  0.4157 -0.0331 -1.7335
   29SAPC  C217 3887   5.583   3.266   7.765  0.0885  0.1133  0.0046
   29SAPC  H17R 3888   5.691   3.251   7.789  0.1370 -0.4912 -0.5734
   29SAPC  H17S 3889   5.548   3.165   7.734  2.9817 -0.3516 -2.1878
   29SAPC  C218 3890   5.518   3.320   7.895 -0.2646  0.4114  0.3131
   29SAPC  H18R 3891   5.412   3.288   7.905 -0.7694  1.4740 -1.2181
   29SAPC  H18S 3892   5.515   3.430   7.884 -0.6747  0.2997 -0.8066
   29SAPC  C219 3893   5.591   3.267   8.016 -0.3897  0.2653  0.0307
   29SAPC  H19R 3894   5.565   3.308   8.116 -1.5650 -0.5338  0.0748
   29SAPC  H19S 3895   5.696   3.299   8.000 -1.1261  2.0799 -1.5028
   29SAPC  C220 3896   5.574   3.118   8.033  0.1940 -1.0281  0.3470
   29SAPC  H20R 3897   5.629   3.059   7.957  2.4321 -2.0428  2.5930
   29SAPC  H20S 3898   5.466   3.093   8.035 -0.1810  0.5597  1.1961
   29SAPC  H20T 3899   5.619   3.086   8.130 -0.6937  1.2557  1.5963
   29SAPC   C33 3900   5.012   2.208   6.744  0.1904  0.5246 -0.1139
   29SAPC   H3X 3901   4.998   2.318   6.732  0.5755  0.5664 -0.2032
   29SAPC   H3Y 3902   5.119   2.185   6.728  0.7437  1.6014  1.7299
   29SAPC   C34 3903   4.969   2.175   6.893 -0.6816  0.6636  0.0188
   29SAPC   H4X 3904   5.043   2.219   6.964 -0.0668 -0.6793  0.2446
   29SAPC   H4Y 3905   4.967   2.064   6.900  0.5296  0.6745  0.9852
   29SAPC   C35 3906   4.830   2.227   6.930  0.1886 -0.1241 -0.5374
   29SAPC   H5X 3907   4.744   2.214   6.861 -1.4776  1.6622  1.0461
   29SAPC   H5Y 3908   4.843   2.338   6.929  0.2772 -0.1078 -2.9656
   29SAPC   C36 3909   4.776   2.188   7.072 -0.7723  0.6692 -0.0050
   29SAPC   H6X 3910   4.855   2.192   7.149 -0.6413 -0.7179 -0.0410
   29SAPC   H6Y 3911   4.724   2.090   7.075 -0.7163  0.6044 -0.9248
   29SAPC   C37 3912   4.677   2.298   7.110 -0.0301  0.2179  0.2860
   29SAPC   H7X 3913   4.613   2.319   7.022 -0.9104  1.0791  1.1092
   29SAPC   H7Y 3914   4.736   2.389   7.130  2.4810 -0.9607 -1.3200
   29SAPC   C38 3915   4.596   2.254   7.229  0.3001 -0.0021 -0.3300
   29SAPC   H8X 3916   4.671   2.234   7.308 -1.4391 -0.6580  1.2214
   29SAPC   H8Y 3917   4.551   2.154   7.213 -0.3592 -0.1442  2.1116
   29SAPC   C39 3918   4.487   2.355   7.274 -0.0754  0.3274  0.0226
   29SAPC   H9X 3919   4.407   2.354   7.196  0.0219 -0.6752 -0.0838
   29SAPC   H9Y 3920   4.527   2.458   7.286  1.4159 -0.4492  2.2324
   29SAPC  C310 3921   4.408   2.306   7.400  0.6761  0.3121  0.1638
   29SAPC  H10X 3922   4.364   2.210   7.367  0.3754  0.5287 -0.0840
   29SAPC  H10Y 3923   4.320   2.373   7.413  1.5070  1.7104 -1.0890
   29SAPC  C311 3924   4.507   2.289   7.515 -0.5796 -0.3597 -0.0393
   29SAPC  H11X 3925   4.552   2.390   7.514 -0.9207 -0.2006 -2.0311
   29SAPC  H11Y 3926   4.583   2.208   7.502  0.2236 -0.5256  4.2212
   29SAPC  C312 3927   4.444   2.277   7.654  0.1746  0.3835  0.4094
   29SAPC  H12X 3928   4.356   2.209   7.645 -1.0731  2.0425 -0.2992
   29SAPC  H12Y 3929   4.409   2.377   7.688  1.1166  0.5159  1.0017
   29SAPC  C313 3930   4.555   2.234   7.747  0.7589 -0.0633 -0.0450
   29SAPC  H13X 3931   4.650   2.288   7.725 -0.1708  2.4243  1.5685
   29SAPC  H13Y 3932   4.568   2.127   7.722 -2.3706 -0.2852 -1.0972
   29SAPC  C314 3933   4.514   2.239   7.890  0.1220  0.2022 -0.1743
   29SAPC  H14X 3934   4.426   2.176   7.914  0.0937 -0.1984 -1.3167
   29SAPC  H14Y 3935   4.480   2.342   7.916  2.1087  0.7304  0.5722
   29SAPC  C315 3936   4.622   2.200   7.992 -0.8202 -0.8741  0.0278
   29SAPC  H15X 3937   4.719   2.249   7.969 -0.1802 -2.4027 -0.6779
   29SAPC  H15Y 3938   4.651   2.093   7.985  0.2794 -0.4915 -2.5338
   29SAPC  C316 3939   4.578   2.229   8.135  0.3109 -0.0929  1.0088
   29SAPC  H16X 3940   4.489   2.167   8.157 -0.2630 -0.4785 -1.9349
   29SAPC  H16Y 3941   4.551   2.335   8.155  1.2477  0.4785 -0.5674
   29SAPC  C317 3942   4.692   2.194   8.233 -0.0421 -0.1394 -0.4297
   29SAPC  H17X 3943   4.776   2.256   8.195  1.8234 -2.9395 -1.2254
   29SAPC  H17Y 3944   4.712   2.085   8.223  3.1670 -0.1048  3.0901
   29SAPC  C318 3945   4.659   2.232   8.381  0.0526 -0.3598  0.6442
   29SAPC  H18X 3946   4.652   2.343   8.389 -0.0529 -0.2817 -0.3508
   29SAPC  H18Y 3947   4.734   2.201   8.457 -1.6841 -2.6635  1.5277
   29SAPC  H18Z 3948   4.561   2.181   8.396 -0.7897  0.3126 -2.0117
   30SAPC     N 3949   5.166   1.485   6.311  0.4626  0.0651 -0.1051
   30SAPC   C12 3950   5.188   1.489   6.166 -0.6030 -0.2488 -0.4875
   30SAPC  H12A 3951   5.094   1.514   6.119 -1.5507 -2.1346  0.2972
   30SAPC  H12B 3952   5.224   1.393   6.132  0.6587  0.9705 -2.8463
   30SAPC   C13 3953   5.072   1.366   6.334  0.2085 -0.2529  0.1176
   30SAPC  H13A 3954   5.116   1.271   6.306 -1.7000 -1.1181 -0.0893
   30SAPC  H13B 3955   5.062   1.358   6.441  3.1321  1.5529  0.6493
   30SAPC  H13C 3956   4.971   1.382   6.299 -1.0467 -0.4612  3.3046
   30SAPC   C14 3957   5.291   1.470   6.382  0.6463 -0.0995 -0.6886
   30SAPC  H14A 3958   5.273   1.476   6.489  0.6373  0.3959 -0.7169
   30SAPC  H14B 3959   5.336   1.378   6.345  0.7721 -0.8858  1.2936
   30SAPC  H14C 3960   5.357   1.551   6.360  0.6999  0.0353 -0.0563
   30SAPC   C15 3961   5.107   1.609   6.351 -0.2399 -0.4267  0.0854
   30SAPC  H15A 3962   5.012   1.639   6.309 -1.4197 -1.0997  2.1419
   30SAPC  H15B 3963   5.095   1.619   6.458  0.5590 -1.8966  0.3510
   30SAPC  H15C 3964   5.168   1.693   6.322 -1.1824  0.5064  0.7603
   30SAPC   C11 3965   5.306   1.577   6.104  0.5619 -0.6085  0.1582
   30SAPC  H11A 3966   5.313   1.548   5.997 -1.9935  1.0257 -0.5490
   30SAPC  H11B 3967   5.402   1.555   6.156 -0.6085 -0.6696  2.4575
   30SAPC     P 3968   5.368   1.826   6.169 -0.0359 -0.0559 -0.4608
   30SAPC   O13 3969   5.481   1.838   6.077  0.1301 -0.4697 -0.3396
   30SAPC   O14 3970   5.288   1.947   6.211 -0.3879  0.0445 -0.4921
   30SAPC   O12 3971   5.266   1.716   6.107  0.1788  0.1809  0.6739
   30SAPC   O11 3972   5.426   1.752   6.297  0.2904 -0.3707 -0.2659
   30SAPC    C1 3973   5.555   1.789   6.337  0.0988 -0.5002 -0.3387
   30SAPC    HA 3974   5.626   1.726   6.278  0.0322  0.8492 -1.9429
   30SAPC    HB 3975   5.582   1.896   6.322 -0.1735 -0.4238 -0.2750
   30SAPC    C2 3976   5.563   1.778   6.492  0.0769  1.0111  0.2162
   30SAPC    HS 3977   5.543   1.672   6.519  0.5848  0.8231 -0.1447
   30SAPC   O21 3978   5.460   1.856   6.558 -0.1626 -0.2618  0.1732
   30SAPC   C21 3979   5.350   1.797   6.599 -0.0335 -0.0165  0.1785
   30SAPC   O22 3980   5.331   1.677   6.609 -0.2732  0.0377  0.0029
   30SAPC   C22 3981   5.238   1.895   6.621 -0.5519 -0.2423 -0.6026
   30SAPC   H2R 3982   5.267   1.996   6.657 -2.8611  0.4340 -0.5051
   30SAPC   H2S 3983   5.169   1.898   6.534  0.2954  1.9291 -1.2667
   30SAPC    C3 3984   5.698   1.824   6.546 -0.4751 -0.1565 -0.0616
   30SAPC    HX 3985   5.727   1.922   6.502  0.1213 -0.1610  0.3242
   30SAPC    HY 3986   5.775   1.755   6.505 -1.6243 -0.4938 -1.8110
   30SAPC   O31 3987   5.695   1.819   6.694 -0.1411 -0.2163  0.4753
   30SAPC   C31 3988   5.737   1.927   6.755  0.4490  0.3269 -0.4514
   30SAPC   O32 3989   5.785   2.023   6.698  0.0774  0.5676  0.0072
   30SAPC   C32 3990   5.719   1.907   6.908  0.2253  0.3265  0.3351
   30SAPC   H2X 3991   5.820   1.893   6.952  0.2073 -1.2128 -0.0508
   30SAPC   H2Y 3992   5.643   1.829   6.932  0.5963 -0.8168 -1.9784
   30SAPC   C23 3993   5.167   1.862   6.756  0.0414  0.1009 -0.6358
   30SAPC   H3R 3994   5.102   1.771   6.759 -0.6337  0.5753 -0.6143
   30SAPC   H3S 3995   5.090   1.941   6.772 -0.7507 -0.7588 -0.0310
   30SAPC   C24 3996   5.260   1.868   6.879  0.1992  0.0391  0.4654
   30SAPC   H4R 3997   5.327   1.956   6.868 -0.0203 -0.0747 -2.6064
   30SAPC   H4S 3998   5.331   1.784   6.865  2.1473  1.9047 -1.5437
   30SAPC   C25 3999   5.193   1.843   7.013 -0.1168 -0.1005  0.0292
   30SAPC   H5R 4000   5.098   1.788   7.015 -1.3285  1.7244 -1.9598
   30SAPC   C26 4001   5.212   1.906   7.128 -0.2050 -0.4048 -0.2445
   30SAPC   H6R 4002   5.143   1.877   7.208 -2.7380  1.0205 -1.7711
   30SAPC   C27 4003   5.305   2.023   7.160  0.6036 -0.2867 -1.0362
   30SAPC   H7R 4004   5.359   2.063   7.071  0.0447  0.5328 -1.0195
   30SAPC   H7S 4005   5.385   1.989   7.229  0.2451  1.0251  0.0761
   30SAPC   C28 4006   5.234   2.140   7.227  0.3729 -0.2978 -0.1198
   30SAPC   H8R 4007   5.204   2.226   7.164 -0.1310 -0.6569 -0.3776
   30SAPC   C29 4008   5.199   2.142   7.360  0.5022 -0.4530  0.4030
   30SAPC   H9R 4009   5.165   2.236   7.407 -0.4301 -0.3485 -0.4502
   30SAPC  C210 4010   5.233   2.038   7.470 -0.3867 -0.0599 -0.1226
   30SAPC  H10R 4011   5.311   1.969   7.431  0.6671 -0.5811  2.7079
   30SAPC  H10S 4012   5.147   1.973   7.495  0.5384 -1.4348 -0.3996
   30SAPC  C211 4013   5.270   2.103   7.601 -0.1426  0.0115 -0.1649
   30SAPC  H11R 4014   5.255   2.212   7.613  0.0633 -0.2309  3.3402
   30SAPC  C212 4015   5.347   2.052   7.695 -0.4496 -0.0518 -0.4044
   30SAPC  H12R 4016   5.382   2.110   7.782  1.1092 -1.1247 -0.2644
   30SAPC  C213 4017   5.401   1.912   7.695  0.3887 -0.2068  0.4377
   30SAPC  H13R 4018   5.499   1.911   7.643 -1.0174 -2.0792 -2.4608
   30SAPC  H13S 4019   5.333   1.851   7.633  0.7788  0.9821 -1.2492
   30SAPC  C214 4020   5.391   1.851   7.836  0.5003  0.0072  0.1431
   30SAPC  H14R 4021   5.336   1.898   7.919 -1.4140 -0.1647 -0.9799
   30SAPC  C215 4022   5.420   1.718   7.847  0.9362  0.0125 -0.1019
   30SAPC  H15R 4023   5.411   1.669   7.945  2.3542  0.1519  0.1231
   30SAPC  C216 4024   5.482   1.635   7.739 -0.3145 -0.4221  0.0313
   30SAPC  H16R 4025   5.553   1.693   7.677  0.5032 -0.5370  0.8340
   30SAPC  H16S 4026   5.409   1.597   7.664  0.7512 -0.7969 -0.8278
   30SAPC  C217 4027   5.580   1.516   7.787  0.3804 -0.4757 -0.0711
   30SAPC  H17R 4028   5.650   1.570   7.854  1.0626 -0.1975 -0.9904
   30SAPC  H17S 4029   5.620   1.482   7.689  1.0296  1.1178 -0.3870
   30SAPC  C218 4030   5.513   1.407   7.870  0.0606 -0.3280  0.2430
   30SAPC  H18R 4031   5.501   1.461   7.966  2.2793 -1.2009  1.0729
   30SAPC  H18S 4032   5.575   1.317   7.889  1.5588  0.7439  0.6039
   30SAPC  C219 4033   5.375   1.359   7.816  0.4012 -0.1473 -0.5805
   30SAPC  H19R 4034   5.394   1.288   7.733  2.7110 -3.8649  2.7690
   30SAPC  H19S 4035   5.310   1.442   7.780 -1.6006 -1.5311 -0.3705
   30SAPC  C220 4036   5.290   1.289   7.929 -0.6390  0.2192 -0.2122
   30SAPC  H20R 4037   5.186   1.301   7.892 -0.9321  0.3673  0.6215
   30SAPC  H20S 4038   5.327   1.345   8.018 -0.4957  1.8695 -1.2835
   30SAPC  H20T 4039   5.329   1.185   7.923  1.6595  1.1164 -3.0001
   30SAPC   C33 4040   5.674   2.043   6.962  0.3155 -0.2298  0.0248
   30SAPC   H3X 4041   5.566   2.056   6.939  0.4009 -0.1036 -0.3100
   30SAPC   H3Y 4042   5.732   2.122   6.910 -2.9701  1.3206 -1.6227
   30SAPC   C34 4043   5.702   2.051   7.113 -0.0084  0.4230 -0.4201
   30SAPC   H4X 4044   5.811   2.044   7.133  0.4255 -2.0604 -2.9772
   30SAPC   H4Y 4045   5.655   1.958   7.151  1.9462 -0.0082  1.1385
   30SAPC   C35 4046   5.642   2.177   7.174 -0.0863  0.7100 -0.0544
   30SAPC   H5X 4047   5.540   2.181   7.130 -0.0522 -0.8666 -0.3257
   30SAPC   H5Y 4048   5.693   2.268   7.136  0.4250 -0.0214 -1.1633
   30SAPC   C36 4049   5.649   2.192   7.327  0.0633 -0.9923  0.2815
   30SAPC   H6X 4050   5.756   2.202   7.352 -0.1774  0.1498  0.9091
   30SAPC   H6Y 4051   5.608   2.100   7.374  0.9265  0.0112  3.2824
   30SAPC   C37 4052   5.551   2.309   7.373 -0.8823 -0.4310  0.8241
   30SAPC   H7X 4053   5.446   2.282   7.349 -0.7584 -0.9563  0.8693
   30SAPC   H7Y 4054   5.579   2.394   7.306 -2.1593  0.0062  0.8228
   30SAPC   C38 4055   5.556   2.333   7.524  0.0519 -0.3788 -0.1066
   30SAPC   H8X 4056   5.658   2.350   7.563 -0.6379  0.5230  1.4116
   30SAPC   H8Y 4057   5.528   2.240   7.578 -3.9239  1.2951  1.1228
   30SAPC   C39 4058   5.462   2.441   7.570  0.2653  0.1632 -0.2903
   30SAPC   H9X 4059   5.359   2.436   7.530 -0.3289 -0.0569  1.2002
   30SAPC   H9Y 4060   5.505   2.536   7.531 -0.6296  0.3185 -0.9278
   30SAPC  C310 4061   5.439   2.440   7.724  0.1808  0.2417  0.0562
   30SAPC  H10X 4062   5.530   2.444   7.787 -1.0278  1.3461  1.8121
   30SAPC  H10Y 4063   5.385   2.344   7.740  1.1327 -0.4337 -0.6936
   30SAPC  C311 4064   5.342   2.548   7.775  0.3340  0.3702  0.7075
   30SAPC  H11X 4065   5.327   2.521   7.882 -2.2402  0.1344  0.3733
   30SAPC  H11Y 4066   5.242   2.536   7.727  0.8579  2.2752 -0.9926
   30SAPC  C312 4067   5.370   2.703   7.763  0.2394 -0.1737 -0.2508
   30SAPC  H12X 4068   5.386   2.727   7.656 -0.9719  2.4395  0.0931
   30SAPC  H12Y 4069   5.470   2.710   7.810  1.3542  0.4267 -2.5496
   30SAPC  C313 4070   5.272   2.797   7.821 -0.3098 -0.0470  0.0056
   30SAPC  H13X 4071   5.276   2.774   7.930  2.6178  5.1816  1.3644
   30SAPC  H13Y 4072   5.166   2.782   7.790 -1.3825  3.1603  1.6458
   30SAPC  C314 4073   5.311   2.940   7.805  0.0704  0.8345  0.1129
   30SAPC  H14X 4074   5.361   2.948   7.706  1.7424 -0.4582  0.7950
   30SAPC  H14Y 4075   5.383   2.970   7.884  1.2533  2.1191 -1.3857
   30SAPC  C315 4076   5.184   3.027   7.803  0.3526 -0.1984  0.4739
   30SAPC  H15X 4077   5.215   3.132   7.818  0.4825 -0.2193  0.3538
   30SAPC  H15Y 4078   5.123   2.998   7.892  1.1245 -1.4546  0.6288
   30SAPC  C316 4079   5.105   3.028   7.670  0.4506  0.5220 -0.2783
   30SAPC  H16X 4080   5.013   3.090   7.674 -0.7976 -1.0545 -2.4241
   30SAPC  H16Y 4081   5.085   2.921   7.648  0.3500  0.2655  0.9737
   30SAPC  C317 4082   5.187   3.082   7.548  0.2715  0.3237  0.2465
   30SAPC  H17X 4083   5.260   3.005   7.518 -0.7208 -0.6371  0.2124
   30SAPC  H17Y 4084   5.252   3.168   7.576  0.3462 -0.0276  1.2015
   30SAPC  C318 4085   5.106   3.130   7.433 -0.0381 -0.1354 -0.2998
   30SAPC  H18X 4086   5.055   3.226   7.455 -0.0371 -0.2439  0.1885
   30SAPC  H18Y 4087   5.021   3.069   7.396  0.8706 -0.9530 -1.1006
   30SAPC  H18Z 4088   5.170   3.146   7.343 -1.7585 -1.6057 -1.8852
   31SAPC     N 4089   5.038   4.336   5.929  0.1544  0.3581 -0.3141
   31SAPC   C12 4090   5.045   4.297   6.078 -0.2534  0.7505  0.0342
   31SAPC  H12A 4091   5.089   4.200   6.094  0.0612  0.8844 -0.0230
   31SAPC  H12B 4092   4.942   4.282   6.106 -0.3167 -0.8090 -0.9483
   31SAPC   C13 4093   4.972   4.226   5.856  0.5947 -0.6812 -0.3152
   31SAPC  H13A 4094   4.959   4.250   5.752  1.5365 -1.2609 -0.5832
   31SAPC  H13B 4095   5.036   4.140   5.847  2.2783  0.6366 -1.7264
   31SAPC  H13C 4096   4.879   4.202   5.904  1.2972 -0.1711  1.3771
   31SAPC   C14 4097   4.957   4.465   5.907  0.6740 -0.3828  0.2767
   31SAPC  H14A 4098   4.999   4.546   5.965 -1.2618  0.2692  0.8675
   31SAPC  H14B 4099   4.948   4.487   5.802  0.4725 -0.7050  0.2252
   31SAPC  H14C 4100   4.856   4.446   5.940  0.8215 -1.3611  0.1953
   31SAPC   C15 4101   5.181   4.353   5.873  0.1132 -0.2873 -0.0875
   31SAPC  H15A 4102   5.245   4.379   5.957 -1.6306 -2.3612  2.0319
   31SAPC  H15B 4103   5.214   4.254   5.845 -0.4690 -0.7897  0.9345
   31SAPC  H15C 4104   5.186   4.425   5.793  0.1309  1.4736  1.4291
   31SAPC   C11 4105   5.096   4.403   6.183  0.1620 -0.4030 -0.0329
   31SAPC  H11A 4106   5.078   4.368   6.287 -0.5130 -0.2551 -0.1004
   31SAPC  H11B 4107   5.034   4.495   6.184  0.0516 -0.4778  0.6088
   31SAPC     P 4108   5.348   4.369   6.257  0.3114  0.3229 -0.4251
   31SAPC   O13 4109   5.444   4.279   6.190 -0.3992 -0.2290 -0.2051
   31SAPC   O14 4110   5.399   4.484   6.327 -0.2633  0.1031 -0.6141
   31SAPC   O12 4111   5.238   4.423   6.155 -0.1016  0.4331  0.3306
   31SAPC   O11 4112   5.270   4.292   6.375 -0.3090  0.5983  0.1453
   31SAPC    C1 4113   5.325   4.195   6.459  0.2281 -0.0746  0.5980
   31SAPC    HA 4114   5.251   4.115   6.479  0.1344  0.0896  0.9179
   31SAPC    HB 4115   5.414   4.147   6.412 -1.2918 -2.1077 -0.3741
   31SAPC    C2 4116   5.367   4.246   6.598  0.7340 -0.7416 -0.3436
   31SAPC    HS 4117   5.436   4.329   6.570 -0.2714  0.0522 -0.5072
   31SAPC   O21 4118   5.433   4.143   6.674  0.8351  0.0489  0.2092
   31SAPC   C21 4119   5.560   4.113   6.644  0.5125  0.2543 -0.3409
   31SAPC   O22 4120   5.626   4.169   6.558  0.0196  0.7276 -0.0860
   31SAPC   C22 4121   5.612   4.003   6.742 -0.1278 -0.3177 -0.6827
   31SAPC   H2R 4122   5.614   4.038   6.847 -1.7420 -2.7754  0.2513
   31SAPC   H2S 4123   5.541   3.918   6.730 -0.1847 -0.7391  2.1389
   31SAPC    C3 4124   5.245   4.301   6.678  0.3777 -0.4997 -0.8129
   31SAPC    HX 4125   5.173   4.217   6.677 -0.4599  0.1883 -0.0168
   31SAPC    HY 4126   5.191   4.386   6.631 -1.6343 -0.6558  1.0903
   31SAPC   O31 4127   5.287   4.342   6.810  0.7583 -0.1193 -0.6910
   31SAPC   C31 4128   5.304   4.470   6.828 -0.4845 -0.5538 -0.4246
   31SAPC   O32 4129   5.285   4.554   6.744  0.1671  0.0854  0.2937
   31SAPC   C32 4130   5.354   4.505   6.960  0.0185 -0.4305 -0.7330
   31SAPC   H2X 4131   5.461   4.531   6.947 -0.0491 -0.2666 -0.9661
   31SAPC   H2Y 4132   5.349   4.416   7.027  0.0827 -0.5228 -0.8514
   31SAPC   C23 4133   5.758   3.969   6.704 -0.6290  0.1791  0.1098
   31SAPC   H3R 4134   5.818   4.061   6.717  0.9876 -0.7953 -0.1011
   31SAPC   H3S 4135   5.762   3.920   6.604  2.2045  0.5652 -0.0482
   31SAPC   C24 4136   5.822   3.868   6.806  0.5402  0.0730  0.4602
   31SAPC   H4R 4137   5.748   3.785   6.807 -2.0175  2.1599 -0.6373
   31SAPC   H4S 4138   5.801   3.919   6.902 -3.6156  0.5856 -0.5213
   31SAPC   C25 4139   5.963   3.829   6.779  0.1842 -0.0765 -0.1002
   31SAPC   H5R 4140   5.995   3.836   6.674 -0.7788  1.5319 -0.3177
   31SAPC   C26 4141   6.049   3.803   6.883 -0.4158  0.1799 -0.4827
   31SAPC   H6R 4142   6.155   3.789   6.857 -0.6002  0.5401 -1.4512
   31SAPC   C27 4143   6.005   3.784   7.027  0.1267 -0.9640 -1.1943
   31SAPC   H7R 4144   5.907   3.733   7.025 -0.6589  0.3905  0.3812
   31SAPC   H7S 4145   5.966   3.881   7.064  3.0865 -0.4485  1.0128
   31SAPC   C28 4146   6.101   3.728   7.131  0.7628  0.2417  0.0622
   31SAPC   H8R 4147   6.206   3.717   7.099  0.2920  0.3937 -1.6213
   31SAPC   C29 4148   6.080   3.684   7.253 -0.3689  0.9739 -0.4287
   31SAPC   H9R 4149   6.160   3.660   7.325  0.5524 -1.6106 -2.1626
   31SAPC  C210 4150   5.940   3.681   7.311 -0.5629  0.2925  0.0961
   31SAPC  H10R 4151   5.862   3.680   7.232  1.1104  1.8739 -1.7049
   31SAPC  H10S 4152   5.930   3.779   7.362  0.7371  0.1940  0.5970
   31SAPC  C211 4153   5.921   3.576   7.418 -0.0255 -0.7741  1.0359
   31SAPC  H11R 4154   5.877   3.481   7.383  0.5797 -1.2949  1.6734
   31SAPC  C212 4155   5.951   3.577   7.554  0.2347  0.3359 -0.0661
   31SAPC  H12R 4156   5.917   3.494   7.618 -1.9880  1.4779  0.3305
   31SAPC  C213 4157   6.013   3.692   7.627 -0.9208  0.9044 -0.6117
   31SAPC  H13R 4158   5.928   3.749   7.670 -1.6943 -1.3720  1.0725
   31SAPC  H13S 4159   6.069   3.760   7.558  1.3445 -0.7331 -0.5083
   31SAPC  C214 4160   6.108   3.645   7.732 -0.0176  0.5811  0.0269
   31SAPC  H14R 4161   6.215   3.640   7.706 -0.1815 -2.1496 -0.4106
   31SAPC  C215 4162   6.083   3.604   7.857  0.0135 -0.8380 -0.1558
   31SAPC  H15R 4163   6.168   3.564   7.916  1.1708 -0.6535 -1.6300
   31SAPC  C216 4164   5.947   3.591   7.920 -0.1017 -0.1200 -0.6291
   31SAPC  H16R 4165   5.877   3.517   7.875  2.3533 -2.1551 -1.3591
   31SAPC  H16S 4166   5.905   3.693   7.914 -0.6066 -0.4142 -2.5975
   31SAPC  C217 4167   5.954   3.557   8.072 -0.0616  0.5833 -0.3422
   31SAPC  H17R 4168   6.043   3.607   8.117  0.6162  0.7182 -1.7595
   31SAPC  H17S 4169   5.957   3.448   8.089 -0.3311  0.9215  2.2040
   31SAPC  C218 4170   5.832   3.600   8.146 -0.5141 -0.8034 -0.6997
   31SAPC  H18R 4171   5.737   3.543   8.137 -0.8023 -0.6013  0.9025
   31SAPC  H18S 4172   5.809   3.703   8.113 -1.0242 -0.9599 -0.8462
   31SAPC  C219 4173   5.865   3.606   8.297  0.0569  0.4531  0.4565
   31SAPC  H19R 4174   5.940   3.686   8.308  2.7363 -1.9228  0.5687
   31SAPC  H19S 4175   5.910   3.507   8.322  0.8136  0.9367  1.0472
   31SAPC  C220 4176   5.743   3.631   8.384 -0.4984  0.0152  0.0281
   31SAPC  H20R 4177   5.708   3.735   8.364 -3.0039 -1.1510 -2.3879
   31SAPC  H20S 4178   5.774   3.628   8.491 -0.2797  0.4191 -0.0233
   31SAPC  H20T 4179   5.656   3.564   8.364 -2.9727  2.7007  0.9735
   31SAPC   C33 4180   5.303   4.640   7.026  0.3676  0.5051 -0.0916
   31SAPC   H3X 4181   5.193   4.656   7.019  0.2004  0.2242  1.4361
   31SAPC   H3Y 4182   5.368   4.719   6.983  1.2598  0.8960  1.8528
   31SAPC   C34 4183   5.345   4.631   7.174  0.0862  0.3333  0.3278
   31SAPC   H4X 4184   5.450   4.594   7.179 -0.7829 -2.2069  1.3530
   31SAPC   H4Y 4185   5.285   4.555   7.228 -0.6853  0.2156 -0.6639
   31SAPC   C35 4186   5.319   4.756   7.262  0.1421  0.3141  0.1651
   31SAPC   H5X 4187   5.377   4.842   7.223 -1.2466  0.6392 -1.2934
   31SAPC   H5Y 4188   5.352   4.741   7.367 -0.8143  0.8353  0.5536
   31SAPC   C36 4189   5.174   4.800   7.268 -0.4760  0.1456  0.2295
   31SAPC   H6X 4190   5.113   4.712   7.297 -1.5203  0.3431 -1.2878
   31SAPC   H6Y 4191   5.140   4.832   7.167 -1.3812  0.3103  0.5859
   31SAPC   C37 4192   5.130   4.912   7.363 -0.4479 -0.7907 -0.1748
   31SAPC   H7X 4193   5.079   4.989   7.301  1.2331  1.7065  1.3370
   31SAPC   H7Y 4194   5.227   4.964   7.380 -1.6767  0.9956  1.9646
   31SAPC   C38 4195   5.073   4.857   7.491  0.0160  0.5787 -0.5148
   31SAPC   H8X 4196   5.138   4.772   7.519  0.9026  1.3867 -0.0889
   31SAPC   H8Y 4197   4.972   4.813   7.477 -0.9829  2.1094  1.3586
   31SAPC   C39 4198   5.062   4.961   7.609  0.1242  0.4980  0.2986
   31SAPC   H9X 4199   4.973   4.944   7.673  0.2268  2.3228  0.9942
   31SAPC   H9Y 4200   5.037   5.056   7.557  1.4418 -0.2145 -1.7730
   31SAPC  C310 4201   5.191   4.967   7.694 -0.0313  0.6380 -0.2523
   31SAPC  H10X 4202   5.207   5.074   7.722  1.3279  0.7840 -1.4608
   31SAPC  H10Y 4203   5.279   4.952   7.628  1.5088 -1.2821  2.0615
   31SAPC  C311 4204   5.216   4.877   7.820 -0.5582 -0.1993 -0.2057
   31SAPC  H11X 4205   5.215   4.774   7.778  1.0425  0.5565 -2.3622
   31SAPC  H11Y 4206   5.140   4.885   7.900 -1.9396  0.2853 -1.5198
   31SAPC  C312 4207   5.358   4.895   7.890  0.5181 -0.1885  0.1613
   31SAPC  H12X 4208   5.441   4.898   7.817  0.1061 -2.6976 -0.5112
   31SAPC  H12Y 4209   5.369   4.811   7.961  1.0421 -0.1503  0.1229
   31SAPC  C313 4210   5.374   5.011   7.987 -0.3661  0.3296 -0.8666
   31SAPC  H13X 4211   5.448   4.977   8.063 -0.0142 -0.4920 -1.5654
   31SAPC  H13Y 4212   5.289   5.034   8.055 -1.3019  2.4541 -2.6077
   31SAPC  C314 4213   5.429   5.135   7.920 -0.0999 -0.0933  0.0583
   31SAPC  H14X 4214   5.344   5.172   7.858 -1.0749 -1.8701  0.2816
   31SAPC  H14Y 4215   5.517   5.113   7.856  0.7447 -1.1016  1.5071
   31SAPC  C315 4216   5.452   5.253   8.017 -0.3330 -1.0413  0.1299
   31SAPC  H15X 4217   5.362   5.279   8.077  0.6780  0.2278  1.1612
   31SAPC  H15Y 4218   5.486   5.339   7.956  0.4707 -0.2026  1.6916
   31SAPC  C316 4219   5.566   5.234   8.126 -0.0129 -0.0361  0.1411
   31SAPC  H16X 4220   5.654   5.197   8.070 -0.1623  1.7151 -1.3157
   31SAPC  H16Y 4221   5.525   5.147   8.182 -1.7568 -0.6893 -2.0217
   31SAPC  C317 4222   5.600   5.357   8.208  0.3310  0.5745  0.4217
   31SAPC  H17X 4223   5.655   5.420   8.134  0.4525 -0.4529 -0.3886
   31SAPC  H17Y 4224   5.672   5.334   8.289  0.9104  3.6824  0.9333
   31SAPC  C318 4225   5.487   5.439   8.263 -0.2836 -0.0832 -0.0413
   31SAPC  H18X 4226   5.412   5.467   8.186  0.5291  1.5524 -0.2924
   31SAPC  H18Y 4227   5.528   5.534   8.304  0.4688  1.1992 -3.4119
   31SAPC  H18Z 4228   5.447   5.379   8.348 -0.0347  2.4348  1.9877
   32SAPC     N 4229   1.876   2.618   5.430  0.6660  0.3260 -0.6270
   32SAPC   C12 4230   1.835   2.570   5.563 -0.8129  0.5260 -1.2702
   32SAPC  H12A 4231   1.844   2.463   5.569  2.2802  0.7667  1.2154
   32SAPC  H12B 4232   1.728   2.578   5.573 -1.1011 -2.5092 -1.1696
   32SAPC   C13 4233   1.825   2.756   5.396 -0.0269  0.0121 -0.1263
   32SAPC  H13A 4234   1.723   2.773   5.426 -0.1974 -0.2876 -0.5323
   32SAPC  H13B 4235   1.870   2.840   5.446 -0.6600  0.1996  0.1341
   32SAPC  H13C 4236   1.813   2.770   5.290 -2.6101 -3.4257 -0.4590
   32SAPC   C14 4237   2.030   2.631   5.424 -0.0370  0.1183 -0.4256
   32SAPC  H14A 4238   2.071   2.683   5.339  0.9249 -1.7527 -1.1757
   32SAPC  H14B 4239   2.062   2.685   5.511  1.2234 -0.6767 -0.3726
   32SAPC  H14C 4240   2.081   2.536   5.423  2.0387  1.1897 -1.5841
   32SAPC   C15 4241   1.831   2.524   5.326  0.1730 -0.5135  0.4696
   32SAPC  H15A 4242   1.878   2.430   5.350 -1.1353 -1.0828  0.8885
   32SAPC  H15B 4243   1.724   2.510   5.323  0.3314 -1.9818 -2.7552
   32SAPC  H15C 4244   1.872   2.553   5.230  2.0842  0.6543  1.5605
   32SAPC   C11 4245   1.905   2.631   5.687  0.5871 -0.2645  0.1362
   32SAPC  H11A 4246   1.843   2.596   5.772  1.9777  2.1382  2.2959
   32SAPC  H11B 4247   1.891   2.741   5.677  1.0689 -0.3886 -2.8236
   32SAPC     P 4248   2.150   2.665   5.797  0.1231  0.0914 -0.4188
   32SAPC   O13 4249   2.252   2.562   5.826 -0.7058  0.1724 -0.1900
   32SAPC   O14 4250   2.199   2.789   5.728  0.2793 -0.0027 -0.4055
   32SAPC   O12 4251   2.045   2.595   5.699 -0.2355  0.4504  0.1973
   32SAPC   O11 4252   2.060   2.700   5.924  0.3666 -0.0525 -0.3642
   32SAPC    C1 4253   2.006   2.829   5.939 -0.4050 -0.0338  0.0858
   32SAPC    HA 4254   2.039   2.897   5.858 -1.6268  3.0735  2.0417
   32SAPC    HB 4255   1.897   2.812   5.934 -0.5146  0.9133 -2.3344
   32SAPC    C2 4256   2.036   2.893   6.083 -0.1641 -0.3461 -0.4404
   32SAPC    HS 4257   2.144   2.917   6.084 -0.1580 -0.2841 -1.6693
   32SAPC   O21 4258   2.015   2.786   6.181 -0.2626 -0.4905  0.0636
   32SAPC   C21 4259   2.112   2.724   6.231 -0.9175 -0.5198 -0.6729
   32SAPC   O22 4260   2.229   2.742   6.200  0.4638  0.7020 -0.9912
   32SAPC   C22 4261   2.070   2.630   6.345 -0.4834  0.4799  0.4451
   32SAPC   H2R 4262   2.025   2.544   6.291 -0.4424 -0.5414  1.9612
   32SAPC   H2S 4263   2.164   2.590   6.390 -1.2693 -2.5810 -0.3940
   32SAPC    C3 4264   1.952   3.016   6.117 -0.6902 -0.1482  0.3778
   32SAPC    HX 4265   1.843   2.997   6.124 -1.2687  1.7214 -2.2732
   32SAPC    HY 4266   1.961   3.089   6.035 -1.4776 -0.0141  0.4027
   32SAPC   O31 4267   2.004   3.076   6.239 -0.7439 -0.4181  0.5690
   32SAPC   C31 4268   2.122   3.145   6.222 -0.0410 -0.0331 -0.5950
   32SAPC   O32 4269   2.171   3.170   6.113  0.2044  0.5006 -0.0341
   32SAPC   C32 4270   2.180   3.177   6.356 -0.5228 -0.2742  0.6978
   32SAPC   H2X 4271   2.095   3.208   6.420  0.3159 -1.4876  2.4918
   32SAPC   H2Y 4272   2.245   3.266   6.340  1.8669 -1.9675  0.4580
   32SAPC   C23 4273   1.974   2.703   6.441 -0.5654 -0.3929 -0.7168
   32SAPC   H3R 4274   1.890   2.755   6.389 -1.0666 -1.9871 -1.5693
   32SAPC   H3S 4275   2.031   2.785   6.490 -0.7817 -0.1379 -0.8893
   32SAPC   C24 4276   1.927   2.603   6.551 -1.2961  0.3357  0.0065
   32SAPC   H4R 4277   2.020   2.560   6.595 -1.3099 -0.3501 -0.6075
   32SAPC   H4S 4278   1.867   2.529   6.494 -1.2941  0.0015  0.4346
   32SAPC   C25 4279   1.846   2.675   6.655 -0.2863  0.2907 -0.5970
   32SAPC   H5R 4280   1.761   2.739   6.626 -0.4791 -0.1739 -1.0754
   32SAPC   C26 4281   1.861   2.655   6.787 -0.0832  0.1061  0.1036
   32SAPC   H6R 4282   1.812   2.724   6.857  0.2022  1.5357 -1.0845
   32SAPC   C27 4283   1.966   2.576   6.865  0.7572 -0.2389  0.9491
   32SAPC   H7R 4284   1.988   2.477   6.819  1.5437 -0.6808  2.2176
   32SAPC   H7S 4285   1.920   2.554   6.964  2.5477 -0.5252  1.7585
   32SAPC   C28 4286   2.094   2.641   6.898 -0.3138  0.4435  0.3124
   32SAPC   H8R 4287   2.170   2.631   6.820 -1.1084 -2.3949 -0.1758
   32SAPC   C29 4288   2.124   2.708   7.006  0.1709 -0.2058  0.2381
   32SAPC   H9R 4289   2.225   2.753   7.002 -0.9842  2.5373 -0.4932
   32SAPC  C210 4290   2.043   2.736   7.126  0.1642 -0.3007 -0.3744
   32SAPC  H10R 4291   1.934   2.719   7.111 -0.0763  2.3363 -2.2906
   32SAPC  H10S 4292   2.039   2.847   7.128  0.2061 -0.3052  1.2146
   32SAPC  C211 4293   2.094   2.662   7.249  0.6714 -0.4123  0.4488
   32SAPC  H11R 4294   2.078   2.553   7.246  0.9028 -0.4403 -1.4941
   32SAPC  C212 4295   2.165   2.705   7.355 -0.1648 -0.0608  0.0500
   32SAPC  H12R 4296   2.191   2.637   7.437  0.7407  0.4167  0.1747
   32SAPC  C213 4297   2.224   2.845   7.375 -0.1230  0.0629 -0.8084
   32SAPC  H13R 4298   2.260   2.897   7.284  2.2620  3.5546  1.8587
   32SAPC  H13S 4299   2.306   2.826   7.448 -1.8560 -0.6696  1.0521
   32SAPC  C214 4300   2.132   2.950   7.425 -0.1319 -0.6247 -0.4289
   32SAPC  H14R 4301   2.095   3.011   7.341  1.9410  2.2677  0.5875
   32SAPC  C215 4302   2.089   2.987   7.552  0.1461  0.1685 -0.3726
   32SAPC  H15R 4303   2.007   3.058   7.561 -0.1008  0.1141 -1.8510
   32SAPC  C216 4304   2.102   2.897   7.668  0.2970  0.4667  0.1874
   32SAPC  H16R 4305   2.205   2.856   7.668  0.4569  0.8586 -0.7988
   32SAPC  H16S 4306   2.035   2.809   7.664 -1.8935  2.0904 -0.6990
   32SAPC  C217 4307   2.090   2.966   7.803 -0.1395  0.3585  0.3030
   32SAPC  H17R 4308   2.138   3.065   7.789  1.8215 -0.7691 -1.5010
   32SAPC  H17S 4309   2.168   2.911   7.859  0.7816 -1.0538 -2.2358
   32SAPC  C218 4310   1.959   2.975   7.878 -0.0890  0.9173 -0.3433
   32SAPC  H18R 4311   1.885   3.020   7.809 -1.9314 -0.1920  0.8066
   32SAPC  H18S 4312   1.976   3.052   7.956 -1.0664  0.3788  0.4378
   32SAPC  C219 4313   1.902   2.846   7.943  0.2520  0.7842 -0.1141
   32SAPC  H19R 4314   1.986   2.796   7.996 -0.8469 -0.2154  0.7533
   32SAPC  H19S 4315   1.865   2.765   7.877  0.1303  0.0826  0.7864
   32SAPC  C220 4316   1.793   2.878   8.042 -0.0460  0.1362  0.2219
   32SAPC  H20R 4317   1.844   2.927   8.128  1.6421 -1.1915  0.0399
   32SAPC  H20S 4318   1.736   2.791   8.081 -2.4295  1.5442  0.0478
   32SAPC  H20T 4319   1.736   2.950   7.980  0.8260 -0.8389 -1.7893
   32SAPC   C33 4320   2.262   3.061   6.416 -0.3177 -0.4468  0.2282
   32SAPC   H3X 4321   2.334   3.026   6.339  0.1090  2.4076 -0.7891
   32SAPC   H3Y 4322   2.205   2.969   6.439 -1.4799  0.2975  0.4088
   32SAPC   C34 4323   2.336   3.108   6.539  0.1497 -0.2573  0.7060
   32SAPC   H4X 4324   2.397   3.193   6.501 -3.5905  1.6683 -1.4835
   32SAPC   H4Y 4325   2.413   3.035   6.573 -0.7030 -1.4905  0.0347
   32SAPC   C35 4326   2.260   3.173   6.661  0.4093  0.3188 -0.6747
   32SAPC   H5X 4327   2.174   3.107   6.686 -1.2731  1.4744 -2.9800
   32SAPC   H5Y 4328   2.210   3.267   6.630  1.4966  1.5617  1.1691
   32SAPC   C36 4329   2.351   3.179   6.782  0.2857 -0.5207  0.2745
   32SAPC   H6X 4330   2.442   3.240   6.760  0.0558  0.3160  1.5150
   32SAPC   H6Y 4331   2.401   3.083   6.806 -0.7329 -1.2319 -0.3784
   32SAPC   C37 4332   2.283   3.238   6.907 -0.7136 -0.5021 -0.5939
   32SAPC   H7X 4333   2.179   3.200   6.919 -0.2250 -1.1967  1.8024
   32SAPC   H7Y 4334   2.282   3.347   6.928  0.2925 -0.9882  2.3693
   32SAPC   C38 4335   2.349   3.192   7.043 -0.0280 -0.2811  0.4329
   32SAPC   H8X 4336   2.458   3.191   7.022  0.0319  0.0659  0.7125
   32SAPC   H8Y 4337   2.311   3.089   7.062 -0.9779 -0.3600 -1.6984
   32SAPC   C39 4338   2.321   3.288   7.164  0.3522  0.6261 -0.4347
   32SAPC   H9X 4339   2.211   3.301   7.175  0.4152  1.2570 -0.5157
   32SAPC   H9Y 4340   2.371   3.386   7.150 -1.6413  1.9184  0.9047
   32SAPC  C310 4341   2.369   3.235   7.302  0.2249 -0.2925 -0.5334
   32SAPC  H10X 4342   2.480   3.237   7.289  0.0082  2.3477 -2.8035
   32SAPC  H10Y 4343   2.336   3.130   7.318  0.9779 -0.4330  0.1462
   32SAPC  C311 4344   2.349   3.337   7.419 -0.0662 -1.0109 -0.1528
   32SAPC  H11X 4345   2.243   3.368   7.429  0.2288 -0.7818  3.3701
   32SAPC  H11Y 4346   2.381   3.438   7.388 -2.5824 -0.6519 -1.8491
   32SAPC  C312 4347   2.404   3.295   7.556 -0.4491  0.8926  0.3087
   32SAPC  H12X 4348   2.515   3.288   7.551 -0.2573  1.2629  2.9861
   32SAPC  H12Y 4349   2.356   3.196   7.572 -0.7159  0.8572 -0.6358
   32SAPC  C313 4350   2.353   3.385   7.669 -0.5560  0.6063 -0.3804
   32SAPC  H13X 4351   2.243   3.376   7.655 -0.2423 -1.1969 -2.2965
   32SAPC  H13Y 4352   2.383   3.489   7.644  0.5721  0.4297  0.1799
   32SAPC  C314 4353   2.379   3.333   7.810 -0.0589 -0.2096  0.6354
   32SAPC  H14X 4354   2.488   3.313   7.806 -0.1061 -0.3237 -0.8037
   32SAPC  H14Y 4355   2.330   3.234   7.823  0.3686 -0.4630  0.3364
   32SAPC  C315 4356   2.341   3.427   7.928  0.1478 -0.4378  0.2114
   32SAPC  H15X 4357   2.242   3.470   7.904  1.7086  3.0228 -0.6822
   32SAPC  H15Y 4358   2.414   3.510   7.914  0.0522 -0.4827 -0.6138
   32SAPC  C316 4359   2.353   3.373   8.070 -0.1043  0.2264 -0.5468
   32SAPC  H16X 4360   2.280   3.290   8.077 -1.0598  1.0885  0.0099
   32SAPC  H16Y 4361   2.322   3.449   8.145 -1.6032 -1.0003  0.1495
   32SAPC  C317 4362   2.500   3.328   8.104 -0.8160 -0.2148  0.0233
   32SAPC  H17X 4363   2.523   3.238   8.043 -1.2973 -0.6142  0.4138
   32SAPC  H17Y 4364   2.488   3.285   8.206  1.2782 -1.7359 -0.3051
   32SAPC  C318 4365   2.603   3.443   8.088  0.1305 -0.0881  0.3233
   32SAPC  H18X 4366   2.612   3.473   7.981 -1.9365 -1.1412 -0.2135
   32SAPC  H18Y 4367   2.704   3.413   8.124  0.6573  1.0484 -0.1648
   32SAPC  H18Z 4368   2.564   3.526   8.150  0.0851  1.2689 -1.4466
   33POPC     N 4369   5.928   2.527  10.715  0.3781  0.3626 -0.4005
   33POPC   C12 4370   5.803   2.450  10.751 -0.4407  0.3320  0.4130
   33POPC  H12A 4371   5.711   2.486  10.708  0.6181  1.8424 -0.6550
   33POPC  H12B 4372   5.781   2.467  10.855 -1.3666 -2.0713  0.6827
   33POPC   C13 4373   5.922   2.656  10.798 -0.1708  0.4190 -0.0656
   33POPC  H13A 4374   5.841   2.722  10.774 -1.1111 -1.2025 -1.6115
   33POPC  H13B 4375   5.918   2.627  10.902 -0.1561 -1.9145 -0.6517
   33POPC  H13C 4376   6.019   2.704  10.798  0.3290 -0.2827  3.7945
   33POPC   C14 4377   6.051   2.455  10.767 -0.2272 -0.1305 -0.2526
   33POPC  H14A 4378   6.139   2.516  10.754 -1.7167  2.0846 -0.5506
   33POPC  H14B 4379   6.037   2.423  10.870 -0.6535 -0.5477 -0.4336
   33POPC  H14C 4380   6.066   2.364  10.711 -2.0577 -0.2994 -0.5228
   33POPC   C15 4381   5.943   2.542  10.569  0.4481 -0.1307  0.2999
   33POPC  H15A 4382   5.858   2.589  10.522  0.6242  1.1781  1.2346
   33POPC  H15B 4383   5.948   2.440  10.535  0.7665 -1.2666  3.4660
   33POPC  H15C 4384   6.033   2.593  10.536  0.8519 -1.8930 -1.5491
   33POPC   C11 4385   5.799   2.297  10.729 -0.3201  0.1606 -0.1709
   33POPC  H11A 4386   5.711   2.255  10.783 -1.9246  0.9464 -2.0581
   33POPC  H11B 4387   5.893   2.257  10.773  0.1675  2.8744  1.5527
   33POPC     P 4388   5.685   2.300  10.487 -0.0849  0.2552 -0.0961
   33POPC   O13 4389   5.611   2.417  10.533 -0.7836  0.3151 -0.0938
   33POPC   O14 4390   5.609   2.177  10.481  0.1768 -0.2309 -0.1207
   33POPC   O12 4391   5.807   2.266  10.583 -0.0472 -0.5997 -0.1937
   33POPC   O11 4392   5.763   2.331  10.358 -0.8274 -0.0358  0.0392
   33POPC    C1 4393   5.851   2.236  10.276  0.8198 -0.7542  0.5607
   33POPC    HA 4394   5.949   2.289  10.275  1.6399 -2.1306  2.1118
   33POPC    HB 4395   5.877   2.143  10.331  2.5064 -1.4446 -1.2985
   33POPC    C2 4396   5.791   2.198  10.142 -0.1060 -0.0353 -0.4422
   33POPC    HS 4397   5.838   2.109  10.094 -1.5079  0.7539 -3.5492
   33POPC   O21 4398   5.806   2.311  10.051 -0.0887  0.0135 -0.4694
   33POPC   C21 4399   5.923   2.316   9.996  0.1763  0.0707  0.3267
   33POPC   O22 4400   6.010   2.233  10.016  0.4490 -0.2697 -0.1962
   33POPC   C22 4401   5.922   2.438   9.898 -0.4841  0.4620 -0.5302
   33POPC   H2R 4402   6.027   2.470   9.883 -0.4943  0.1866 -1.2123
   33POPC   H2S 4403   5.865   2.515   9.954 -0.6445 -1.1446  1.6216
   33POPC    C3 4404   5.633   2.174  10.137  0.1768  0.9739 -0.4242
   33POPC    HX 4405   5.595   2.254  10.204  1.7373  1.0369  0.4271
   33POPC    HY 4406   5.611   2.078  10.188  0.5260  1.7766  1.3219
   33POPC   O31 4407   5.568   2.186  10.007  0.3127  0.8177 -0.0398
   33POPC   C31 4408   5.549   2.073   9.940 -0.1641  0.3048  0.0838
   33POPC   O32 4409   5.593   1.967   9.970  0.2589 -0.4266 -0.2531
   33POPC   C32 4410   5.442   2.097   9.832  0.4591 -1.4192  0.1967
   33POPC   H2X 4411   5.450   2.200   9.790 -1.8865 -1.1529  0.2570
   33POPC   H2Y 4412   5.349   2.090   9.892  0.6313  2.7800  1.3046
   33POPC   C23 4413   5.847   2.416   9.776  0.0688  0.0045 -0.2191
   33POPC   H3R 4414   5.738   2.400   9.795  0.0335  0.4412 -0.0436
   33POPC   H3S 4415   5.875   2.324   9.720  0.4536 -0.3826  0.6004
   33POPC   C24 4416   5.857   2.537   9.683 -0.2575  0.2733 -0.1785
   33POPC   H4R 4417   5.954   2.534   9.628 -0.5687 -0.9776 -0.7002
   33POPC   H4S 4418   5.863   2.638   9.730  0.3740 -0.0721  0.4902
   33POPC   C25 4419   5.758   2.540   9.562  0.1548  0.4400  0.2987
   33POPC   H5R 4420   5.652   2.548   9.594 -0.9213 -1.2792 -2.4404
   33POPC   H5S 4421   5.770   2.440   9.513 -0.6615  0.3620  0.2584
   33POPC   C26 4422   5.791   2.656   9.460 -0.3623 -0.3222  0.0132
   33POPC   H6R 4423   5.901   2.648   9.472 -0.0763  2.3769 -0.3019
   33POPC   H6S 4424   5.752   2.750   9.504  0.3997 -1.1516  2.6699
   33POPC   C27 4425   5.736   2.628   9.309 -0.8546  0.5997 -0.6193
   33POPC   H7R 4426   5.626   2.627   9.323 -0.6875 -0.5299  0.8304
   33POPC   H7S 4427   5.771   2.526   9.282 -1.6116 -0.1679  1.1448
   33POPC   C28 4428   5.773   2.736   9.207  0.1793  0.0372 -0.1436
   33POPC   H8R 4429   5.741   2.838   9.239  0.2476  0.1828 -0.5423
   33POPC   H8S 4430   5.730   2.706   9.109  1.4433 -0.9122 -0.4373
   33POPC   C29 4431   5.917   2.744   9.178  0.2088  0.0635  0.8948
   33POPC   H91 4432   5.979   2.766   9.266  1.0680 -0.0227  0.3264
   33POPC  C210 4433   5.984   2.740   9.063  0.3992 -0.2843 -0.1705
   33POPC  H101 4434   6.094   2.751   9.066  0.2709  0.8918  2.2598
   33POPC  C211 4435   5.927   2.725   8.925  0.1080  0.8848 -0.3551
   33POPC  H11R 4436   5.886   2.819   8.882  1.5282  1.9952  0.6303
   33POPC  H11S 4437   5.843   2.652   8.929  0.9176 -0.0279  0.9937
   33POPC  C212 4438   6.022   2.651   8.826 -0.7552  0.2340  0.4567
   33POPC  H12R 4439   5.994   2.544   8.837 -1.1673  0.2422 -0.3970
   33POPC  H12S 4440   6.127   2.676   8.854 -0.3634  2.1960 -2.3215
   33POPC  C213 4441   5.995   2.688   8.677  0.5448 -0.0407  0.4401
   33POPC  H13R 4442   5.887   2.670   8.654  1.4971 -2.5135 -2.9637
   33POPC  H13S 4443   6.057   2.621   8.614 -0.8028  0.4032 -1.4757
   33POPC  C214 4444   6.027   2.834   8.637 -0.4877 -0.1679  0.7268
   33POPC  H14R 4445   6.136   2.847   8.650 -0.5432  0.4623  0.5731
   33POPC  H14S 4446   5.965   2.903   8.698 -1.9796 -0.8441  0.0490
   33POPC  C215 4447   5.990   2.855   8.482  0.4938 -0.6399 -0.4266
   33POPC  H15R 4448   6.051   2.802   8.405  2.1003 -0.6277  0.7926
   33POPC  H15S 4449   6.002   2.965   8.468 -0.2310 -0.7116 -1.7507
   33POPC  C216 4450   5.845   2.812   8.461 -0.0499 -0.3166  0.7672
   33POPC  H16R 4451   5.794   2.842   8.555 -0.5922 -0.5340  0.5451
   33POPC  H16S 4452   5.836   2.704   8.437  0.8763 -0.7183  2.1472
   33POPC  C217 4453   5.769   2.887   8.353 -0.0493  1.2121  0.0566
   33POPC  H17R 4454   5.755   2.831   8.259 -1.8474 -1.5902  1.8528
   33POPC  H17S 4455   5.826   2.981   8.337  0.7154  0.5436 -1.2685
   33POPC  C218 4456   5.626   2.925   8.401  1.0732  0.2276 -0.6529
   33POPC  H18R 4457   5.623   3.010   8.472 -2.1702 -0.2784 -0.0561
   33POPC  H18S 4458   5.569   2.841   8.445  0.4860  1.8766  1.9586
   33POPC  H18T 4459   5.566   2.968   8.319  0.2069  0.1056 -0.0909
   33POPC   C33 4460   5.443   2.000   9.715  0.6912  0.3451  0.4624
   33POPC   H3X 4461   5.344   2.017   9.667 -0.5600 -1.8528  2.1179
   33POPC   H3Y 4462   5.446   1.895   9.749 -1.3309 -0.0982 -0.5617
   33POPC   C34 4463   5.550   2.036   9.607  0.0455 -0.5769 -0.3464
   33POPC   H4X 4464   5.652   2.016   9.646  1.1678  2.9590 -1.1501
   33POPC   H4Y 4465   5.557   2.141   9.575 -0.8921 -0.6078 -0.6636
   33POPC   C35 4466   5.533   1.965   9.476 -0.3862 -0.3690  0.0862
   33POPC   H5X 4467   5.439   1.993   9.424 -0.4190  0.8027  0.7436
   33POPC   H5Y 4468   5.525   1.857   9.501  0.3806 -0.5933 -0.6037
   33POPC   C36 4469   5.655   1.986   9.386 -0.0100 -0.2419  0.0540
   33POPC   H6X 4470   5.742   1.962   9.450 -0.1992 -0.9951  0.0369
   33POPC   H6Y 4471   5.668   2.093   9.358 -0.4717 -0.3405 -0.5683
   33POPC   C37 4472   5.656   1.887   9.262  0.7223  0.1332  0.0015
   33POPC   H7X 4473   5.572   1.904   9.191  0.3335 -0.2375  0.3743
   33POPC   H7Y 4474   5.627   1.787   9.302  1.2620 -1.2183 -2.7531
   33POPC   C38 4475   5.792   1.871   9.192  0.9579 -0.0389  0.4392
   33POPC   H8X 4476   5.860   1.835   9.272  0.6407  1.1442  1.2588
   33POPC   H8Y 4477   5.820   1.972   9.156 -0.7285  0.2536 -0.1269
   33POPC   C39 4478   5.804   1.761   9.082  0.0453  0.4943  0.1175
   33POPC   H9X 4479   5.742   1.783   8.993  1.5006  2.1586 -0.5598
   33POPC   H9Y 4480   5.779   1.660   9.121  1.1640  0.5242  0.9786
   33POPC  C310 4481   5.951   1.767   9.032  0.3785  0.6745 -0.1353
   33POPC  H10X 4482   6.010   1.742   9.123 -2.4327 -1.6253  1.2274
   33POPC  H10Y 4483   5.971   1.872   9.002 -3.7440  1.1683 -1.8353
   33POPC  C311 4484   5.979   1.674   8.910 -0.5120  0.4175  0.1167
   33POPC  H11X 4485   5.942   1.573   8.936  0.3243  0.3867  1.2614
   33POPC  H11Y 4486   6.087   1.676   8.884 -0.8728 -1.2459 -1.7806
   33POPC  C312 4487   5.898   1.724   8.783 -0.4971  0.0242 -0.8493
   33POPC  H12X 4488   5.790   1.698   8.794 -1.3847  2.7385 -2.3954
   33POPC  H12Y 4489   5.938   1.654   8.707 -1.0185 -0.3994 -0.7433
   33POPC  C313 4490   5.923   1.868   8.734  0.0184  0.0664 -0.5651
   33POPC  H13X 4491   6.030   1.897   8.739 -0.4437  2.6777 -3.1555
   33POPC  H13Y 4492   5.870   1.935   8.806 -0.1769 -1.2666  0.5747
   33POPC  C314 4493   5.872   1.881   8.593 -0.0435 -0.3147  0.6755
   33POPC  H14X 4494   5.761   1.881   8.597 -0.0838  0.8872 -0.0121
   33POPC  H14Y 4495   5.902   1.796   8.529  1.9351 -0.0286  1.1495
   33POPC  C315 4496   5.931   1.998   8.516 -0.5974 -0.7123  0.2142
   33POPC  H15X 4497   6.041   1.982   8.506 -0.7077 -2.0520  0.8729
   33POPC  H15Y 4498   5.905   2.091   8.570 -0.6924 -1.3469  1.2935
   33POPC  C316 4499   5.878   2.009   8.375  0.1977  0.3802  0.9098
   33POPC  H16X 4500   5.771   2.038   8.368  0.4785  1.0625 -1.7750
   33POPC  H16Y 4501   5.883   1.917   8.314  1.0029  1.5899 -0.9660
   33POPC  H16Z 4502   5.941   2.086   8.324 -1.5623 -0.2069 -2.4570
   34POPC     N 4503   2.727   5.456  10.739 -0.3412 -0.2188  0.0389
   34POPC   C12 4504   2.819   5.476  10.624 -0.1953  0.3350  0.0282
   34POPC  H12A 4505   2.887   5.393  10.612 -1.5794 -0.6739 -1.2551
   34POPC  H12B 4506   2.876   5.566  10.644  1.1057 -0.4537 -0.0361
   34POPC   C13 4507   2.633   5.572  10.769  0.0954 -0.1303 -0.1039
   34POPC  H13A 4508   2.683   5.667  10.775  0.5241 -0.3557 -0.1080
   34POPC  H13B 4509   2.561   5.575  10.689 -2.4473  1.0992  2.0728
   34POPC  H13C 4510   2.579   5.544  10.858  0.6357  0.5385  0.4424
   34POPC   C14 4511   2.648   5.333  10.721  0.1258 -0.8318 -0.3137
   34POPC  H14A 4512   2.567   5.342  10.651  0.8795  1.6127 -0.9532
   34POPC  H14B 4513   2.712   5.247  10.705  0.0330 -0.6633 -1.6928
   34POPC  H14C 4514   2.610   5.307  10.819  0.6153  1.5831  0.5678
   34POPC   C15 4515   2.816   5.434  10.860 -0.2577 -0.1691 -0.3288
   34POPC  H15A 4516   2.878   5.350  10.831 -2.0069 -2.6286  2.4652
   34POPC  H15B 4517   2.760   5.405  10.947 -1.3147  0.0514 -0.9212
   34POPC  H15C 4518   2.880   5.519  10.882 -0.9364  0.6857 -1.5576
   34POPC   C11 4519   2.759   5.484  10.487  0.5524  0.3577  0.3658
   34POPC  H11A 4520   2.717   5.382  10.474 -0.8814  0.4766  3.2065
   34POPC  H11B 4521   2.838   5.493  10.410 -1.1205 -0.6293 -1.5754
   34POPC     P 4522   2.686   5.734  10.441 -0.3924 -0.0639  0.3674
   34POPC   O13 4523   2.819   5.764  10.496 -0.5068  0.1126  0.1318
   34POPC   O14 4524   2.579   5.835  10.465  0.2269  0.0589  0.2505
   34POPC   O12 4525   2.648   5.582  10.474 -0.4507  0.4824 -0.6819
   34POPC   O11 4526   2.710   5.720  10.288 -0.1973  0.2999  0.1733
   34POPC    C1 4527   2.615   5.648  10.201 -0.9211  0.5475 -0.7924
   34POPC    HA 4528   2.527   5.610  10.257 -0.9863  2.0334  0.1840
   34POPC    HB 4529   2.659   5.554  10.163 -1.1935  0.2595 -0.3965
   34POPC    C2 4530   2.577   5.740  10.077 -0.4940 -0.2941  0.4002
   34POPC    HS 4531   2.507   5.688  10.009  0.0013  0.7693 -0.9643
   34POPC   O21 4532   2.693   5.797  10.017  0.1494 -0.4553  0.4419
   34POPC   C21 4533   2.756   5.708   9.936  0.4848  1.0810  0.5213
   34POPC   O22 4534   2.718   5.593   9.919  0.3384 -0.0381 -0.2450
   34POPC   C22 4535   2.875   5.778   9.860 -0.3167  0.3625 -0.4765
   34POPC   H2R 4536   2.959   5.706   9.859  0.5286  1.2299  1.5984
   34POPC   H2S 4537   2.901   5.866   9.923 -1.4423  1.3880 -1.3853
   34POPC    C3 4538   2.487   5.861  10.127  0.8091  0.2009 -0.5482
   34POPC    HX 4539   2.559   5.922  10.186  0.6064  0.4567 -0.5633
   34POPC    HY 4540   2.401   5.835  10.192  1.8304  0.3264  0.9162
   34POPC   O31 4541   2.442   5.922  10.012 -0.1494  0.7106  0.1419
   34POPC   C31 4542   2.506   6.033   9.964  0.2070 -0.5149  0.5474
   34POPC   O32 4543   2.601   6.091  10.006  0.5628 -0.3283 -0.2847
   34POPC   C32 4544   2.422   6.098   9.856 -0.1113  0.4686  0.0357
   34POPC   H2X 4545   2.482   6.183   9.817  1.5903 -0.7432 -0.0784
   34POPC   H2Y 4546   2.330   6.137   9.904 -0.4434 -0.9194  0.5759
   34POPC   C23 4547   2.840   5.812   9.711  0.3350  0.2798 -0.1049
   34POPC   H3R 4548   2.778   5.904   9.706 -0.7367 -0.2977  1.5038
   34POPC   H3S 4549   2.777   5.731   9.667 -0.0078 -0.1390  1.1053
   34POPC   C24 4550   2.959   5.815   9.620  0.0116 -0.3048  0.4869
   34POPC   H4R 4551   3.011   5.718   9.620  1.1981  0.3151 -0.2461
   34POPC   H4S 4552   3.030   5.888   9.665 -0.6773  0.5386  0.2528
   34POPC   C25 4553   2.921   5.856   9.479  0.6625  0.5741 -0.2071
   34POPC   H5R 4554   2.908   5.966   9.487 -0.6372  0.6035 -2.2212
   34POPC   H5S 4555   2.825   5.808   9.452  1.2801 -1.1458  0.5310
   34POPC   C26 4556   3.025   5.816   9.380  0.4214 -0.3238 -0.4780
   34POPC   H6R 4557   3.051   5.710   9.402  1.4941  0.4338  2.4345
   34POPC   H6S 4558   3.112   5.875   9.415 -0.7722  0.4370  1.3896
   34POPC   C27 4559   2.954   5.826   9.244 -0.2320  0.2194 -0.3229
   34POPC   H7R 4560   2.880   5.908   9.235 -0.7246  0.0572  1.6089
   34POPC   H7S 4561   2.881   5.743   9.243 -0.5646  0.4086  2.1306
   34POPC   C28 4562   3.044   5.827   9.120  0.7925 -0.1192  0.1030
   34POPC   H8R 4563   2.978   5.793   9.038 -0.9308  0.6080  1.1421
   34POPC   H8S 4564   3.120   5.746   9.132 -0.5501 -1.5132 -0.5441
   34POPC   C29 4565   3.099   5.976   9.101  0.0778  0.2642 -0.1062
   34POPC   H91 4566   3.163   6.024   9.176  0.4708  1.0623 -0.9387
   34POPC  C210 4567   3.065   6.052   8.997 -0.1061 -0.0134  0.4920
   34POPC  H101 4568   3.104   6.155   8.990  0.3672 -0.0470  2.2155
   34POPC  C211 4569   2.970   6.011   8.881  0.3268  0.0179 -0.3001
   34POPC  H11R 4570   2.966   5.900   8.871 -1.4605  0.0166  0.1471
   34POPC  H11S 4571   3.013   6.052   8.787  3.0695  1.8377  1.5851
   34POPC  C212 4572   2.831   6.070   8.892  0.2779  0.1235 -0.7343
   34POPC  H12R 4573   2.834   6.180   8.909  0.9122 -0.0114  0.1523
   34POPC  H12S 4574   2.787   6.024   8.984  0.8318 -2.5171 -1.7009
   34POPC  C213 4575   2.748   6.034   8.776  1.1281  0.1055  0.0892
   34POPC  H13R 4576   2.644   6.059   8.805  1.4807  0.5979  0.9438
   34POPC  H13S 4577   2.755   5.925   8.757  0.6017  0.3103 -1.4260
   34POPC  C214 4578   2.773   6.112   8.648  0.2736  0.5495  0.1618
   34POPC  H14R 4579   2.879   6.106   8.616  0.4684 -1.2600  1.0282
   34POPC  H14S 4580   2.749   6.215   8.682 -1.3643  0.8005 -1.5598
   34POPC  C215 4581   2.675   6.072   8.538 -0.6043  0.1005  0.2212
   34POPC  H15R 4582   2.672   6.163   8.475  4.2261  0.4239  0.1054
   34POPC  H15S 4583   2.572   6.058   8.576 -0.3774 -2.1798  0.1714
   34POPC  C216 4584   2.721   5.944   8.468  0.0428 -0.3440  0.5060
   34POPC  H16R 4585   2.745   5.870   8.548  1.4399 -1.1066 -0.5749
   34POPC  H16S 4586   2.814   5.954   8.409  0.6134 -1.1565  1.2337
   34POPC  C217 4587   2.610   5.885   8.382  0.0813 -0.1452  0.1613
   34POPC  H17R 4588   2.643   5.844   8.284  1.2559  2.4849 -0.6222
   34POPC  H17S 4589   2.527   5.958   8.371 -0.0225 -0.3383 -0.4022
   34POPC  C218 4590   2.552   5.766   8.455 -0.3133  0.0798 -0.1832
   34POPC  H18R 4591   2.497   5.791   8.548 -2.2817  1.5271 -1.6217
   34POPC  H18S 4592   2.630   5.690   8.476 -1.4929 -0.2892  3.4476
   34POPC  H18T 4593   2.485   5.711   8.385 -2.4560  0.6926  1.2670
   34POPC   C33 4594   2.381   6.007   9.741 -0.2723  0.0958  0.3539
   34POPC   H3X 4595   2.292   6.053   9.692  0.3831  0.4066 -0.5584
   34POPC   H3Y 4596   2.346   5.911   9.785 -0.1901  0.1518  0.5446
   34POPC   C34 4597   2.488   5.994   9.630 -0.6033  0.3415 -0.1599
   34POPC   H4X 4598   2.581   5.945   9.664  0.2035  1.3682 -0.8423
   34POPC   H4Y 4599   2.520   6.097   9.603  1.4088  0.0331  0.9014
   34POPC   C35 4600   2.427   5.932   9.500  0.2108 -0.3371 -0.7852
   34POPC   H5X 4601   2.337   5.991   9.474  0.7373  0.7330 -0.2360
   34POPC   H5Y 4602   2.387   5.829   9.514 -1.3243  0.4667  1.2717
   34POPC   C36 4603   2.515   5.961   9.376  0.1618  0.9395 -1.2108
   34POPC   H6X 4604   2.598   5.889   9.359 -0.4047 -0.1043  0.3064
   34POPC   H6Y 4605   2.548   6.066   9.392  0.5610  0.5463  0.7607
   34POPC   C37 4606   2.430   5.946   9.245  0.7469 -0.4378 -0.4999
   34POPC   H7X 4607   2.347   6.018   9.253 -1.3080 -2.5973 -1.2793
   34POPC   H7Y 4608   2.385   5.845   9.235  3.0608 -1.5914 -0.0994
   34POPC   C38 4609   2.517   5.992   9.129  0.2782  0.6410  0.5122
   34POPC   H8X 4610   2.604   5.923   9.119  2.3257  3.3121 -1.9701
   34POPC   H8Y 4611   2.563   6.090   9.154  3.1103 -1.1097  2.8334
   34POPC   C39 4612   2.440   5.998   8.996 -0.2189  0.5214  0.0647
   34POPC   H9X 4613   2.470   6.088   8.938  0.4128  0.1479 -0.2039
   34POPC   H9Y 4614   2.331   6.005   9.015 -0.0712  1.6680  0.5872
   34POPC  C310 4615   2.469   5.885   8.907 -0.9556  0.4548 -0.1302
   34POPC  H10X 4616   2.577   5.858   8.915 -1.1490 -0.8676 -1.5653
   34POPC  H10Y 4617   2.455   5.928   8.806 -2.3503  0.7429  0.1630
   34POPC  C311 4618   2.389   5.749   8.909 -0.8694  0.6093  0.0058
   34POPC  H11X 4619   2.286   5.772   8.876 -1.2600  0.5978  1.1721
   34POPC  H11Y 4620   2.389   5.724   9.017  1.3123  4.6078  1.1474
   34POPC  C312 4621   2.446   5.650   8.808  0.2825  0.7203  0.8005
   34POPC  H12X 4622   2.554   5.632   8.830  0.7303 -1.9135 -2.7461
   34POPC  H12Y 4623   2.445   5.704   8.711  1.7938  0.1879  0.4689
   34POPC  C313 4624   2.365   5.517   8.790  0.2240 -0.1880 -0.3294
   34POPC  H13X 4625   2.400   5.446   8.712 -1.2051 -2.0157  0.6373
   34POPC  H13Y 4626   2.262   5.542   8.756  0.1333  1.2528  0.9047
   34POPC  C314 4627   2.349   5.432   8.914  0.2587 -0.0399  0.1219
   34POPC  H14X 4628   2.328   5.493   9.005 -0.2659  1.0916 -0.7328
   34POPC  H14Y 4629   2.447   5.385   8.935  0.2104 -0.2925 -0.2118
   34POPC  C315 4630   2.243   5.312   8.912 -0.0062  0.1236 -0.3622
   34POPC  H15X 4631   2.273   5.227   8.847 -2.2765 -1.2873  0.3213
   34POPC  H15Y 4632   2.147   5.354   8.873 -0.4644 -0.5321  0.0410
   34POPC  C316 4633   2.226   5.253   9.060 -0.3676 -0.3072 -0.2747
   34POPC  H16X 4634   2.129   5.197   9.059 -1.1105  0.9367 -1.0247
   34POPC  H16Y 4635   2.209   5.325   9.142 -1.4564 -3.8135  2.8830
   34POPC  H16Z 4636   2.321   5.200   9.080  0.9950  1.7219 -1.0778
   35POPC     N 4637   3.148   0.422  11.036  0.4160  0.1050  0.4106
   35POPC   C12 4638   3.030   0.519  11.017  0.4478  0.2456 -0.0032
   35POPC  H12A 4639   3.040   0.580  11.106  0.6607 -1.4651  1.1885
   35POPC  H12B 4640   2.935   0.468  11.023  1.0112 -1.2242 -2.1912
   35POPC   C13 4641   3.119   0.314  10.932 -0.1612 -0.1760  0.5654
   35POPC  H13A 4642   3.187   0.230  10.940 -1.9603 -1.6031  1.5357
   35POPC  H13B 4643   3.020   0.277  10.949 -0.8346  1.2488 -0.0499
   35POPC  H13C 4644   3.120   0.358  10.833 -1.0459 -0.0550  0.6097
   35POPC   C14 4645   3.276   0.484  11.012 -0.3649 -0.0391  0.0887
   35POPC  H14A 4646   3.284   0.547  10.925  1.4830 -0.5201 -0.1341
   35POPC  H14B 4647   3.300   0.556  11.089  1.1778 -1.5281  1.0626
   35POPC  H14C 4648   3.363   0.421  11.007 -0.2439  0.1846 -0.6332
   35POPC   C15 4649   3.145   0.359  11.174 -0.2155  0.4849 -0.3080
   35POPC  H15A 4650   3.053   0.312  11.207  1.3681 -2.7996 -0.1153
   35POPC  H15B 4651   3.188   0.421  11.250 -1.4986 -0.1281  0.9580
   35POPC  H15C 4652   3.212   0.274  11.175  0.4687  0.9893  2.5121
   35POPC   C11 4653   3.031   0.612  10.889 -0.0358  0.2378 -0.0790
   35POPC  H11A 4654   3.114   0.682  10.912 -1.8093  2.1295  0.8524
   35POPC  H11B 4655   2.932   0.655  10.912  0.5583  1.7329 -0.2090
   35POPC     P 4656   2.911   0.491  10.684 -0.4789  0.4016  0.2329
   35POPC   O13 4657   2.788   0.527  10.759  0.9051 -0.1913 -0.1376
   35POPC   O14 4658   2.928   0.342  10.665 -0.2211 -0.0984 -0.0648
   35POPC   O12 4659   3.034   0.545  10.762  0.0890  0.1935 -0.2777
   35POPC   O11 4660   2.907   0.571  10.546  0.5712 -0.6905 -0.4478
   35POPC    C1 4661   2.953   0.702  10.532  0.6458 -0.7048  0.0937
   35POPC    HA 4662   3.061   0.698  10.507  0.4026  0.1674 -1.1858
   35POPC    HB 4663   2.951   0.759  10.628 -1.3998 -2.8552  1.4346
   35POPC    C2 4664   2.865   0.776  10.428  0.2296 -0.4689  0.1812
   35POPC    HS 4665   2.760   0.771  10.463  0.1559  2.0726  0.4962
   35POPC   O21 4666   2.891   0.709  10.306  0.6081 -0.5164 -0.3215
   35POPC   C21 4667   2.791   0.693  10.225  0.7635  0.2168  0.3637
   35POPC   O22 4668   2.678   0.734  10.241 -0.0427  0.3578  0.9328
   35POPC   C22 4669   2.849   0.617  10.103  0.1181 -0.0570  0.6087
   35POPC   H2R 4670   2.818   0.514  10.133  1.1567  0.1186  2.4878
   35POPC   H2S 4671   2.960   0.618  10.105  0.1306 -0.1029 -0.0613
   35POPC    C3 4672   2.895   0.929  10.418  0.7448 -0.0964 -0.1549
   35POPC    HX 4673   3.003   0.942  10.396  1.1048 -4.5651 -2.2492
   35POPC    HY 4674   2.877   0.981  10.514 -0.3125 -0.0290 -0.3780
   35POPC   O31 4675   2.813   0.993  10.314  0.2462  0.4820  0.1118
   35POPC   C31 4676   2.681   1.002  10.344 -0.2469 -0.2890  0.1351
   35POPC   O32 4677   2.633   0.975  10.454  0.2223 -0.3738 -0.5063
   35POPC   C32 4678   2.600   1.057  10.231  0.3178  0.6219 -0.3187
   35POPC   H2X 4679   2.497   1.080  10.264 -0.3619 -0.7534 -1.3736
   35POPC   H2Y 4680   2.602   0.975  10.156  1.8804  0.1721  0.1538
   35POPC   C23 4681   2.778   0.659   9.971 -0.2919 -0.1272 -0.5956
   35POPC   H3R 4682   2.668   0.656   9.983 -0.2176 -1.6664  0.0029
   35POPC   H3S 4683   2.786   0.579   9.894 -1.2919 -0.8350  0.0024
   35POPC   C24 4684   2.834   0.795   9.921  0.6217  1.3987  0.2731
   35POPC   H4R 4685   2.942   0.790   9.895  0.0877 -0.7981 -1.8673
   35POPC   H4S 4686   2.841   0.857  10.013  0.6700  0.7080  0.7504
   35POPC   C25 4687   2.759   0.867   9.806 -0.4017 -0.1569 -0.2880
   35POPC   H5R 4688   2.794   0.972   9.810 -1.7669  0.3025 -0.1053
   35POPC   H5S 4689   2.650   0.864   9.827 -0.3196 -3.8786  0.3749
   35POPC   C26 4690   2.778   0.810   9.667 -0.4559 -0.6981 -0.8016
   35POPC   H6R 4691   2.772   0.700   9.679  1.9227 -0.6744  1.6179
   35POPC   H6S 4692   2.878   0.841   9.628 -0.4855 -1.0989 -1.2141
   35POPC   C27 4693   2.678   0.862   9.566 -0.4039  0.0251 -0.2173
   35POPC   H7R 4694   2.685   0.971   9.550  2.0370 -0.2298 -1.4307
   35POPC   H7S 4695   2.584   0.834   9.617 -0.8518  0.8609 -0.5804
   35POPC   C28 4696   2.683   0.793   9.432 -0.0034 -0.4475 -0.7188
   35POPC   H8R 4697   2.593   0.832   9.380 -2.4176  1.5575  4.3188
   35POPC   H8S 4698   2.683   0.682   9.442  3.4828 -0.5719 -0.8869
   35POPC   C29 4699   2.816   0.832   9.373  0.0975  0.4070  0.2006
   35POPC   H91 4700   2.903   0.794   9.428  0.0431  0.2007  0.1434
   35POPC  C210 4701   2.832   0.863   9.242 -0.1586 -0.4202 -0.1618
   35POPC  H101 4702   2.932   0.900   9.214 -0.9981  0.9464 -1.5245
   35POPC  C211 4703   2.725   0.895   9.138 -0.0297  0.0304  0.1802
   35POPC  H11R 4704   2.692   1.001   9.144  2.7744  1.0430 -0.9615
   35POPC  H11S 4705   2.640   0.827   9.162  1.2068 -1.3483  0.8359
   35POPC  C212 4706   2.780   0.866   9.000 -0.1480  0.6847  0.2507
   35POPC  H12R 4707   2.878   0.917   8.994 -0.8668  2.0968  0.0698
   35POPC  H12S 4708   2.711   0.902   8.920 -1.6319  0.6404  1.4776
   35POPC  C213 4709   2.798   0.719   8.967  0.5974  0.1918  0.0968
   35POPC  H13R 4710   2.700   0.666   8.966  1.2984 -1.2328  1.5323
   35POPC  H13S 4711   2.857   0.662   9.042 -1.8170 -1.5631  0.7992
   35POPC  C214 4712   2.851   0.706   8.820 -0.5284  0.1645 -0.6385
   35POPC  H14R 4713   2.950   0.753   8.803 -1.4542  2.6168  0.1648
   35POPC  H14S 4714   2.778   0.755   8.752 -1.3810  2.1132  1.5376
   35POPC  C215 4715   2.845   0.555   8.786 -0.3611 -0.8164 -0.4811
   35POPC  H15R 4716   2.737   0.530   8.792 -0.6460  0.5320  0.4293
   35POPC  H15S 4717   2.903   0.498   8.863 -0.9106 -1.1131 -0.2809
   35POPC  C216 4718   2.894   0.533   8.645 -0.3134 -0.0950  0.5980
   35POPC  H16R 4719   2.900   0.632   8.595 -0.9258  0.2012  1.0878
   35POPC  H16S 4720   2.824   0.471   8.584  1.4658  0.3250 -2.0502
   35POPC  C217 4721   3.033   0.456   8.638  0.1463 -0.3315  0.8218
   35POPC  H17R 4722   3.008   0.348   8.642 -1.3917 -0.0414 -0.1650
   35POPC  H17S 4723   3.100   0.486   8.722 -0.3568  1.8321  0.5181
   35POPC  C218 4724   3.098   0.470   8.504 -0.3503  0.1047 -0.2716
   35POPC  H18R 4725   3.187   0.404   8.496 -0.6611 -0.1642 -2.1431
   35POPC  H18S 4726   3.123   0.577   8.491 -0.3616  0.0847 -0.4628
   35POPC  H18T 4727   3.030   0.436   8.423  0.1490  0.8407 -1.0180
   35POPC   C33 4728   2.649   1.195  10.183 -0.2578  0.6664 -0.1810
   35POPC   H3X 4729   2.758   1.198  10.160 -0.1075 -0.6162  0.2617
   35POPC   H3Y 4730   2.632   1.276  10.257 -0.8528  1.4613 -1.1736
   35POPC   C34 4731   2.569   1.251  10.061  0.8324 -0.1336  0.1089
   35POPC   H4X 4732   2.598   1.357  10.041 -0.9287  0.0347 -1.9549
   35POPC   H4Y 4733   2.460   1.253  10.082  0.2345 -0.7814 -2.6025
   35POPC   C35 4734   2.594   1.189   9.922 -0.4667  0.1730  0.7913
   35POPC   H5X 4735   2.579   1.080   9.931 -0.5851  0.1866  0.7658
   35POPC   H5Y 4736   2.702   1.201   9.900 -0.3203 -0.1499  1.3309
   35POPC   C36 4737   2.487   1.235   9.814  0.1908 -0.0838 -0.0640
   35POPC   H6X 4738   2.471   1.344   9.812 -1.4813 -0.3041 -0.8953
   35POPC   H6Y 4739   2.387   1.193   9.840 -0.2481  0.4207 -0.9090
   35POPC   C37 4740   2.531   1.194   9.671  0.3185 -0.1521 -0.3732
   35POPC   H7X 4741   2.514   1.086   9.654  1.0088 -0.6051  1.5692
   35POPC   H7Y 4742   2.638   1.221   9.664  0.1166  0.1224 -3.6576
   35POPC   C38 4743   2.469   1.273   9.555  0.5124 -0.3899 -0.7440
   35POPC   H8X 4744   2.443   1.375   9.589 -1.4052 -1.8559  2.5974
   35POPC   H8Y 4745   2.371   1.238   9.516  0.4605  0.6941 -1.6329
   35POPC   C39 4746   2.566   1.274   9.436  0.2038  0.2479  0.1043
   35POPC   H9X 4747   2.602   1.170   9.426  0.1554 -0.0689  2.4915
   35POPC   H9Y 4748   2.654   1.339   9.460 -0.1058  0.4488  0.7419
   35POPC  C310 4749   2.489   1.318   9.309  0.0274 -0.1155  0.6487
   35POPC  H10X 4750   2.443   1.418   9.325  0.1393 -0.1572  1.2541
   35POPC  H10Y 4751   2.406   1.245   9.294 -1.1551  1.3034  0.0352
   35POPC  C311 4752   2.584   1.319   9.183  0.4602 -0.6781 -0.3757
   35POPC  H11X 4753   2.640   1.224   9.174 -1.0711 -1.8454  1.5535
   35POPC  H11Y 4754   2.654   1.403   9.202  1.7240 -2.0423  1.3567
   35POPC  C312 4755   2.507   1.351   9.058  0.0232 -0.6572  0.1899
   35POPC  H12X 4756   2.566   1.408   8.983 -1.0321  1.2562  0.7499
   35POPC  H12Y 4757   2.416   1.414   9.069  0.7384  0.8567 -1.8779
   35POPC  C313 4758   2.455   1.221   8.996  0.7230  0.3031  0.0816
   35POPC  H13X 4759   2.384   1.176   9.068  1.3048  3.1076  2.5843
   35POPC  H13Y 4760   2.534   1.145   8.981 -1.4629 -1.6012 -3.2853
   35POPC  C314 4761   2.384   1.244   8.854  0.1114 -0.3468  0.3150
   35POPC  H14X 4762   2.462   1.264   8.778 -0.2966  0.6093  0.1305
   35POPC  H14Y 4763   2.316   1.332   8.859  0.5789 -0.0370  1.5150
   35POPC  C315 4764   2.301   1.118   8.808 -0.6944 -0.2630  0.8574
   35POPC  H15X 4765   2.213   1.090   8.869 -0.7273 -1.4138  0.2903
   35POPC  H15Y 4766   2.379   1.039   8.813  0.2710  0.6450  0.6250
   35POPC  C316 4767   2.259   1.122   8.664  0.3678 -0.5379  0.5578
   35POPC  H16X 4768   2.201   1.211   8.633  3.4612  0.4553 -3.1717
   35POPC  H16Y 4769   2.207   1.031   8.627  1.0769 -0.6635 -0.1469
   35POPC  H16Z 4770   2.351   1.131   8.602  0.4753  0.4290  0.8399
   36POPC     N 4771   4.191   5.964  10.463 -0.2185 -0.1915  0.6501
   36POPC   C12 4772   4.316   5.963  10.366  0.0088 -0.7016 -0.2055
   36POPC  H12A 4773   4.288   5.919  10.272  3.7736  1.8764 -2.7920
   36POPC  H12B 4774   4.388   5.892  10.404  0.7305 -0.4642 -1.1010
   36POPC   C13 4775   4.225   6.040  10.593  0.1069  0.1008  1.2074
   36POPC  H13A 4776   4.274   6.129  10.556 -2.2665  0.4302 -1.5229
   36POPC  H13B 4777   4.128   6.065  10.635 -0.9873  0.7703 -1.5247
   36POPC  H13C 4778   4.290   5.986  10.660 -0.5021 -0.3021  1.4894
   36POPC   C14 4779   4.078   6.040  10.406  0.1114 -0.2624  0.4108
   36POPC  H14A 4780   4.117   6.137  10.380 -1.1095 -0.1784 -1.2144
   36POPC  H14B 4781   4.048   6.001  10.310 -0.5808  0.9119  0.1309
   36POPC  H14C 4782   3.991   6.045  10.470 -1.1479 -1.6564 -1.1166
   36POPC   C15 4783   4.144   5.827  10.502  0.0802  0.3655  0.1259
   36POPC  H15A 4784   4.214   5.758  10.547 -0.0225 -0.6099 -1.1422
   36POPC  H15B 4785   4.120   5.764  10.418 -2.8251 -0.1155  1.2078
   36POPC  H15C 4786   4.061   5.832  10.571  0.3438 -0.9180  0.5645
   36POPC   C11 4787   4.393   6.097  10.329  0.1974 -0.1945 -0.4122
   36POPC  H11A 4788   4.316   6.168  10.293  1.0338  1.0880  0.2564
   36POPC  H11B 4789   4.459   6.057  10.249  1.7381 -1.1840  1.2913
   36POPC     P 4790   4.588   6.097  10.494 -0.2384 -0.1559  0.0581
   36POPC   O13 4791   4.568   5.950  10.515 -0.5685 -0.4341  0.2809
   36POPC   O14 4792   4.628   6.177  10.613 -0.9243 -0.3955 -0.4088
   36POPC   O12 4793   4.459   6.167  10.432 -0.6151  0.4379 -0.1384
   36POPC   O11 4794   4.697   6.120  10.376  0.5766  0.0907 -0.1888
   36POPC    C1 4795   4.743   6.242  10.320  0.2426  0.5036 -0.2199
   36POPC    HA 4796   4.853   6.229  10.314  0.1117 -0.6759 -0.3251
   36POPC    HB 4797   4.727   6.332  10.383  0.9536  0.1281  0.5101
   36POPC    C2 4798   4.691   6.261  10.175  0.2950  0.0739 -0.1864
   36POPC    HS 4799   4.759   6.334  10.127 -1.0770  1.5139 -0.0241
   36POPC   O21 4800   4.551   6.303  10.167 -0.3688 -0.3314 -0.0743
   36POPC   C21 4801   4.532   6.422  10.207 -0.6669  0.1107 -0.4443
   36POPC   O22 4802   4.612   6.495  10.263  0.2645  0.5998 -0.2052
   36POPC   C22 4803   4.386   6.464  10.172 -0.9544 -0.3429  1.1613
   36POPC   H2R 4804   4.337   6.507  10.262 -2.7066  0.1965  0.0078
   36POPC   H2S 4805   4.323   6.378  10.138  0.0164 -0.4760 -0.3903
   36POPC    C3 4806   4.706   6.139  10.079  0.1494 -0.2288 -0.2339
   36POPC    HX 4807   4.638   6.058  10.115  1.4477 -1.0626  0.4442
   36POPC    HY 4808   4.809   6.097  10.078  0.0153 -0.5678 -0.1603
   36POPC   O31 4809   4.670   6.174   9.945 -0.2427 -0.2731  0.3722
   36POPC   C31 4810   4.669   6.078   9.850  0.0910 -0.5504 -0.7062
   36POPC   O32 4811   4.693   5.961   9.867 -0.5047 -0.2777 -0.1688
   36POPC   C32 4812   4.631   6.150   9.725 -0.0376  0.3174 -0.5242
   36POPC   H2X 4813   4.681   6.248   9.717 -1.5713  1.4767  2.4361
   36POPC   H2Y 4814   4.524   6.171   9.742 -0.1731 -0.4081 -0.4135
   36POPC   C23 4815   4.366   6.590  10.071  0.0111 -0.1633  0.4806
   36POPC   H3R 4816   4.441   6.663  10.109 -1.3327  0.5191  1.8802
   36POPC   H3S 4817   4.267   6.640  10.077  1.5350  3.0105  1.5591
   36POPC   C24 4818   4.408   6.569   9.924 -0.0478  0.4889  0.5377
   36POPC   H4R 4819   4.496   6.501   9.918  0.2883  0.8569  1.1427
   36POPC   H4S 4820   4.445   6.664   9.880  1.9976 -0.4148  0.1980
   36POPC   C25 4821   4.293   6.500   9.844  0.5844  0.5056  0.2098
   36POPC   H5R 4822   4.191   6.538   9.866  0.3682  1.0970 -1.6000
   36POPC   H5S 4823   4.292   6.389   9.856 -0.9721  0.5006  0.3362
   36POPC   C26 4824   4.311   6.511   9.697 -0.3888  0.3548  0.4077
   36POPC   H6R 4825   4.411   6.485   9.656 -0.6753 -0.6210  0.2949
   36POPC   H6S 4826   4.293   6.615   9.663 -3.2489 -0.8482 -2.1881
   36POPC   C27 4827   4.208   6.433   9.609 -0.2900 -0.1854  0.3183
   36POPC   H7R 4828   4.110   6.449   9.658  0.0193  2.5469  0.2082
   36POPC   H7S 4829   4.227   6.324   9.595 -1.1012 -0.3346  0.3195
   36POPC   C28 4830   4.174   6.505   9.477 -0.8515  0.0164 -0.0634
   36POPC   H8R 4831   4.162   6.613   9.497 -1.2511  0.0801 -0.6014
   36POPC   H8S 4832   4.086   6.469   9.419 -0.3208 -0.2338 -0.7363
   36POPC   C29 4833   4.293   6.490   9.385 -0.3195  0.4163  0.1426
   36POPC   H91 4834   4.391   6.516   9.428  0.3491  1.1104 -1.6909
   36POPC  C210 4835   4.288   6.461   9.251  0.1160 -0.7793 -0.2254
   36POPC  H101 4836   4.372   6.443   9.182 -0.7501 -0.3469 -1.4067
   36POPC  C211 4837   4.169   6.449   9.158 -0.4504 -0.0548  0.3328
   36POPC  H11R 4838   4.075   6.483   9.206 -0.4075  0.3791  0.1069
   36POPC  H11S 4839   4.156   6.342   9.130  0.2338 -0.5131  1.6400
   36POPC  C212 4840   4.163   6.539   9.033 -0.0043  0.1998 -0.1518
   36POPC  H12R 4841   4.231   6.508   8.951 -0.3074 -2.1634  0.4136
   36POPC  H12S 4842   4.202   6.638   9.062 -0.0769 -0.0610  0.8733
   36POPC  C213 4843   4.031   6.555   8.972 -0.0051  0.0019  0.5314
   36POPC  H13R 4844   4.050   6.632   8.894  0.8818 -0.9389 -0.2069
   36POPC  H13S 4845   3.967   6.602   9.050 -0.5321  0.8347 -0.3879
   36POPC  C214 4846   3.973   6.419   8.920 -0.2360  0.4928  0.0323
   36POPC  H14R 4847   3.953   6.343   8.998  0.6683 -0.4001 -0.5791
   36POPC  H14S 4848   4.055   6.377   8.857 -0.9635 -2.2160  0.8003
   36POPC  C215 4849   3.863   6.439   8.817 -0.4315  0.1486 -0.0141
   36POPC  H15R 4850   3.903   6.508   8.740 -2.0474  0.7144 -0.3866
   36POPC  H15S 4851   3.776   6.494   8.860 -0.0560  0.7265  0.0050
   36POPC  C216 4852   3.822   6.301   8.759  0.2336 -0.2754 -0.3746
   36POPC  H16R 4853   3.789   6.230   8.838  2.5597  0.1372  1.0665
   36POPC  H16S 4854   3.915   6.259   8.716  0.7118 -0.0586  0.4309
   36POPC  C217 4855   3.709   6.318   8.653 -0.2993 -0.6092  0.2882
   36POPC  H17R 4856   3.737   6.402   8.587  1.9914  0.5485  2.5507
   36POPC  H17S 4857   3.611   6.344   8.698 -1.2748 -0.8277 -1.6364
   36POPC  C218 4858   3.700   6.190   8.570 -0.2754  0.2520 -0.0231
   36POPC  H18R 4859   3.800   6.152   8.538  1.1919  1.9699  2.2480
   36POPC  H18S 4860   3.644   6.206   8.475 -0.2815 -2.8956 -0.6759
   36POPC  H18T 4861   3.651   6.102   8.617  0.6816 -0.2999 -0.0141
   36POPC   C33 4862   4.658   6.065   9.604  0.3660 -0.0740 -0.1696
   36POPC   H3X 4863   4.583   5.984   9.589 -0.0772 -0.0533  1.7025
   36POPC   H3Y 4864   4.756   6.013   9.612  1.2482  1.6922  1.3287
   36POPC   C34 4865   4.659   6.158   9.475 -0.2881 -0.8488 -0.3865
   36POPC   H4X 4866   4.753   6.217   9.477 -0.6855 -0.0318 -2.5547
   36POPC   H4Y 4867   4.577   6.233   9.488  0.0085 -0.6336  0.2611
   36POPC   C35 4868   4.640   6.084   9.345 -0.3327  0.5866 -0.4514
   36POPC   H5X 4869   4.582   5.989   9.350  2.7077 -1.3497  0.6622
   36POPC   H5Y 4870   4.738   6.040   9.319  0.1706  0.3910  1.5777
   36POPC   C36 4871   4.579   6.179   9.239  0.4491  0.9335 -0.6805
   36POPC   H6X 4872   4.664   6.236   9.195  2.3282 -0.6608  0.7081
   36POPC   H6Y 4873   4.502   6.246   9.284  2.3638  1.8324  1.4259
   36POPC   C37 4874   4.509   6.108   9.126  0.4090  0.3449 -0.3599
   36POPC   H7X 4875   4.411   6.074   9.166 -0.6759 -0.0723 -3.1091
   36POPC   H7Y 4876   4.559   6.016   9.088 -2.6880 -1.0560 -1.3931
   36POPC   C38 4877   4.472   6.208   9.009 -0.0618  0.7222  0.2971
   36POPC   H8X 4878   4.462   6.313   9.044  2.2324  0.6941  1.2671
   36POPC   H8Y 4879   4.374   6.172   8.972 -0.1142  0.0624  1.0531
   36POPC   C39 4880   4.570   6.203   8.895 -0.2761 -0.0031 -0.3971
   36POPC   H9X 4881   4.575   6.100   8.855  1.1741  0.8003 -2.4410
   36POPC   H9Y 4882   4.670   6.211   8.943 -1.3437  0.8780  1.8151
   36POPC  C310 4883   4.544   6.305   8.786 -0.0159 -0.1103  0.5179
   36POPC  H10X 4884   4.526   6.409   8.817 -2.5779 -0.3564  0.0708
   36POPC  H10Y 4885   4.452   6.290   8.726  1.4046  0.4312 -1.9747
   36POPC  C311 4886   4.656   6.302   8.682  0.8816 -0.3634  0.3544
   36POPC  H11X 4887   4.696   6.202   8.654  2.2781  0.0475  0.8065
   36POPC  H11Y 4888   4.737   6.354   8.737 -1.3378  2.4275  1.2645
   36POPC  C312 4889   4.632   6.393   8.556  0.5974 -0.1058 -0.2526
   36POPC  H12X 4890   4.729   6.400   8.504  0.6640 -1.1709 -0.3052
   36POPC  H12Y 4891   4.613   6.498   8.585  1.9307 -0.4432  2.0779
   36POPC  C313 4892   4.518   6.343   8.462  0.2453  0.1162 -0.3111
   36POPC  H13X 4893   4.420   6.342   8.514  0.2873  2.3971 -0.1045
   36POPC  H13Y 4894   4.536   6.235   8.442  0.5415  0.0599  0.2262
   36POPC  C314 4895   4.508   6.434   8.333 -0.6004  0.1372  0.2099
   36POPC  H14X 4896   4.595   6.420   8.266 -1.3631 -2.3000 -0.3468
   36POPC  H14Y 4897   4.518   6.537   8.375 -2.9799  0.8750 -0.8815
   36POPC  C315 4898   4.387   6.422   8.253 -0.6463  0.7030  0.5444
   36POPC  H15X 4899   4.389   6.505   8.179  0.9298  0.8850  0.7469
   36POPC  H15Y 4900   4.299   6.441   8.317 -0.1233  1.5891  1.0273
   36POPC  C316 4901   4.381   6.298   8.165  1.0983  0.1566 -0.1388
   36POPC  H16X 4902   4.353   6.206   8.220 -1.4172  1.0464  0.2033
   36POPC  H16Y 4903   4.470   6.289   8.099  1.1814 -1.9195  0.1977
   36POPC  H16Z 4904   4.297   6.310   8.094  1.4386 -1.6318 -0.8967
   37POPC     N 4905   2.733   5.309   5.833  0.2386  0.5633 -0.4490
   37POPC   C12 4906   2.864   5.356   5.874  0.6764 -0.3648 -0.0618
   37POPC  H12A 4907   2.838   5.460   5.888 -1.0673 -1.0697  2.4887
   37POPC  H12B 4908   2.940   5.343   5.798  0.9866 -0.9164  0.3409
   37POPC   C13 4909   2.745   5.160   5.800  0.5446 -0.2603  0.0448
   37POPC  H13A 4910   2.825   5.148   5.729  0.2490  2.9435 -1.0012
   37POPC  H13B 4911   2.774   5.105   5.888 -0.2973 -0.2406  0.3441
   37POPC  H13C 4912   2.657   5.117   5.753 -0.0694  1.2191 -0.2114
   37POPC   C14 4913   2.637   5.328   5.946  0.1678  0.1753 -0.3392
   37POPC  H14A 4914   2.533   5.310   5.925  0.5491 -0.7445 -1.5770
   37POPC  H14B 4915   2.656   5.255   6.023 -0.1143  1.4593  0.9833
   37POPC  H14C 4916   2.653   5.428   5.982 -0.5519 -0.0613  0.6875
   37POPC   C15 4917   2.677   5.375   5.711  0.1737  0.3671 -0.6908
   37POPC  H15A 4918   2.577   5.337   5.700  0.0193  0.2172  1.0218
   37POPC  H15B 4919   2.736   5.362   5.622  1.6515 -2.9019  0.6099
   37POPC  H15C 4920   2.665   5.482   5.725 -2.2555 -0.0371  1.0701
   37POPC   C11 4921   2.936   5.299   5.994  0.1172  0.1158  0.0215
   37POPC  H11A 4922   2.867   5.285   6.080  0.2178 -0.2555  0.0421
   37POPC  H11B 4923   3.016   5.372   6.022  1.6185 -1.9589  1.4077
   37POPC     P 4924   3.129   5.121   6.016 -0.0200 -0.2191  0.1565
   37POPC   O13 4925   3.233   5.189   5.932  0.4161  0.0847 -0.6757
   37POPC   O14 4926   3.137   4.971   6.022  0.0008  0.5121 -0.1105
   37POPC   O12 4927   2.993   5.173   5.961 -0.4478  0.5350 -0.1060
   37POPC   O11 4928   3.139   5.175   6.157  0.1356 -0.6894 -0.1749
   37POPC    C1 4929   3.042   5.132   6.257  0.2966 -0.8523 -0.5379
   37POPC    HA 4930   2.983   5.041   6.234 -0.2565 -0.2420 -1.5732
   37POPC    HB 4931   2.973   5.216   6.278  1.1822  0.2115 -1.7192
   37POPC    C2 4932   3.107   5.083   6.388 -0.6398  0.3692  0.5904
   37POPC    HS 4933   3.031   5.020   6.439 -2.2492  1.4853 -0.2984
   37POPC   O21 4934   3.144   5.196   6.468 -0.5590 -0.1531 -0.2864
   37POPC   C21 4935   3.044   5.250   6.533 -0.0820  0.2463  0.0788
   37POPC   O22 4936   2.925   5.217   6.522  0.7373  0.5883 -0.0055
   37POPC   C22 4937   3.099   5.369   6.619  1.4119  0.2610 -0.4745
   37POPC   H2R 4938   3.112   5.453   6.548  0.0935  0.2985 -0.6928
   37POPC   H2S 4939   3.205   5.346   6.645  1.3388  0.0465 -0.3587
   37POPC    C3 4940   3.230   4.991   6.354  0.5509  0.1665  0.4733
   37POPC    HX 4941   3.298   5.044   6.285 -0.8625 -1.2803 -2.2055
   37POPC    HY 4942   3.192   4.913   6.284 -1.9460 -0.1922  2.0704
   37POPC   O31 4943   3.298   4.939   6.465  0.6151 -0.1330 -0.0389
   37POPC   C31 4944   3.237   4.839   6.528  0.2940  0.3188  0.1428
   37POPC   O32 4945   3.143   4.772   6.487 -0.2461  0.3444  0.5036
   37POPC   C32 4946   3.303   4.822   6.667  0.4421  0.1663  0.9950
   37POPC   H2X 4947   3.412   4.802   6.654  0.3370 -0.3105  0.8233
   37POPC   H2Y 4948   3.250   4.733   6.706 -3.0606  0.4676 -2.4888
   37POPC   C23 4949   2.990   5.413   6.723 -0.2428  0.0989  0.4450
   37POPC   H3R 4950   2.887   5.397   6.685  0.7117 -0.7203 -2.0145
   37POPC   H3S 4951   2.994   5.524   6.729 -0.3840  0.3077 -1.9981
   37POPC   C24 4952   3.000   5.342   6.861 -0.5523  0.0442 -0.5547
   37POPC   H4R 4953   3.018   5.233   6.844  1.4111  0.7726 -4.1720
   37POPC   H4S 4954   2.906   5.338   6.919  0.6548  1.1492  1.6013
   37POPC   C25 4955   3.118   5.400   6.941 -0.9191  0.0063 -0.0760
   37POPC   H5R 4956   3.114   5.511   6.931  0.1552 -0.0024 -0.7141
   37POPC   H5S 4957   3.217   5.366   6.906 -1.4438 -1.7949  0.1130
   37POPC   C26 4958   3.115   5.379   7.090 -0.0333  0.3083 -0.5202
   37POPC   H6R 4959   3.012   5.372   7.130 -0.1533 -0.1328 -0.9098
   37POPC   H6S 4960   3.171   5.469   7.125 -2.9311  1.7107  0.8009
   37POPC   C27 4961   3.196   5.253   7.145 -0.6633 -0.1853 -0.0930
   37POPC   H7R 4962   3.302   5.248   7.112 -0.4693  4.3805 -0.8445
   37POPC   H7S 4963   3.151   5.172   7.084  2.0432 -0.5064 -1.8456
   37POPC   C28 4964   3.181   5.216   7.291  0.5313 -0.5459  0.0224
   37POPC   H8R 4965   3.201   5.107   7.303  0.4727 -0.7658 -1.6641
   37POPC   H8S 4966   3.073   5.215   7.319  0.5505 -1.9033  0.1112
   37POPC   C29 4967   3.273   5.306   7.380  0.1255 -0.5211 -0.1081
   37POPC   H91 4968   3.381   5.285   7.372  0.3224  0.7252 -0.9971
   37POPC  C210 4969   3.233   5.403   7.461 -0.0808 -0.6799  0.3792
   37POPC  H101 4970   3.312   5.465   7.504 -0.2789  0.4006 -0.7498
   37POPC  C211 4971   3.101   5.452   7.487 -0.5712 -0.3999  1.0399
   37POPC  H11R 4972   3.039   5.441   7.394 -1.3496 -0.6005  1.5691
   37POPC  H11S 4973   3.098   5.556   7.526  1.1275 -1.1398  3.3183
   37POPC  C212 4974   3.025   5.379   7.594  0.6640  0.1539 -0.1950
   37POPC  H12R 4975   3.093   5.362   7.681  1.0411 -1.4150 -0.7583
   37POPC  H12S 4976   2.976   5.287   7.555  0.0789  0.4912 -0.2660
   37POPC  C213 4977   2.904   5.456   7.647  0.0238 -0.2949 -0.7007
   37POPC  H13R 4978   2.814   5.402   7.608 -1.5993  3.2557 -2.3201
   37POPC  H13S 4979   2.883   5.544   7.583 -0.1511 -0.1680 -0.4726
   37POPC  C214 4980   2.907   5.470   7.802 -0.3063 -0.4695 -0.0444
   37POPC  H14R 4981   2.993   5.532   7.835  1.4920 -2.9134  0.1693
   37POPC  H14S 4982   2.906   5.367   7.843  1.1393 -1.0332 -1.3564
   37POPC  C215 4983   2.773   5.533   7.846  0.4310  0.1799  0.9867
   37POPC  H15R 4984   2.698   5.460   7.811  0.9801 -0.0121  0.2009
   37POPC  H15S 4985   2.756   5.624   7.785  0.3002 -0.0294  0.7139
   37POPC  C216 4986   2.754   5.553   7.996 -0.4350  0.4570 -0.4796
   37POPC  H16R 4987   2.743   5.662   8.017 -0.4545  0.7298 -1.8184
   37POPC  H16S 4988   2.845   5.504   8.039 -1.9427 -3.6868 -1.5712
   37POPC  C217 4989   2.642   5.460   8.041 -0.5597  0.4244 -0.1123
   37POPC  H17R 4990   2.655   5.352   8.016  1.2816  0.7722 -0.8075
   37POPC  H17S 4991   2.543   5.481   7.995 -0.1547 -0.2601 -1.3383
   37POPC  C218 4992   2.611   5.458   8.199 -0.0997  0.3898  0.1055
   37POPC  H18R 4993   2.634   5.561   8.232  0.4405  0.0411  0.8544
   37POPC  H18S 4994   2.689   5.386   8.234 -0.5132 -1.0910 -1.8633
   37POPC  H18T 4995   2.515   5.421   8.241 -0.1522 -0.3915 -0.6760
   37POPC   C33 4996   3.293   4.944   6.764  0.3946 -0.0224 -0.6955
   37POPC   H3X 4997   3.192   4.951   6.810 -1.6442 -0.5471 -4.6154
   37POPC   H3Y 4998   3.312   5.039   6.711  0.0271 -0.1445 -1.0480
   37POPC   C34 4999   3.390   4.926   6.882  0.1434 -0.5331 -1.1022
   37POPC   H4X 5000   3.398   5.023   6.937  1.2206 -0.3753 -1.5052
   37POPC   H4Y 5001   3.496   4.902   6.858  0.3175 -0.6199 -0.2741
   37POPC   C35 5002   3.335   4.829   6.988  0.4445 -0.2994 -0.7662
   37POPC   H5X 5003   3.367   4.727   6.958 -0.3381 -1.8427  2.9955
   37POPC   H5Y 5004   3.225   4.845   6.990  0.1300 -2.1491 -0.9157
   37POPC   C36 5005   3.398   4.862   7.124 -0.2509  0.3759  0.9316
   37POPC   H6X 5006   3.439   4.964   7.135  3.6532 -1.0196  0.9550
   37POPC   H6Y 5007   3.488   4.799   7.140  0.8794  1.2380 -1.6364
   37POPC   C37 5008   3.303   4.837   7.236 -0.6234 -1.2946  0.2821
   37POPC   H7X 5009   3.251   4.739   7.225 -0.2876 -1.4318 -0.1176
   37POPC   H7Y 5010   3.230   4.919   7.226  1.0037  0.0480 -1.2881
   37POPC   C38 5011   3.375   4.844   7.371 -0.7453  0.6359 -0.2169
   37POPC   H8X 5012   3.452   4.924   7.372 -0.8247  0.7856 -1.9379
   37POPC   H8Y 5013   3.437   4.752   7.382  1.0121  1.8335  0.4430
   37POPC   C39 5014   3.281   4.866   7.490 -0.0370  0.1778 -0.0545
   37POPC   H9X 5015   3.252   4.762   7.516  1.3231 -0.4794 -1.0285
   37POPC   H9Y 5016   3.191   4.925   7.462 -0.2476 -0.8290 -1.6592
   37POPC  C310 5017   3.349   4.915   7.622  0.0339  0.2628 -0.1146
   37POPC  H10X 5018   3.347   5.024   7.601 -3.8082  1.0841  3.3065
   37POPC  H10Y 5019   3.446   4.862   7.629 -0.8537 -1.9224 -2.6154
   37POPC  C311 5020   3.264   4.885   7.744 -0.3377 -0.9165  0.3354
   37POPC  H11X 5021   3.233   4.779   7.737 -1.9101 -0.4189 -1.3158
   37POPC  H11Y 5022   3.172   4.947   7.734 -0.1066 -0.8584 -2.2922
   37POPC  C312 5023   3.322   4.919   7.886  0.1737 -0.8630 -0.0234
   37POPC  H12X 5024   3.423   4.873   7.885  0.6308 -0.0644  2.2709
   37POPC  H12Y 5025   3.268   4.859   7.962  0.3762 -0.9093  0.0872
   37POPC  C313 5026   3.346   5.067   7.929  0.1809 -0.3379 -0.3929
   37POPC  H13X 5027   3.253   5.103   7.979  0.3319 -0.4723 -0.0076
   37POPC  H13Y 5028   3.389   5.142   7.858 -0.0542 -0.0410 -0.2264
   37POPC  C314 5029   3.440   5.060   8.052 -0.3728  0.4428  0.3677
   37POPC  H14X 5030   3.507   5.148   8.040  0.7804 -0.7702 -4.2690
   37POPC  H14Y 5031   3.520   4.983   8.043  0.5731  1.3617  0.7239
   37POPC  C315 5032   3.376   5.043   8.196  0.1131 -0.6217  0.5036
   37POPC  H15X 5033   3.307   4.956   8.190 -1.3494  0.5630 -1.0775
   37POPC  H15Y 5034   3.317   5.131   8.228  0.3078 -1.0233  2.0174
   37POPC  C316 5035   3.490   5.018   8.297  0.3221  0.0663  0.1587
   37POPC  H16X 5036   3.457   5.027   8.403  0.0265 -2.1858  0.3140
   37POPC  H16Y 5037   3.575   5.086   8.275 -1.0664  1.7800 -0.1383
   37POPC  H16Z 5038   3.519   4.911   8.287  0.3438  0.0689  0.1906
   38POPC     N 5039   4.769   0.418   6.225 -0.2994 -0.1750 -0.2089
   38POPC   C12 5040   4.654   0.425   6.328  0.1020  0.0619  0.4374
   38POPC  H12A 5041   4.682   0.358   6.408  1.6478  0.6296  0.4080
   38POPC  H12B 5042   4.565   0.383   6.284 -0.7870  1.2265  1.0689
   38POPC   C13 5043   4.762   0.524   6.119 -0.2202 -0.8272  0.8065
   38POPC  H13A 5044   4.663   0.531   6.075  1.1034 -1.4601 -2.5574
   38POPC  H13B 5045   4.780   0.619   6.168  1.1824 -0.7948  0.2667
   38POPC  H13C 5046   4.836   0.513   6.041  1.5376  0.1752  2.2381
   38POPC   C14 5047   4.902   0.431   6.297  0.5489 -0.5605  0.1581
   38POPC  H14A 5048   4.906   0.510   6.371 -0.4471  3.3397 -3.5317
   38POPC  H14B 5049   4.934   0.339   6.344  1.8803 -0.1288  0.1359
   38POPC  H14C 5050   4.984   0.448   6.229  1.1422  1.8070  1.3391
   38POPC   C15 5051   4.768   0.284   6.159 -0.0830  0.6367  0.2186
   38POPC  H15A 5052   4.851   0.286   6.091  0.6708 -0.1747  1.0759
   38POPC  H15B 5053   4.674   0.263   6.109  0.6751  0.3192 -1.1079
   38POPC  H15C 5054   4.777   0.196   6.222  0.6535 -0.1562 -0.9505
   38POPC   C11 5055   4.607   0.551   6.389  0.0904  0.3111 -0.7994
   38POPC  H11A 5056   4.686   0.604   6.447  2.5928 -2.6823 -1.1667
   38POPC  H11B 5057   4.549   0.534   6.482  5.0433  0.0741  2.6288
   38POPC     P 5058   4.417   0.607   6.210 -0.4399  0.3192  0.0088
   38POPC   O13 5059   4.390   0.461   6.205  0.3593  0.6489  0.1456
   38POPC   O14 5060   4.434   0.667   6.080  0.2071 -0.0548  1.0672
   38POPC   O12 5061   4.546   0.631   6.293 -0.2093  0.4790 -0.9367
   38POPC   O11 5062   4.300   0.677   6.293 -0.2617 -0.2880 -0.1406
   38POPC    C1 5063   4.312   0.819   6.348  0.1922  0.5874 -0.3297
   38POPC    HA 5064   4.208   0.853   6.367 -0.5149 -2.0666  1.0025
   38POPC    HB 5065   4.373   0.879   6.277  0.0122  0.4255 -0.6259
   38POPC    C2 5066   4.383   0.814   6.491  0.5325 -0.0240  0.2050
   38POPC    HS 5067   4.480   0.761   6.477  0.2014  0.0347 -3.3861
   38POPC   O21 5068   4.290   0.740   6.580  0.0074  0.1334 -0.0159
   38POPC   C21 5069   4.356   0.683   6.677  0.0266  0.3600 -0.1684
   38POPC   O22 5070   4.479   0.682   6.690  0.6980  0.4223  0.0281
   38POPC   C22 5071   4.260   0.587   6.760 -0.6052 -0.2482  0.3509
   38POPC   H2R 5072   4.250   0.492   6.702 -1.9889 -1.2978  2.1924
   38POPC   H2S 5073   4.156   0.625   6.750 -0.3631 -0.0461 -2.0303
   38POPC    C3 5074   4.402   0.954   6.547 -0.8422  0.1361  0.0371
   38POPC    HX 5075   4.300   0.993   6.561 -0.2874  1.2413  1.1891
   38POPC    HY 5076   4.452   1.009   6.465 -0.3547 -0.1282  0.1495
   38POPC   O31 5077   4.474   0.963   6.670 -0.0604  0.7103 -0.0789
   38POPC   C31 5078   4.611   0.953   6.656  0.1894 -0.8913  0.4784
   38POPC   O32 5079   4.661   0.951   6.547  0.4163  0.0035 -0.7990
   38POPC   C32 5080   4.688   0.949   6.785 -0.1183 -0.4877 -0.3298
   38POPC   H2X 5081   4.798   0.957   6.770 -0.3840  0.4243 -2.0236
   38POPC   H2Y 5082   4.656   0.846   6.810 -1.9302  0.1989  0.3638
   38POPC   C23 5083   4.309   0.568   6.907  0.5520  0.0632  0.8897
   38POPC   H3R 5084   4.276   0.656   6.967  1.8903  0.2877  1.3340
   38POPC   H3S 5085   4.419   0.555   6.906  0.8520  2.1315 -0.2570
   38POPC   C24 5086   4.242   0.447   6.973  0.3814 -0.2721 -0.0315
   38POPC   H4R 5087   4.288   0.353   6.937 -0.4738  0.0764 -2.1831
   38POPC   H4S 5088   4.134   0.433   6.949  0.3388 -2.1019  1.0544
   38POPC   C25 5089   4.269   0.437   7.128  0.1672  0.2478  0.3726
   38POPC   H5R 5090   4.221   0.521   7.182  0.1673 -0.7688  2.0336
   38POPC   H5S 5091   4.379   0.447   7.134  0.3314 -0.6956 -0.7623
   38POPC   C26 5092   4.238   0.293   7.183 -0.1265 -0.2932  0.2188
   38POPC   H6R 5093   4.258   0.216   7.106 -1.7094  0.3394 -0.8700
   38POPC   H6S 5094   4.131   0.287   7.213 -0.1087 -1.2179  0.1354
   38POPC   C27 5095   4.332   0.258   7.301  0.4609  0.0184  0.2899
   38POPC   H7R 5096   4.437   0.287   7.280 -0.5160  2.4025 -1.8161
   38POPC   H7S 5097   4.344   0.148   7.317 -2.3242 -0.5082 -0.6596
   38POPC   C28 5098   4.302   0.343   7.421  0.6189  0.0782  0.1385
   38POPC   H8R 5099   4.321   0.449   7.392 -0.7622 -0.1708 -1.8760
   38POPC   H8S 5100   4.384   0.318   7.492 -1.8111  0.5112  3.2960
   38POPC   C29 5101   4.164   0.323   7.487 -0.3305  0.0831  0.2640
   38POPC   H91 5102   4.108   0.238   7.446  2.7183 -2.1202  0.2447
   38POPC  C210 5103   4.119   0.387   7.596 -0.0641 -0.4371  0.0800
   38POPC  H101 5104   4.021   0.352   7.630 -0.6977  0.4154 -0.8018
   38POPC  C211 5105   4.185   0.505   7.668 -0.7164 -0.0790  0.2454
   38POPC  H11R 5106   4.116   0.584   7.705 -3.7094 -1.0615 -2.7021
   38POPC  H11S 5107   4.251   0.563   7.601 -1.5243  1.5447  0.8154
   38POPC  C212 5108   4.277   0.467   7.786  0.2966  0.6707 -0.3138
   38POPC  H12R 5109   4.314   0.563   7.827 -3.9790  1.9067  1.2154
   38POPC  H12S 5110   4.351   0.388   7.765 -1.2760 -0.5149 -1.6947
   38POPC  C213 5111   4.206   0.406   7.909  0.3491  0.2305  0.8615
   38POPC  H13R 5112   4.163   0.310   7.875  0.7059  0.3063  0.1722
   38POPC  H13S 5113   4.125   0.472   7.947 -0.4745 -0.2928  0.0469
   38POPC  C214 5114   4.296   0.391   8.026 -0.4000 -0.6462  0.5913
   38POPC  H14R 5115   4.326   0.484   8.080 -0.4579 -1.4569  2.0592
   38POPC  H14S 5116   4.388   0.340   7.990 -0.5423 -0.7030  0.3057
   38POPC  C215 5117   4.231   0.305   8.137 -0.4558 -0.5008  0.3228
   38POPC  H15R 5118   4.246   0.201   8.100 -1.2630  0.0360 -1.6341
   38POPC  H15S 5119   4.122   0.318   8.155 -0.0330  2.4190  1.3352
   38POPC  C216 5120   4.291   0.328   8.278  0.2323  0.3579  1.1696
   38POPC  H16R 5121   4.276   0.430   8.318 -1.2421  0.0193  1.5505
   38POPC  H16S 5122   4.399   0.308   8.261 -0.2169 -2.4789  1.2020
   38POPC  C217 5123   4.228   0.232   8.379 -0.6466  0.5348  0.3355
   38POPC  H17R 5124   4.311   0.222   8.453 -2.7375 -0.5832  2.6562
   38POPC  H17S 5125   4.202   0.138   8.327  1.6749  0.5560 -1.0167
   38POPC  C218 5126   4.114   0.287   8.459 -0.7629 -0.2595  0.6235
   38POPC  H18R 5127   4.099   0.233   8.555 -3.2917  0.8074  0.9169
   38POPC  H18S 5128   4.014   0.272   8.413  1.0316 -0.2483 -3.7850
   38POPC  H18T 5129   4.131   0.396   8.473 -0.9236 -0.2465  0.7225
   38POPC   C33 5130   4.649   1.054   6.892  0.7275  0.0366 -0.6482
   38POPC   H3X 5131   4.539   1.064   6.891  0.7736  0.5717 -1.5745
   38POPC   H3Y 5132   4.696   1.153   6.871 -0.0836  0.5694 -0.0212
   38POPC   C34 5133   4.684   1.012   7.036  0.5239 -0.1406 -0.0601
   38POPC   H4X 5134   4.647   1.090   7.106  1.7648  0.0236  0.4466
   38POPC   H4Y 5135   4.793   1.000   7.055  0.4855  1.2162  1.2316
   38POPC   C35 5136   4.604   0.885   7.075  0.5490 -0.0735  0.1708
   38POPC   H5X 5137   4.656   0.794   7.037  0.1282  0.0876 -0.8332
   38POPC   H5Y 5138   4.505   0.874   7.025  0.0710 -2.8836  1.5113
   38POPC   C36 5139   4.575   0.862   7.222 -0.0575 -0.1287 -0.5627
   38POPC   H6X 5140   4.506   0.942   7.255 -0.5099 -0.0787 -1.5779
   38POPC   H6Y 5141   4.664   0.899   7.277  0.5748 -0.2707 -1.4596
   38POPC   C37 5142   4.528   0.719   7.265 -0.0645  0.0646 -0.2486
   38POPC   H7X 5143   4.585   0.657   7.193  2.1768  2.2457 -0.5204
   38POPC   H7Y 5144   4.418   0.719   7.250 -0.1159  0.7712  0.0709
   38POPC   C38 5145   4.566   0.689   7.414  0.1442  0.1590 -0.2962
   38POPC   H8X 5146   4.675   0.692   7.438  0.1085 -1.0697  0.1013
   38POPC   H8Y 5147   4.540   0.584   7.438  1.9750 -0.2254  0.1626
   38POPC   C39 5148   4.489   0.771   7.520  0.4457  0.0174  0.5054
   38POPC   H9X 5149   4.379   0.754   7.515  0.3817  0.6038 -0.7732
   38POPC   H9Y 5150   4.502   0.877   7.488 -0.0590 -0.6520 -2.2530
   38POPC  C310 5151   4.537   0.741   7.657 -0.3817  0.0645  0.2212
   38POPC  H10X 5152   4.646   0.747   7.677 -0.5620  0.7133  1.0883
   38POPC  H10Y 5153   4.501   0.637   7.668  0.6702 -0.9337 -4.0367
   38POPC  C311 5154   4.468   0.832   7.765  0.3292 -0.3329  0.1466
   38POPC  H11X 5155   4.365   0.792   7.769  0.8647 -1.9123 -0.9721
   38POPC  H11Y 5156   4.464   0.940   7.739  1.4382 -0.4675 -0.6680
   38POPC  C312 5157   4.519   0.831   7.907 -0.0168 -0.2562 -1.1144
   38POPC  H12X 5158   4.568   0.736   7.934  1.5668  0.9232  0.3810
   38POPC  H12Y 5159   4.443   0.854   7.986  0.6771 -1.6324 -0.0156
   38POPC  C313 5160   4.635   0.930   7.927  0.0690  0.2390 -0.3155
   38POPC  H13X 5161   4.592   1.030   7.907  0.9999  0.8231  0.5259
   38POPC  H13Y 5162   4.720   0.907   7.859  0.8052 -0.1803  0.7181
   38POPC  C314 5163   4.685   0.943   8.074  0.0903 -0.0895  0.4663
   38POPC  H14X 5164   4.744   0.854   8.103  1.4342  0.8111  0.5480
   38POPC  H14Y 5165   4.600   0.967   8.142 -0.5428  0.0242 -0.3338
   38POPC  C315 5166   4.784   1.057   8.085  0.0612 -0.4471 -0.5901
   38POPC  H15X 5167   4.744   1.153   8.046 -1.7248 -0.4683  1.0254
   38POPC  H15Y 5168   4.865   1.042   8.011 -2.0158  1.4006 -3.4158
   38POPC  C316 5169   4.843   1.076   8.220  0.5457 -0.0187  0.2697
   38POPC  H16X 5170   4.774   1.113   8.299 -0.0946  0.7395 -0.6234
   38POPC  H16Y 5171   4.929   1.145   8.215 -0.0921  0.7091 -2.1185
   38POPC  H16Z 5172   4.881   0.978   8.255  1.2733 -0.4691 -1.6337
   39POPC     N 5173   3.349   3.437   6.232  0.3408  0.4339 -0.3140
   39POPC   C12 5174   3.389   3.478   6.369 -0.3056  0.0044 -0.0251
   39POPC  H12A 5175   3.497   3.486   6.372 -0.2411 -0.0359 -1.5839
   39POPC  H12B 5176   3.352   3.404   6.438 -0.9123  0.8946  0.6218
   39POPC   C13 5177   3.411   3.311   6.182  0.0564  0.5139 -0.0960
   39POPC  H13A 5178   3.384   3.227   6.245 -1.3200  0.6657 -0.4559
   39POPC  H13B 5179   3.372   3.295   6.083 -0.1648 -0.9403  0.2129
   39POPC  H13C 5180   3.518   3.325   6.171 -0.1565  0.3412 -2.9045
   39POPC   C14 5181   3.193   3.411   6.238  0.0301 -0.2707 -0.5686
   39POPC  H14A 5182   3.153   3.371   6.147 -3.2998  0.6670  0.3489
   39POPC  H14B 5183   3.166   3.339   6.314 -2.6829  0.0752 -1.1306
   39POPC  H14C 5184   3.143   3.507   6.248 -0.7040 -0.5691 -1.3705
   39POPC   C15 5185   3.381   3.543   6.137  0.0013  0.4743  0.2349
   39POPC  H15A 5186   3.488   3.556   6.132  0.2060 -1.3074 -2.5197
   39POPC  H15B 5187   3.341   3.639   6.169 -0.7374 -0.1930  1.3674
   39POPC  H15C 5188   3.357   3.514   6.035  2.3116 -2.8139  0.4888
   39POPC   C11 5189   3.330   3.611   6.430  0.6826  0.2003  0.0536
   39POPC  H11A 5190   3.364   3.621   6.535 -0.4201  1.7507  0.2965
   39POPC  H11B 5191   3.220   3.612   6.416  0.6070  1.2229  0.6231
   39POPC     P 5192   3.535   3.755   6.367 -0.1627 -0.0695  0.0313
   39POPC   O13 5193   3.556   3.896   6.320 -0.2043 -0.4963  0.5524
   39POPC   O14 5194   3.618   3.657   6.297 -0.3816 -0.7940 -0.1135
   39POPC   O12 5195   3.381   3.720   6.360 -0.2311  0.3368 -0.3892
   39POPC   O11 5196   3.573   3.754   6.522  0.3581 -0.4140  0.3630
   39POPC    C1 5197   3.499   3.843   6.607 -0.3281 -0.4002  0.3126
   39POPC    HA 5198   3.393   3.846   6.576 -0.5898 -1.7914  1.0141
   39POPC    HB 5199   3.541   3.944   6.587  1.0338 -0.8404  0.8241
   39POPC    C2 5200   3.516   3.818   6.762  0.2048 -0.1939 -0.5674
   39POPC    HS 5201   3.434   3.884   6.801 -0.5475  0.8971 -3.6605
   39POPC   O21 5202   3.650   3.850   6.810  0.7865  0.1924  0.1827
   39POPC   C21 5203   3.674   3.976   6.847  0.4336 -0.0501 -0.3617
   39POPC   O22 5204   3.590   4.066   6.837  0.2461  0.0307 -0.2315
   39POPC   C22 5205   3.803   3.993   6.919  0.1018  0.4220 -0.8401
   39POPC   H2R 5206   3.882   3.956   6.850 -0.2177  1.6164 -1.8829
   39POPC   H2S 5207   3.810   3.929   7.010  0.3915 -0.9388 -1.7792
   39POPC    C3 5208   3.466   3.681   6.809 -0.2513  0.7442 -0.3566
   39POPC    HX 5209   3.527   3.607   6.752  0.7136  1.9500 -0.9491
   39POPC    HY 5210   3.361   3.670   6.776 -0.0651  0.8898 -1.0164
   39POPC   O31 5211   3.478   3.655   6.954  0.3967  0.4519  0.1885
   39POPC   C31 5212   3.595   3.608   6.993 -0.1535  0.4623 -0.0469
   39POPC   O32 5213   3.694   3.583   6.922 -0.2201 -0.5238  0.2484
   39POPC   C32 5214   3.604   3.594   7.144 -0.1661 -0.0728 -0.5524
   39POPC   H2X 5215   3.505   3.597   7.195  1.0062  1.8987  1.8534
   39POPC   H2Y 5216   3.649   3.494   7.163 -4.4638 -2.1706 -0.3189
   39POPC   C23 5217   3.839   4.136   6.954  0.4089 -0.9589 -0.4037
   39POPC   H3R 5218   3.757   4.189   7.006  1.5130  0.7157 -0.2838
   39POPC   H3S 5219   3.861   4.195   6.862  1.0237 -0.6275 -0.0537
   39POPC   C24 5220   3.963   4.158   7.044 -0.0419 -0.5968 -0.1152
   39POPC   H4R 5221   3.969   4.092   7.133  1.8452  0.3772  0.5399
   39POPC   H4S 5222   3.958   4.261   7.086  1.7354 -1.3852  2.2636
   39POPC   C25 5223   4.091   4.126   6.975  0.2095  0.6840  0.4211
   39POPC   H5R 5224   4.165   4.187   7.032  1.0098  0.5115 -0.4067
   39POPC   H5S 5225   4.084   4.159   6.869  1.0067 -1.9907 -0.5491
   39POPC   C26 5226   4.138   3.971   6.976  0.8052 -0.4406 -0.9651
   39POPC   H6R 5227   4.243   3.961   6.941  0.1335 -0.7774 -3.0259
   39POPC   H6S 5228   4.069   3.912   6.911 -2.6881  1.4437  0.7771
   39POPC   C27 5229   4.153   3.898   7.119 -0.0773  0.0469  1.3284
   39POPC   H7R 5230   4.202   3.799   7.106  2.2163  1.0905  1.5531
   39POPC   H7S 5231   4.050   3.881   7.157 -0.0298 -2.4038  0.5230
   39POPC   C28 5232   4.233   3.979   7.218 -0.4715  1.0880  0.1301
   39POPC   H8R 5233   4.172   4.067   7.248 -0.2657  1.1057  0.5029
   39POPC   H8S 5234   4.320   4.025   7.168 -0.1928 -0.1927 -0.6024
   39POPC   C29 5235   4.263   3.892   7.335  0.1032  0.7165 -1.0166
   39POPC   H91 5236   4.349   3.826   7.321  0.0343  0.5273 -0.5398
   39POPC  C210 5237   4.188   3.895   7.448  0.3990 -0.1264 -0.0959
   39POPC  H101 5238   4.224   3.839   7.536  2.4559  0.3350 -0.5820
   39POPC  C211 5239   4.071   3.976   7.472  1.5209 -0.2288 -0.4886
   39POPC  H11R 5240   4.006   3.915   7.537  2.5688 -1.2125 -0.3199
   39POPC  H11S 5241   4.018   3.992   7.375  1.7432  2.2395 -0.2784
   39POPC  C212 5242   4.082   4.118   7.539 -0.3077  0.1883 -0.4559
   39POPC  H12R 5243   4.165   4.174   7.490  0.7193  0.1666  1.1937
   39POPC  H12S 5244   4.123   4.103   7.642  1.4133  0.4678 -1.0587
   39POPC  C213 5245   3.951   4.201   7.536 -0.3595  0.7748  0.2017
   39POPC  H13R 5246   3.864   4.138   7.563 -0.8238  1.3538  0.0635
   39POPC  H13S 5247   3.932   4.231   7.431  1.8787 -1.1743 -0.8417
   39POPC  C214 5248   3.958   4.326   7.628  0.3387  0.0392  0.0890
   39POPC  H14R 5249   3.882   4.400   7.595 -0.1798  1.1347  3.4424
   39POPC  H14S 5250   4.056   4.377   7.616  0.1898  0.2616 -0.2190
   39POPC  C215 5251   3.931   4.292   7.777 -0.0571 -0.9809  0.3151
   39POPC  H15R 5252   4.000   4.209   7.804  1.1197 -0.9725 -2.3229
   39POPC  H15S 5253   3.826   4.260   7.791  0.0346 -0.6670  1.8979
   39POPC  C216 5254   3.952   4.422   7.866 -0.1074  0.7426 -0.6373
   39POPC  H16R 5255   3.877   4.497   7.833 -2.7994 -2.7248 -3.2312
   39POPC  H16S 5256   4.056   4.458   7.854  0.7948 -1.2034  0.7828
   39POPC  C217 5257   3.938   4.388   8.020 -0.5983  0.3862 -0.1859
   39POPC  H17R 5258   3.987   4.475   8.069 -0.2607  0.4159 -0.5782
   39POPC  H17S 5259   3.998   4.299   8.048 -0.4378  0.3571 -0.6197
   39POPC  C218 5260   3.801   4.369   8.075  0.7316 -0.2671 -0.2094
   39POPC  H18R 5261   3.727   4.448   8.047 -2.3363 -2.6284  0.6711
   39POPC  H18S 5262   3.804   4.382   8.185  1.6580 -1.8200 -0.0416
   39POPC  H18T 5263   3.754   4.271   8.051 -3.0329  0.7400  2.0697
   39POPC   C33 5264   3.697   3.697   7.223  0.0407  0.5780 -0.1192
   39POPC   H3X 5265   3.800   3.706   7.184  0.6349 -0.9452  1.0063
   39POPC   H3Y 5266   3.715   3.664   7.327 -1.2987 -0.8285 -0.2977
   39POPC   C34 5267   3.626   3.829   7.224  0.2913 -0.5139  0.3052
   39POPC   H4X 5268   3.535   3.808   7.285 -0.3367 -2.1767 -1.1129
   39POPC   H4Y 5269   3.596   3.868   7.125  1.7762  0.1027  0.0742
   39POPC   C35 5270   3.714   3.932   7.297 -1.0454  0.5310 -0.2637
   39POPC   H5X 5271   3.812   3.943   7.246 -0.0451 -1.2746  1.1374
   39POPC   H5Y 5272   3.742   3.899   7.400 -1.3188  2.6777  0.5551
   39POPC   C36 5273   3.648   4.070   7.303  0.8084  0.1903 -0.1864
   39POPC   H6X 5274   3.625   4.095   7.198 -0.0821 -0.2870 -0.1127
   39POPC   H6Y 5275   3.727   4.132   7.352  0.1006  0.6211  0.4440
   39POPC   C37 5276   3.514   4.069   7.377  0.8288 -0.2686  0.1017
   39POPC   H7X 5277   3.517   3.991   7.456  0.0858 -0.8878 -0.4675
   39POPC   H7Y 5278   3.436   4.041   7.303  0.4382  0.3638  0.2670
   39POPC   C38 5279   3.471   4.209   7.435 -0.5112  0.2260  0.3731
   39POPC   H8X 5280   3.363   4.198   7.458 -0.9458  0.7203 -1.3031
   39POPC   H8Y 5281   3.476   4.289   7.358  1.3527 -0.4148 -0.2426
   39POPC   C39 5282   3.555   4.263   7.548  0.3852 -0.4955 -0.2669
   39POPC   H9X 5283   3.653   4.306   7.518 -0.8820  3.4008  0.5563
   39POPC   H9Y 5284   3.576   4.174   7.612 -1.4663  0.0206  1.1376
   39POPC  C310 5285   3.480   4.358   7.622  0.1490 -0.5202  0.0516
   39POPC  H10X 5286   3.381   4.320   7.655 -0.5430  2.5697  1.9581
   39POPC  H10Y 5287   3.453   4.446   7.559 -0.9552  0.7998  2.2456
   39POPC  C311 5288   3.554   4.409   7.742  0.2838 -0.3088  0.0987
   39POPC  H11X 5289   3.660   4.435   7.718  0.4948 -1.1310  0.1037
   39POPC  H11Y 5290   3.579   4.324   7.810 -0.2139 -0.7965 -0.3208
   39POPC  C312 5291   3.480   4.518   7.818  0.3774 -0.5233  0.3298
   39POPC  H12X 5292   3.458   4.606   7.753  0.5048  0.3769  1.4705
   39POPC  H12Y 5293   3.550   4.566   7.890 -0.8250  0.3515  0.9618
   39POPC  C313 5294   3.339   4.471   7.878 -0.2816  0.4659 -0.0409
   39POPC  H13X 5295   3.349   4.374   7.931 -4.4819  1.0433  2.2808
   39POPC  H13Y 5296   3.267   4.466   7.794 -1.2525  0.5080  0.7677
   39POPC  C314 5297   3.295   4.557   7.999 -0.2293  0.2873 -0.7418
   39POPC  H14X 5298   3.278   4.663   7.967 -0.7222  0.3152 -0.4049
   39POPC  H14Y 5299   3.370   4.552   8.080 -2.9856  0.1646  2.0036
   39POPC  C315 5300   3.171   4.504   8.069 -0.0439 -0.0542  0.3248
   39POPC  H15X 5301   3.191   4.397   8.090 -2.1827 -0.4966  0.3398
   39POPC  H15Y 5302   3.088   4.515   7.995  1.5534  0.4372 -1.4700
   39POPC  C316 5303   3.129   4.581   8.202 -0.1446  0.4539 -0.4979
   39POPC  H16X 5304   3.221   4.590   8.264  0.3572 -3.0184 -0.5156
   39POPC  H16Y 5305   3.050   4.529   8.259  0.5826 -0.5061 -0.3355
   39POPC  H16Z 5306   3.091   4.679   8.169  1.7357  1.9530  1.4510
   40POPC     N 5307   0.301   2.685   6.041  0.4926  0.1205  0.4231
   40POPC   C12 5308   0.209   2.771   6.125 -0.1826  0.2238 -0.1601
   40POPC  H12A 5309   0.261   2.825   6.203 -1.7871  2.7188 -0.7185
   40POPC  H12B 5310   0.128   2.716   6.170  0.2643  0.0768  0.4810
   40POPC   C13 5311   0.207   2.588   5.963 -0.6822 -0.4386 -0.8310
   40POPC  H13A 5312   0.177   2.505   6.025  2.0372 -3.0785 -2.7734
   40POPC  H13B 5313   0.122   2.643   5.926  0.0580  0.9438 -0.5765
   40POPC  H13C 5314   0.273   2.537   5.895  0.7789  0.8108 -0.4137
   40POPC   C14 5315   0.388   2.764   5.950  0.0736 -0.6805  0.1465
   40POPC  H14A 5316   0.429   2.846   6.007 -1.6284 -0.9818  1.8956
   40POPC  H14B 5317   0.457   2.703   5.893 -0.7448 -2.3229  0.8263
   40POPC  H14C 5318   0.333   2.819   5.877 -0.6881 -0.0676  1.1581
   40POPC   C15 5319   0.379   2.597   6.129  0.1945 -0.1805 -0.8965
   40POPC  H15A 5320   0.427   2.657   6.206  0.3008 -0.3469 -0.8313
   40POPC  H15B 5321   0.446   2.533   6.075  2.3419 -1.3339  2.7349
   40POPC  H15C 5322   0.311   2.524   6.171 -0.5969  0.1127 -1.6465
   40POPC   C11 5323   0.146   2.888   6.053  0.5270 -0.3236 -0.1256
   40POPC  H11A 5324   0.217   2.961   6.007 -0.6895  0.9569 -0.0651
   40POPC  H11B 5325   0.091   2.945   6.131  0.7076 -1.4794  0.8579
   40POPC     P 5326  -0.091   2.788   5.996 -0.3710 -0.2600 -0.2719
   40POPC   O13 5327  -0.110   2.656   5.928 -0.4171  0.0518 -0.5418
   40POPC   O14 5328  -0.188   2.894   5.967  0.2673 -0.3342  0.8935
   40POPC   O12 5329   0.054   2.837   5.953  0.1481 -0.2794  0.0226
   40POPC   O11 5330  -0.072   2.757   6.153 -0.3984 -0.3803 -0.4094
   40POPC    C1 5331  -0.126   2.822   6.260  0.1672 -0.0021  0.0241
   40POPC    HA 5332  -0.229   2.855   6.234  0.2301 -0.7469 -1.2394
   40POPC    HB 5333  -0.079   2.922   6.270 -0.9391  0.3854  1.6757
   40POPC    C2 5334  -0.121   2.735   6.390  0.5028 -0.3450  0.3340
   40POPC    HS 5335  -0.187   2.779   6.468  1.6716  0.2182  1.0480
   40POPC   O21 5336   0.009   2.733   6.450 -0.1684  0.7993 -0.2780
   40POPC   C21 5337   0.052   2.845   6.510 -0.0805 -0.9660 -0.0656
   40POPC   O22 5338  -0.017   2.946   6.527  0.1756  0.4738 -0.7218
   40POPC   C22 5339   0.209   2.836   6.522  0.1156  0.4205  0.1396
   40POPC   H2R 5340   0.233   2.944   6.507  3.0680 -0.4121 -2.0749
   40POPC   H2S 5341   0.242   2.791   6.426 -2.9068 -0.3449 -0.6329
   40POPC    C3 5342  -0.180   2.591   6.379  0.4214 -0.3278  0.6586
   40POPC    HX 5343  -0.105   2.534   6.320 -0.3893  0.0901 -0.8365
   40POPC    HY 5344  -0.262   2.591   6.303  3.3984  0.3341 -2.8194
   40POPC   O31 5345  -0.206   2.529   6.505  0.2204  0.5217  0.0961
   40POPC   C31 5346  -0.322   2.557   6.547 -0.0955  0.7671 -0.3053
   40POPC   O32 5347  -0.395   2.648   6.516 -0.1490  0.4256  0.4698
   40POPC   C32 5348  -0.359   2.448   6.646 -0.3653  0.0882  0.0486
   40POPC   H2X 5349  -0.311   2.354   6.611  0.1483  0.9704 -1.7582
   40POPC   H2Y 5350  -0.466   2.420   6.634  0.1807 -2.3536  0.3213
   40POPC   C23 5351   0.267   2.765   6.638  0.0482 -0.1284 -0.6201
   40POPC   H3R 5352   0.373   2.741   6.618 -0.1665 -1.4077 -0.2829
   40POPC   H3S 5353   0.212   2.672   6.661  0.7167 -0.2490  0.5705
   40POPC   C24 5354   0.252   2.858   6.767  0.4002 -0.9131  0.2114
   40POPC   H4R 5355   0.281   2.962   6.740 -1.5673 -0.6559 -1.1346
   40POPC   H4S 5356   0.328   2.823   6.840  1.5233  0.9242 -0.0093
   40POPC   C25 5357   0.113   2.850   6.825  0.0817  0.0274 -0.4920
   40POPC   H5R 5358   0.067   2.752   6.800  0.6830 -0.3011 -0.3260
   40POPC   H5S 5359   0.049   2.931   6.784  0.5875  0.1315 -1.0880
   40POPC   C26 5360   0.114   2.870   6.983  0.3456  0.3383  0.1175
   40POPC   H6R 5361   0.160   2.968   7.007 -3.0935  1.6931  1.9126
   40POPC   H6S 5362   0.174   2.789   7.028 -0.4726 -0.0535  0.5292
   40POPC   C27 5363  -0.023   2.857   7.056  0.4718 -0.4626 -0.8473
   40POPC   H7R 5364  -0.083   2.774   7.014  0.5552 -0.9932  0.0729
   40POPC   H7S 5365  -0.079   2.950   7.030  3.0858  0.8422 -2.3156
   40POPC   C28 5366   0.005   2.822   7.216 -0.2743  0.6765  0.5496
   40POPC   H8R 5367   0.067   2.731   7.230 -0.5525  0.2645 -0.7619
   40POPC   H8S 5368  -0.096   2.810   7.261 -1.6490  0.9330 -2.2531
   40POPC   C29 5369   0.094   2.927   7.278 -0.0405  0.1260  0.2769
   40POPC   H91 5370   0.198   2.924   7.243  0.1860 -0.5770  0.9860
   40POPC  C210 5371   0.056   3.033   7.346 -0.6788 -0.3024  0.6564
   40POPC  H101 5372   0.133   3.104   7.380  1.6439 -1.2271 -2.2453
   40POPC  C211 5373  -0.084   3.062   7.395  0.2181 -0.2394 -0.1479
   40POPC  H11R 5374  -0.148   2.974   7.375  1.5205 -1.3956  0.5801
   40POPC  H11S 5375  -0.127   3.140   7.328  0.3713  1.2276  1.3936
   40POPC  C212 5376  -0.087   3.105   7.544  0.3673 -0.0062  0.3281
   40POPC  H12R 5377  -0.189   3.138   7.576  0.6713 -0.4911  1.9198
   40POPC  H12S 5378  -0.017   3.190   7.559 -1.4873  1.6103  0.2518
   40POPC  C213 5379  -0.057   2.991   7.643 -0.5370 -0.6147  0.3076
   40POPC  H13R 5380   0.029   2.929   7.608  1.5521  1.7047  1.0629
   40POPC  H13S 5381  -0.149   2.933   7.621 -1.9670  2.1164 -1.4105
   40POPC  C214 5382  -0.039   3.042   7.782  0.0287  0.9608  0.0348
   40POPC  H14R 5383  -0.111   3.124   7.799  2.1871  2.6507  1.5974
   40POPC  H14S 5384   0.059   3.093   7.790  0.1624  0.3412  4.6021
   40POPC  C215 5385  -0.058   2.926   7.878  0.4206 -0.2510  0.2850
   40POPC  H15R 5386  -0.012   2.837   7.831  2.4183  0.1189  1.4497
   40POPC  H15S 5387  -0.164   2.893   7.883 -0.2651  1.9262  2.3896
   40POPC  C216 5388  -0.007   2.960   8.020 -0.8842 -0.4031 -0.8365
   40POPC  H16R 5389  -0.101   2.986   8.073 -0.4520  0.5495 -0.5211
   40POPC  H16S 5390   0.054   3.052   8.026 -1.9867  0.4465 -1.9789
   40POPC  C217 5391   0.054   2.839   8.093  0.8344  0.0628  0.1278
   40POPC  H17R 5392   0.134   2.800   8.026  0.8344  0.3602 -0.0498
   40POPC  H17S 5393  -0.006   2.746   8.098 -0.6517  1.0308  0.8242
   40POPC  C218 5394   0.104   2.865   8.238 -0.3509 -0.6998 -0.0352
   40POPC  H18R 5395   0.028   2.913   8.303  1.5662 -1.2737  2.8045
   40POPC  H18S 5396   0.199   2.922   8.229 -0.4540 -0.7690 -2.0153
   40POPC  H18T 5397   0.117   2.768   8.291  0.0273 -2.1148 -2.5478
   40POPC   C33 5398  -0.331   2.470   6.802  0.4392  0.3546  0.1727
   40POPC   H3X 5399  -0.220   2.479   6.799  0.6205 -1.6965 -0.4913
   40POPC   H3Y 5400  -0.354   2.381   6.864  2.4234  0.7197  1.5274
   40POPC   C34 5401  -0.398   2.602   6.847 -0.2193  0.1130  0.0000
   40POPC   H4X 5402  -0.506   2.578   6.859 -0.3753  0.6961 -0.2246
   40POPC   H4Y 5403  -0.406   2.680   6.769 -1.0219 -0.3944 -0.4377
   40POPC   C35 5404  -0.355   2.655   6.984 -0.6630 -0.7429 -0.2895
   40POPC   H5X 5405  -0.407   2.745   7.022  1.6554  0.1408  0.9959
   40POPC   H5Y 5406  -0.244   2.665   6.978 -0.6133  0.3322  1.5632
   40POPC   C36 5407  -0.379   2.560   7.102 -0.1925 -0.2585 -0.0684
   40POPC   H6X 5408  -0.327   2.466   7.072  0.8265  0.8600 -1.9798
   40POPC   H6Y 5409  -0.486   2.539   7.121 -0.8750  3.0441  0.3293
   40POPC   C37 5410  -0.322   2.609   7.243  0.5133 -0.2849  0.6352
   40POPC   H7X 5411  -0.373   2.705   7.261 -0.9514 -0.6666 -1.2196
   40POPC   H7Y 5412  -0.211   2.612   7.253  0.5456 -1.6856  1.0203
   40POPC   C38 5413  -0.363   2.510   7.355  0.4053 -0.1151 -0.6446
   40POPC   H8X 5414  -0.333   2.404   7.343  0.7635 -0.0958 -0.0036
   40POPC   H8Y 5415  -0.473   2.512   7.361  0.3912 -0.1553 -0.8978
   40POPC   C39 5416  -0.315   2.552   7.502 -0.5727 -0.3563  0.3148
   40POPC   H9X 5417  -0.209   2.524   7.520 -1.0029 -1.2083  1.6536
   40POPC   H9Y 5418  -0.373   2.484   7.567 -1.0291 -0.5474 -0.2894
   40POPC  C310 5419  -0.345   2.696   7.535 -0.1331  0.2013  0.6899
   40POPC  H10X 5420  -0.449   2.728   7.514  0.1555  0.6434 -0.1364
   40POPC  H10Y 5421  -0.279   2.757   7.470 -0.3775  0.6442  0.8549
   40POPC  C311 5422  -0.316   2.726   7.680  0.3346  0.8732  0.4342
   40POPC  H11X 5423  -0.318   2.836   7.697  0.0375  1.1919 -1.4800
   40POPC  H11Y 5424  -0.218   2.685   7.712  0.1351  0.9294  1.1443
   40POPC  C312 5425  -0.425   2.686   7.777 -0.0767 -0.4816  0.1013
   40POPC  H12X 5426  -0.422   2.575   7.774 -2.9569 -0.6639  0.6491
   40POPC  H12Y 5427  -0.529   2.715   7.751  0.9762  2.7322 -0.9797
   40POPC  C313 5428  -0.387   2.728   7.921  0.0058  0.0866  0.0270
   40POPC  H13X 5429  -0.391   2.839   7.926  0.5666  0.1185 -0.1033
   40POPC  H13Y 5430  -0.283   2.695   7.944  0.3444  0.9154 -0.3006
   40POPC  C314 5431  -0.485   2.668   8.031 -0.2379 -0.4173 -0.2424
   40POPC  H14X 5432  -0.483   2.557   8.032  0.6036 -0.4255 -1.1137
   40POPC  H14Y 5433  -0.587   2.695   7.996  0.9855  2.5983 -1.8629
   40POPC  C315 5434  -0.452   2.734   8.163 -0.3202  0.2664 -0.4479
   40POPC  H15X 5435  -0.484   2.840   8.162  1.2133  0.7571 -1.2459
   40POPC  H15Y 5436  -0.345   2.736   8.193 -0.5106  0.0106  0.2469
   40POPC  C316 5437  -0.515   2.675   8.294  0.4882 -0.2707 -0.3333
   40POPC  H16X 5438  -0.503   2.752   8.373 -0.1172 -0.4561 -0.0527
   40POPC  H16Y 5439  -0.477   2.571   8.306 -1.1659 -0.8578 -0.0115
   40POPC  H16Z 5440  -0.625   2.667   8.281  0.6385 -1.1896 -1.2211
   41CHL1    C3 5441   3.951   3.207  10.018 -0.4481 -0.3427  0.1246
   41CHL1    H3 5442   4.032   3.137  10.047 -0.2642 -0.5545 -0.8921
   41CHL1    O3 5443   3.926   3.284  10.136 -0.1005  0.3626 -0.0986
   41CHL1   H3' 5444   3.881   3.359  10.096 -1.2373  0.8540  1.9579
   41CHL1    C4 5445   4.001   3.297   9.905  0.3427  1.1103 -0.6993
   41CHL1   H4A 5446   3.909   3.358   9.890 -1.0667 -0.5750  0.5857
   41CHL1   H4B 5447   4.080   3.368   9.937  2.0847 -0.5384 -1.1773
   41CHL1    C5 5448   4.034   3.210   9.784  0.1694 -0.2802 -0.5421
   41CHL1    C6 5449   4.155   3.209   9.728  0.2304  0.0311 -0.1104
   41CHL1    H6 5450   4.236   3.267   9.775  1.8531 -0.3156 -2.2830
   41CHL1    C7 5451   4.179   3.151   9.594  0.6686  0.3621 -0.5886
   41CHL1   H7A 5452   4.240   3.209   9.522  1.6618 -0.0166 -0.0699
   41CHL1   H7B 5453   4.229   3.055   9.619 -1.8835 -1.3528 -1.6686
   41CHL1    C8 5454   4.049   3.109   9.520  0.5366 -0.3331  0.4586
   41CHL1    H8 5455   4.003   3.197   9.469  0.2975 -0.5729  0.2587
   41CHL1   C14 5456   4.083   3.010   9.404  0.5976 -0.9653  0.0023
   41CHL1   H14 5457   4.119   2.919   9.455  1.7086 -0.8200 -0.4931
   41CHL1   C15 5458   4.191   3.055   9.311  0.6066 -0.5060  0.3984
   41CHL1  H15A 5459   4.176   3.159   9.275  0.1851 -0.6611  0.1225
   41CHL1  H15B 5460   4.293   3.040   9.353  0.8820  1.2158  0.3963
   41CHL1   C16 5461   4.171   2.960   9.187 -0.2116  0.1540  0.1372
   41CHL1  H16A 5462   4.154   3.024   9.098 -1.3073  1.7206  1.3898
   41CHL1  H16B 5463   4.262   2.907   9.154 -0.8616 -0.7337 -0.2668
   41CHL1   C17 5464   4.039   2.879   9.215 -0.0344  0.1469  0.5659
   41CHL1   H17 5465   4.078   2.786   9.261 -0.3531 -0.7869 -0.9800
   41CHL1   C13 5466   3.968   2.956   9.328  0.7344 -0.5417 -0.5480
   41CHL1   C18 5467   3.899   3.072   9.263  0.0543 -0.2849  0.3717
   41CHL1  H18A 5468   3.812   3.035   9.205 -2.0861  2.0134  1.8583
   41CHL1  H18B 5469   3.850   3.140   9.336 -1.8419 -1.6689  0.4659
   41CHL1  H18C 5470   3.962   3.138   9.199 -1.9540  2.4672  1.0482
   41CHL1   C12 5471   3.871   2.881   9.431  0.4283  0.2423  0.6767
   41CHL1  H12A 5472   3.787   2.820   9.393  0.0269  1.6869 -0.9111
   41CHL1  H12B 5473   3.935   2.806   9.481  1.5084  1.1354  0.6858
   41CHL1   C11 5474   3.822   2.976   9.550  0.4794  0.5527  0.2327
   41CHL1  H11A 5475   3.750   3.047   9.503  2.1845  1.6556 -0.8398
   41CHL1  H11B 5476   3.767   2.922   9.629  0.8093  0.9601  0.7476
   41CHL1    C9 5477   3.944   3.046   9.615  0.4061 -0.7276 -0.0661
   41CHL1    H9 5478   3.986   2.962   9.675 -0.3993 -0.9357  0.2225
   41CHL1   C10 5479   3.906   3.135   9.735 -0.4600 -0.6879  0.1507
   41CHL1   C19 5480   3.797   3.228   9.688 -0.5136  0.0545  0.0722
   41CHL1  H19A 5481   3.770   3.310   9.758  1.0348  1.5064 -0.9229
   41CHL1  H19B 5482   3.838   3.284   9.601  1.3642  0.2796  1.0438
   41CHL1  H19C 5483   3.711   3.166   9.656  0.1601  0.1412 -2.1347
   41CHL1    C1 5484   3.849   3.052   9.863 -0.3463  0.0210  0.3089
   41CHL1   H1A 5485   3.749   3.017   9.831 -0.3131  1.2502 -1.2509
   41CHL1   H1B 5486   3.917   2.970   9.895  0.1669 -0.2021 -1.3030
   41CHL1    C2 5487   3.823   3.132   9.991 -0.2204 -0.0183  0.2325
   41CHL1   H2A 5488   3.790   3.067  10.075 -0.7235 -2.0537 -1.4542
   41CHL1   H2B 5489   3.740   3.201   9.962 -1.8080 -2.1217 -0.4688
   41CHL1   C20 5490   3.959   2.843   9.084 -0.3914 -0.0912  0.6610
   41CHL1   H20 5491   3.919   2.939   9.043  1.4154 -0.1234 -1.3630
   41CHL1   C21 5492   3.859   2.736   9.125 -0.0163 -0.1409  1.0948
   41CHL1  H21A 5493   3.780   2.781   9.190 -1.2003 -1.7947  0.8761
   41CHL1  H21B 5494   3.912   2.649   9.168  2.3590  0.4824 -0.3768
   41CHL1  H21C 5495   3.810   2.699   9.032  1.1245 -0.0978  0.4536
   41CHL1   C22 5496   4.059   2.790   8.976  0.5719 -0.3935 -0.2711
   41CHL1  H22A 5497   4.136   2.868   8.959  1.4791 -0.5562  2.5547
   41CHL1  H22B 5498   4.110   2.697   9.009  2.1714  1.4436  2.8217
   41CHL1   C23 5499   3.982   2.758   8.842  0.1089 -0.0248  0.7138
   41CHL1  H23A 5500   3.920   2.667   8.861 -1.4569  0.2742 -2.3954
   41CHL1  H23B 5501   3.921   2.846   8.813  0.3634  0.2701  1.0744
   41CHL1   C24 5502   4.075   2.728   8.721  0.6853  0.4049 -0.4170
   41CHL1  H24A 5503   4.163   2.797   8.722 -0.7308  2.3733  2.0256
   41CHL1  H24B 5504   4.098   2.619   8.720 -2.2445 -0.3190 -3.0014
   41CHL1   C25 5505   4.005   2.775   8.586 -0.8668 -0.0594  0.5894
   41CHL1   H25 5506   3.989   2.884   8.600  1.2852  0.1737  1.6388
   41CHL1   C26 5507   4.095   2.766   8.461 -0.4002  0.5579 -0.5641
   41CHL1  H26A 5508   4.147   2.668   8.461 -1.8746 -0.3148  2.0195
   41CHL1  H26B 5509   4.038   2.777   8.367 -0.7858 -2.3803 -0.7577
   41CHL1  H26C 5510   4.165   2.852   8.471 -1.3788  1.2952  0.0914
   41CHL1   C27 5511   3.876   2.706   8.547  0.6489 -0.5227 -0.2599
   41CHL1  H27A 5512   3.826   2.758   8.462 -0.8715 -1.9138 -0.2654
   41CHL1  H27B 5513   3.887   2.596   8.546  2.2571 -0.3930 -0.1332
   41CHL1  H27C 5514   3.798   2.726   8.624  1.0028 -1.1351  0.2693
   42CHL1    C3 5515   4.195   2.710  10.163 -0.7187  0.5398  0.0847
   42CHL1    H3 5516   4.143   2.619  10.201 -0.7072 -0.7740 -2.7747
   42CHL1    O3 5517   4.207   2.791  10.279 -0.4157  0.3488  0.5181
   42CHL1   H3' 5518   4.302   2.782  10.294 -0.4853 -1.3360  0.0800
   42CHL1    C4 5519   4.331   2.662  10.098  0.9228 -0.5676  0.6670
   42CHL1   H4A 5520   4.391   2.755  10.101 -0.8223  0.7635 -1.8583
   42CHL1   H4B 5521   4.382   2.598  10.173  0.7266 -0.1624  1.1524
   42CHL1    C5 5522   4.329   2.592   9.962 -0.2116 -0.1355  0.6750
   42CHL1    C6 5523   4.390   2.471   9.948 -0.0439 -0.8249 -0.3549
   42CHL1    H6 5524   4.462   2.435  10.023  0.5267 -0.1422 -0.5603
   42CHL1    C7 5525   4.387   2.403   9.816 -0.2038  0.0263 -0.0165
   42CHL1   H7A 5526   4.489   2.363   9.796 -1.1896 -2.3260 -0.6361
   42CHL1   H7B 5527   4.314   2.320   9.819 -0.7381  0.0184 -4.9454
   42CHL1    C8 5528   4.335   2.497   9.703 -0.2901 -0.2292 -0.2575
   42CHL1    H8 5529   4.419   2.563   9.671  1.8957 -3.4384 -1.6472
   42CHL1   C14 5530   4.301   2.411   9.581  0.0531 -1.1242  0.4717
   42CHL1   H14 5531   4.234   2.330   9.617  0.0028 -1.0831  0.4711
   42CHL1   C15 5532   4.430   2.346   9.538  0.7369 -0.0358  0.5238
   42CHL1  H15A 5533   4.517   2.416   9.530 -0.3483  1.3138  0.0673
   42CHL1  H15B 5534   4.469   2.268   9.606  0.0644 -1.7316 -0.9686
   42CHL1   C16 5535   4.392   2.295   9.395 -0.6254  0.3246 -0.0479
   42CHL1  H16A 5536   4.477   2.336   9.336 -0.7761  1.7653  0.6744
   42CHL1  H16B 5537   4.392   2.186   9.378  1.4339  0.0235  1.5875
   42CHL1   C17 5538   4.253   2.352   9.369  0.3388 -0.3635  0.8063
   42CHL1   H17 5539   4.175   2.280   9.402 -0.5204  0.2880  0.2409
   42CHL1   C13 5540   4.242   2.476   9.459 -0.1604  0.6955 -0.1470
   42CHL1   C18 5541   4.339   2.584   9.402  0.6782 -0.2600  0.5521
   42CHL1  H18A 5542   4.431   2.535   9.363  0.6299  0.0799  0.0045
   42CHL1  H18B 5543   4.290   2.649   9.326 -0.9208 -2.4250 -0.3738
   42CHL1  H18C 5544   4.373   2.651   9.484  1.9412 -0.4899  0.2282
   42CHL1   C12 5545   4.113   2.543   9.505 -0.1123  1.0068 -0.3420
   42CHL1  H12A 5546   4.049   2.595   9.431 -0.7903  0.4106 -0.1809
   42CHL1  H12B 5547   4.043   2.464   9.538  2.4288 -2.3640 -2.4152
   42CHL1   C11 5548   4.137   2.630   9.625 -0.5241  0.0331  0.5503
   42CHL1  H11A 5549   4.194   2.719   9.591 -0.0230 -0.8623 -1.0654
   42CHL1  H11B 5550   4.041   2.677   9.656 -0.8110 -0.5986  0.6307
   42CHL1    C9 5551   4.209   2.559   9.741  0.1009 -0.2327  0.1566
   42CHL1    H9 5552   4.152   2.472   9.782 -0.8513  0.3183  0.0142
   42CHL1   C10 5553   4.226   2.653   9.862  0.2290 -0.2290  0.0699
   42CHL1   C19 5554   4.302   2.781   9.812 -0.0093 -0.0903  0.0209
   42CHL1  H19A 5555   4.331   2.840   9.901 -1.4993 -0.2805  0.6518
   42CHL1  H19B 5556   4.388   2.762   9.744  0.0781 -0.1648  0.1529
   42CHL1  H19C 5557   4.231   2.844   9.754  0.4971 -1.0979 -1.7861
   42CHL1    C1 5558   4.092   2.685   9.931 -0.2018  0.4507 -0.0387
   42CHL1   H1A 5559   4.022   2.733   9.859  2.3263  0.8999 -2.3631
   42CHL1   H1B 5560   4.035   2.595   9.960 -1.6712  1.5794  0.7376
   42CHL1    C2 5561   4.095   2.774  10.063 -0.2086 -1.2252  0.8434
   42CHL1   H2A 5562   3.990   2.784  10.100 -1.6477  1.4638 -3.1951
   42CHL1   H2B 5563   4.136   2.872  10.032 -2.6572 -0.6133 -0.8320
   42CHL1   C20 5564   4.226   2.363   9.214  0.0997 -0.2823 -0.3498
   42CHL1   H20 5565   4.306   2.429   9.173 -0.8908  0.4305 -1.1693
   42CHL1   C21 5566   4.092   2.436   9.190  0.0118  0.5459 -0.0370
   42CHL1  H21A 5567   4.001   2.387   9.232  0.2714 -0.8004 -0.9850
   42CHL1  H21B 5568   4.077   2.459   9.083 -2.7335  0.3397  0.2237
   42CHL1  H21C 5569   4.110   2.535   9.237 -0.3421 -0.2133  1.7882
   42CHL1   C22 5570   4.225   2.218   9.153 -0.4870 -0.3980 -0.1960
   42CHL1  H22A 5571   4.321   2.172   9.183 -0.2256  0.9479  1.1357
   42CHL1  H22B 5572   4.145   2.165   9.207 -1.0694 -0.1157 -0.7682
   42CHL1   C23 5573   4.213   2.205   9.000 -0.0163  0.0119 -0.3907
   42CHL1  H23A 5574   4.110   2.228   8.964 -0.1347 -0.9228 -0.6849
   42CHL1  H23B 5575   4.263   2.287   8.945 -0.9525  0.7310 -0.1838
   42CHL1   C24 5576   4.263   2.066   8.938  0.8633 -0.3940 -0.0779
   42CHL1  H24A 5577   4.373   2.064   8.946  0.8762 -5.3648  1.5874
   42CHL1  H24B 5578   4.228   1.986   9.006  3.9891 -0.4021  1.6808
   42CHL1   C25 5579   4.231   2.049   8.795  0.0080  0.5002  0.2916
   42CHL1   H25 5580   4.123   2.063   8.774 -0.0130 -2.7617 -2.7906
   42CHL1   C26 5581   4.303   2.153   8.706  0.6616  0.5354 -0.5617
   42CHL1  H26A 5582   4.236   2.241   8.708  0.3390  0.4249 -3.1760
   42CHL1  H26B 5583   4.402   2.173   8.753 -0.0468 -0.4333  1.4926
   42CHL1  H26C 5584   4.306   2.111   8.603 -1.2456 -1.6657  0.1732
   42CHL1   C27 5585   4.282   1.913   8.744  0.6007 -0.1578 -0.8758
   42CHL1  H27A 5586   4.259   1.827   8.811  3.3928 -1.5229 -1.5085
   42CHL1  H27B 5587   4.244   1.896   8.641  1.7133  2.1611 -1.7385
   42CHL1  H27C 5588   4.393   1.918   8.746  0.6052 -0.4807  0.4158
   43CHL1    C3 5589   4.368   4.300   9.837 -0.1874  0.1850  0.0641
   43CHL1    H3 5590   4.281   4.364   9.813  0.5880  1.1927 -0.1009
   43CHL1    O3 5591   4.363   4.288   9.981 -0.6584  0.1794 -0.0855
   43CHL1   H3' 5592   4.300   4.355  10.009 -0.2322  0.7885 -0.5550
   43CHL1    C4 5593   4.371   4.160   9.767 -0.3534  0.4600  0.3627
   43CHL1   H4A 5594   4.465   4.110   9.797 -1.0446 -0.5551  0.9029
   43CHL1   H4B 5595   4.296   4.091   9.813  2.2010 -2.4589  0.4914
   43CHL1    C5 5596   4.374   4.160   9.617 -0.5505  0.0089  0.9071
   43CHL1    C6 5597   4.289   4.080   9.550 -0.2038 -0.4534  0.3601
   43CHL1    H6 5598   4.234   4.007   9.611  0.1951 -1.0473  0.0147
   43CHL1    C7 5599   4.273   4.077   9.399  0.4072 -0.3818 -0.6687
   43CHL1   H7A 5600   4.267   3.974   9.360  0.3159 -1.0311  0.9902
   43CHL1   H7B 5601   4.170   4.111   9.374  0.3682 -0.8755 -1.1868
   43CHL1    C8 5602   4.383   4.163   9.319  0.9273  0.4866 -0.6687
   43CHL1    H8 5603   4.462   4.086   9.321  0.2156 -0.2521  0.3385
   43CHL1   C14 5604   4.331   4.195   9.176  0.2553 -0.3213 -0.5468
   43CHL1   H14 5605   4.236   4.252   9.184 -0.5906 -1.9167  2.0680
   43CHL1   C15 5606   4.307   4.070   9.086 -0.8482  0.7306  0.6125
   43CHL1  H15A 5607   4.382   3.990   9.103  0.0422  1.7911  1.9390
   43CHL1  H15B 5608   4.205   4.045   9.122 -0.0467  0.6140  2.9524
   43CHL1   C16 5609   4.315   4.126   8.937 -0.0946  0.4740  0.2291
   43CHL1  H16A 5610   4.387   4.069   8.874 -1.1192 -0.3225 -0.2502
   43CHL1  H16B 5611   4.212   4.116   8.898 -0.6406 -0.6931  1.8510
   43CHL1   C17 5612   4.356   4.275   8.963 -0.5125  0.5248  0.2524
   43CHL1   H17 5613   4.262   4.332   8.978 -0.3605  0.9727 -0.4549
   43CHL1   C13 5614   4.429   4.280   9.098 -0.1993 -0.0185  0.1174
   43CHL1   C18 5615   4.568   4.216   9.073  0.5175 -0.4819 -0.1825
   43CHL1  H18A 5616   4.563   4.135   8.998  2.5828 -0.2087 -0.6703
   43CHL1  H18B 5617   4.651   4.280   9.037  0.0777  0.2658  0.1035
   43CHL1  H18C 5618   4.616   4.178   9.166  0.3324 -2.0282 -0.6950
   43CHL1   C12 5619   4.455   4.413   9.171 -0.2324  0.6260 -0.4635
   43CHL1  H12A 5620   4.534   4.474   9.123  0.7184  0.1610  0.4610
   43CHL1  H12B 5621   4.356   4.463   9.173 -1.6502 -2.0127  0.0871
   43CHL1   C11 5622   4.497   4.395   9.315 -0.5257  0.2045 -0.5947
   43CHL1  H11A 5623   4.606   4.374   9.323 -1.0369 -2.2984  0.7860
   43CHL1  H11B 5624   4.490   4.491   9.370  3.3930 -0.4486  1.4674
   43CHL1    C9 5625   4.419   4.291   9.401  0.6909 -0.2902 -0.1325
   43CHL1    H9 5626   4.316   4.333   9.397  0.8061  0.0328  0.2926
   43CHL1   C10 5627   4.466   4.267   9.553 -0.0733  0.2498  0.4682
   43CHL1   C19 5628   4.608   4.204   9.545  0.2994 -0.1477  0.8679
   43CHL1  H19A 5629   4.604   4.118   9.474 -0.0779  1.6986 -1.4417
   43CHL1  H19B 5630   4.672   4.286   9.504  1.4668 -1.5121 -0.1756
   43CHL1  H19C 5631   4.635   4.164   9.645 -1.8906  0.0111  1.5649
   43CHL1    C1 5632   4.468   4.404   9.624 -0.0702  0.0139 -0.9268
   43CHL1   H1A 5633   4.550   4.472   9.594  0.0855  1.7582  2.8458
   43CHL1   H1B 5634   4.381   4.470   9.607  0.1514  0.5801  0.0451
   43CHL1    C2 5635   4.487   4.390   9.779  0.5241 -0.1724 -0.3157
   43CHL1   H2A 5636   4.482   4.492   9.823 -1.3021 -1.0189  1.6978
   43CHL1   H2B 5637   4.585   4.344   9.805 -0.5084 -2.5997 -0.4705
   43CHL1   C20 5638   4.419   4.346   8.845  0.2410  0.3620  0.3184
   43CHL1   H20 5639   4.529   4.336   8.849  0.5233  2.8461  0.3742
   43CHL1   C21 5640   4.407   4.503   8.849  0.2373 -0.2106  0.0959
   43CHL1  H21A 5641   4.307   4.538   8.816 -0.1740 -1.5290 -0.1545
   43CHL1  H21B 5642   4.476   4.556   8.779  0.0244 -0.5162 -0.3501
   43CHL1  H21C 5643   4.431   4.553   8.944  1.8842 -0.7505  0.0113
   43CHL1   C22 5644   4.359   4.296   8.709 -0.0921  0.4054  0.4155
   43CHL1  H22A 5645   4.405   4.196   8.694  1.0697  0.7369  1.5777
   43CHL1  H22B 5646   4.248   4.287   8.704 -0.0168 -3.8548  1.8405
   43CHL1   C23 5647   4.393   4.384   8.587  0.0397 -0.1378 -0.1611
   43CHL1  H23A 5648   4.354   4.488   8.596  0.7865  0.0016  2.5874
   43CHL1  H23B 5649   4.504   4.388   8.583  0.0460  0.4301  0.3060
   43CHL1   C24 5650   4.355   4.335   8.443  0.2358  0.3907 -0.1677
   43CHL1  H24A 5651   4.417   4.381   8.363 -0.5479 -1.2393 -1.7679
   43CHL1  H24B 5652   4.364   4.225   8.439 -1.7895  0.1139  1.5419
   43CHL1   C25 5653   4.198   4.356   8.421 -0.0337  0.7743 -0.0039
   43CHL1   H25 5654   4.164   4.416   8.509  1.1314  1.1245  0.2343
   43CHL1   C26 5655   4.175   4.418   8.287 -0.5933  0.0887  0.7419
   43CHL1  H26A 5656   4.199   4.525   8.272 -0.7446  0.2820  1.7680
   43CHL1  H26B 5657   4.225   4.365   8.203  0.0690  0.3524  0.9635
   43CHL1  H26C 5658   4.066   4.410   8.269 -1.0130  1.2879  2.4905
   43CHL1   C27 5659   4.110   4.235   8.441 -0.4070  0.0047  0.3705
   43CHL1  H27A 5660   4.117   4.201   8.547 -0.4832 -1.4538 -0.0627
   43CHL1  H27B 5661   4.008   4.249   8.399 -0.5451 -2.1565 -0.1703
   43CHL1  H27C 5662   4.155   4.152   8.382  1.9576  2.4677 -1.4861
   44CHL1    C3 5663   4.158   3.751   9.751 -0.9973  0.6857 -0.2769
   44CHL1    H3 5664   4.203   3.850   9.730 -0.4180  0.7357  1.1092
   44CHL1    O3 5665   4.140   3.737   9.888 -0.2060  0.6862 -0.9492
   44CHL1   H3' 5666   4.056   3.777   9.913 -0.0245 -0.0946  1.1686
   44CHL1    C4 5667   4.021   3.733   9.684 -0.2567  1.1740 -0.1090
   44CHL1   H4A 5668   3.974   3.644   9.731  1.5740 -0.5229 -1.3230
   44CHL1   H4B 5669   3.958   3.811   9.732 -0.5145  0.3262  0.9556
   44CHL1    C5 5670   4.012   3.719   9.533 -0.4472 -0.6104 -0.5592
   44CHL1    C6 5671   3.938   3.797   9.457  0.6968  0.3740 -0.5351
   44CHL1    H6 5672   3.871   3.872   9.503  0.2452 -0.6915  0.6032
   44CHL1    C7 5673   3.922   3.785   9.309  0.3521  0.5006 -0.3840
   44CHL1   H7A 5674   3.818   3.786   9.271 -0.7247 -1.7689  2.1925
   44CHL1   H7B 5675   3.970   3.873   9.261  0.7755 -0.4307 -1.7172
   44CHL1    C8 5676   4.011   3.667   9.244  0.3482 -0.1144 -0.1781
   44CHL1    H8 5677   3.951   3.574   9.252  1.1893 -0.6111  0.5438
   44CHL1   C14 5678   4.045   3.693   9.101  0.0908  0.3070 -0.2511
   44CHL1   H14 5679   4.109   3.784   9.096 -0.7878  0.9602 -0.0285
   44CHL1   C15 5680   3.923   3.735   9.016 -0.6252 -0.2671  0.2640
   44CHL1  H15A 5681   3.825   3.690   9.041 -0.9752 -0.7032 -1.7450
   44CHL1  H15B 5682   3.910   3.845   9.020 -0.2881 -0.2406  0.7298
   44CHL1   C16 5683   3.968   3.700   8.873 -0.0510  0.0956 -0.4628
   44CHL1  H16A 5684   3.889   3.635   8.829  0.3768 -0.6159 -0.2038
   44CHL1  H16B 5685   3.969   3.794   8.815 -1.2071  0.7655  0.5372
   44CHL1   C17 5686   4.108   3.635   8.882 -0.7063 -0.6496 -0.0956
   44CHL1   H17 5687   4.187   3.713   8.878 -3.0437  1.8078 -1.1605
   44CHL1   C13 5688   4.114   3.581   9.030  0.4497 -0.0158  0.1139
   44CHL1   C18 5689   4.031   3.450   9.027  0.0866  0.7156 -0.4905
   44CHL1  H18A 5690   4.085   3.359   8.992  0.5741  0.6983  0.2983
   44CHL1  H18B 5691   4.003   3.423   9.130 -0.8586  0.8077 -0.7205
   44CHL1  H18C 5692   3.937   3.460   8.969 -0.0073  0.1288 -0.4422
   44CHL1   C12 5693   4.252   3.561   9.102  0.4915  0.1985  0.3857
   44CHL1  H12A 5694   4.314   3.479   9.059  0.6857 -0.2931  1.5849
   44CHL1  H12B 5695   4.312   3.654   9.093  0.1645  0.2722 -1.6327
   44CHL1   C11 5696   4.223   3.533   9.249 -0.5326 -0.0621 -0.1544
   44CHL1  H11A 5697   4.159   3.443   9.256  0.1296 -0.4528  1.1626
   44CHL1  H11B 5698   4.319   3.520   9.304 -0.1078 -0.3087 -0.9384
   44CHL1    C9 5699   4.138   3.641   9.318  0.7565 -0.7913 -0.3665
   44CHL1    H9 5700   4.200   3.733   9.316 -0.8446  0.3344 -0.3520
   44CHL1   C10 5701   4.113   3.615   9.471 -0.2283  0.6138  0.1683
   44CHL1   C19 5702   4.055   3.476   9.501 -0.0005 -0.5486  0.2170
   44CHL1  H19A 5703   3.970   3.459   9.433 -0.6493 -2.9914  1.5518
   44CHL1  H19B 5704   4.126   3.391   9.491 -1.1684 -1.4551 -0.5476
   44CHL1  H19C 5705   4.017   3.464   9.604 -1.8476  0.1644 -0.3495
   44CHL1    C1 5706   4.255   3.633   9.548  0.0024 -0.0706 -0.1640
   44CHL1   H1A 5707   4.316   3.545   9.519  0.7820  0.5851 -0.6010
   44CHL1   H1B 5708   4.306   3.725   9.511 -0.2018  0.4497  0.7990
   44CHL1    C2 5709   4.250   3.634   9.704 -0.0326  0.1380 -0.3611
   44CHL1   H2A 5710   4.355   3.641   9.741 -0.6081 -0.7285  1.5664
   44CHL1   H2B 5711   4.210   3.536   9.737 -0.8211 -0.3652 -2.6556
   44CHL1   C20 5712   4.138   3.551   8.752  0.0739  0.6859 -0.0227
   44CHL1   H20 5713   4.068   3.466   8.764  0.0747  0.6365 -0.3881
   44CHL1   C21 5714   4.272   3.491   8.765 -0.8303  0.5054  0.9336
   44CHL1  H21A 5715   4.290   3.434   8.671  0.4551  0.4038  1.2312
   44CHL1  H21B 5716   4.277   3.418   8.849  2.3899 -2.5193 -1.5733
   44CHL1  H21C 5717   4.346   3.573   8.777  0.2451 -0.2118 -0.4708
   44CHL1   C22 5718   4.107   3.614   8.620  0.2114  0.6445  1.0264
   44CHL1  H22A 5719   4.110   3.537   8.540  0.1023  0.3268  1.3248
   44CHL1  H22B 5720   4.003   3.655   8.619  0.3209  0.9151  0.0084
   44CHL1   C23 5721   4.202   3.725   8.574  0.0798  0.2334  0.2886
   44CHL1  H23A 5722   4.205   3.808   8.648  1.2477  0.2807  0.2012
   44CHL1  H23B 5723   4.306   3.688   8.577 -0.4088 -1.1429  1.6114
   44CHL1   C24 5724   4.153   3.780   8.441  0.0866 -0.2451  0.3024
   44CHL1  H24A 5725   4.099   3.701   8.385  0.5671  0.9513 -1.9680
   44CHL1  H24B 5726   4.073   3.855   8.461  0.6885  0.2899  0.7373
   44CHL1   C25 5727   4.262   3.840   8.356 -0.3021  0.0655 -1.0182
   44CHL1   H25 5728   4.227   3.907   8.274  0.1591  1.8155  0.1600
   44CHL1   C26 5729   4.372   3.906   8.450  0.0506 -0.0463  0.1986
   44CHL1  H26A 5730   4.427   3.829   8.508 -0.2677 -1.3521 -1.1593
   44CHL1  H26B 5731   4.452   3.952   8.388  0.6978  1.0614  1.7878
   44CHL1  H26C 5732   4.324   3.977   8.521 -0.5808 -1.1433  0.8882
   44CHL1   C27 5733   4.344   3.722   8.292 -0.0087 -0.4357  0.1084
   44CHL1  H27A 5734   4.275   3.657   8.235 -0.3467 -1.4408  1.6258
   44CHL1  H27B 5735   4.426   3.772   8.235  0.6408  0.5827  1.8391
   44CHL1  H27C 5736   4.392   3.662   8.372 -0.5827  0.4160  1.1291
   45CHL1    C3 5737   3.247   2.407   9.894  0.5776 -0.1120 -0.3582
   45CHL1    H3 5738   3.342   2.449   9.855  0.9603 -0.8521 -0.2337
   45CHL1    O3 5739   3.257   2.382  10.032  0.3696 -0.6300  0.2010
   45CHL1   H3' 5740   3.176   2.399  10.081  1.3445  0.8743  1.3987
   45CHL1    C4 5741   3.131   2.512   9.885  0.4185  0.3495 -0.6370
   45CHL1   H4A 5742   3.032   2.469   9.912 -0.5319  2.9555  0.3328
   45CHL1   H4B 5743   3.151   2.592   9.959  0.8899 -1.1324  0.9220
   45CHL1    C5 5744   3.128   2.543   9.740 -0.1292  0.0500 -0.1826
   45CHL1    C6 5745   3.149   2.670   9.703  0.1533  0.2334  0.0270
   45CHL1    H6 5746   3.168   2.747   9.779  3.0780 -0.4617  0.1310
   45CHL1    C7 5747   3.144   2.725   9.565 -0.6131 -0.2960  0.1341
   45CHL1   H7A 5748   3.087   2.820   9.563  1.6045  1.0974 -0.1514
   45CHL1   H7B 5749   3.247   2.745   9.530  0.0548 -1.6213  1.2498
   45CHL1    C8 5750   3.100   2.630   9.450 -0.3494  0.1295  0.4438
   45CHL1    H8 5751   3.167   2.652   9.363  2.5307  2.2007  2.9713
   45CHL1   C14 5752   2.957   2.646   9.392  0.0361  0.0936 -0.0520
   45CHL1   H14 5753   2.885   2.641   9.476 -1.8422  0.3254 -1.5851
   45CHL1   C15 5754   2.954   2.787   9.318 -0.5150 -0.7121  0.0748
   45CHL1  H15A 5755   2.849   2.822   9.322  0.0363  1.2839 -1.2892
   45CHL1  H15B 5756   3.020   2.862   9.368 -0.8043  0.0801 -0.7129
   45CHL1   C16 5757   2.993   2.762   9.171  0.2457  0.0721 -0.5425
   45CHL1  H16A 5758   2.921   2.817   9.107  1.5910  0.7962 -1.5095
   45CHL1  H16B 5759   3.096   2.797   9.149 -0.0266  0.5743 -1.0365
   45CHL1   C17 5760   2.984   2.614   9.145  0.0205  0.1261 -1.0119
   45CHL1   H17 5761   3.086   2.571   9.134 -0.3928 -0.6228 -2.0802
   45CHL1   C13 5762   2.919   2.551   9.280 -0.2851 -0.2496  0.2350
   45CHL1   C18 5763   2.766   2.561   9.263 -0.0875 -0.7917 -0.1914
   45CHL1  H18A 5764   2.732   2.484   9.191 -3.0134  0.2000  0.0144
   45CHL1  H18B 5765   2.709   2.546   9.357 -0.4792  1.4653 -0.0071
   45CHL1  H18C 5766   2.729   2.662   9.233 -0.2660 -1.0954 -1.0135
   45CHL1   C12 5767   2.954   2.413   9.319  0.0334 -0.0933 -0.6054
   45CHL1  H12A 5768   2.879   2.388   9.397  0.1759 -2.1691 -1.0705
   45CHL1  H12B 5769   2.922   2.337   9.245 -1.0621 -0.6801  0.4268
   45CHL1   C11 5770   3.093   2.380   9.369  0.5072 -0.0291 -0.4323
   45CHL1  H11A 5771   3.094   2.274   9.403 -0.4913 -0.5965 -2.0619
   45CHL1  H11B 5772   3.164   2.386   9.284 -0.5550 -1.5537 -1.4730
   45CHL1    C9 5773   3.131   2.479   9.486 -0.2621  0.4079  0.4515
   45CHL1    H9 5774   3.242   2.479   9.486 -0.2323  2.1547  1.3768
   45CHL1   C10 5775   3.096   2.433   9.631  0.8532  0.5409  0.1620
   45CHL1   C19 5776   2.952   2.373   9.656  0.1401 -0.2066 -0.3311
   45CHL1  H19A 5777   2.940   2.300   9.573  4.3778 -0.6176 -0.7715
   45CHL1  H19B 5778   2.935   2.324   9.754  2.9466 -1.7752 -0.5281
   45CHL1  H19C 5779   2.874   2.449   9.632  0.1569 -0.6047 -1.7235
   45CHL1    C1 5780   3.196   2.311   9.666 -0.5474 -0.6167 -0.4417
   45CHL1   H1A 5781   3.159   2.220   9.612 -0.7951 -0.9730  0.3131
   45CHL1   H1B 5782   3.299   2.343   9.643 -1.4723  3.0399 -0.0501
   45CHL1    C2 5783   3.205   2.281   9.818  0.3221 -0.4073  0.0519
   45CHL1   H2A 5784   3.277   2.198   9.833 -0.3424 -0.7468  1.4561
   45CHL1   H2B 5785   3.108   2.249   9.861 -1.6953  1.0432 -3.0683
   45CHL1   C20 5786   2.918   2.590   9.009 -0.1170  0.9387  0.1786
   45CHL1   H20 5787   2.813   2.625   9.012 -0.5503 -0.3290  1.9914
   45CHL1   C21 5788   2.922   2.434   8.990 -0.9759 -0.3355 -0.3297
   45CHL1  H21A 5789   3.024   2.390   8.999 -0.3079  1.3535  0.8440
   45CHL1  H21B 5790   2.889   2.413   8.886 -0.4260 -1.4654 -0.2945
   45CHL1  H21C 5791   2.844   2.383   9.051 -2.6618  0.4404 -1.7549
   45CHL1   C22 5792   2.997   2.670   8.900 -0.0353  0.2265  0.1150
   45CHL1  H22A 5793   3.016   2.777   8.923  1.2344  0.6744 -2.6675
   45CHL1  H22B 5794   3.098   2.624   8.895  0.4677  1.3909 -0.6768
   45CHL1   C23 5795   2.929   2.670   8.766 -0.5353  0.2917 -0.3982
   45CHL1  H23A 5796   2.922   2.568   8.724 -0.2635 -0.4351  1.2743
   45CHL1  H23B 5797   2.824   2.708   8.772 -0.8695 -0.1341 -2.5903
   45CHL1   C24 5798   3.000   2.766   8.671  0.9701 -0.0894 -0.3846
   45CHL1  H24A 5799   3.011   2.865   8.720 -0.5890 -0.7458  1.4129
   45CHL1  H24B 5800   3.092   2.706   8.656 -0.5160 -2.8233  0.6614
   45CHL1   C25 5801   2.936   2.785   8.529 -0.5708 -0.4548  0.1951
   45CHL1   H25 5802   2.826   2.794   8.544 -0.6685  0.0973 -0.7813
   45CHL1   C26 5803   2.986   2.908   8.455  0.0940  0.4330 -0.4021
   45CHL1  H26A 5804   2.920   2.897   8.366 -0.3960 -3.3116  0.2405
   45CHL1  H26B 5805   2.967   3.005   8.506  1.3283  0.1121  0.7048
   45CHL1  H26C 5806   3.090   2.910   8.416 -0.0859  0.7842 -0.8760
   45CHL1   C27 5807   2.959   2.661   8.445  0.1186  0.1728  0.2572
   45CHL1  H27A 5808   3.064   2.657   8.407 -0.1950 -1.6908 -0.5171
   45CHL1  H27B 5809   2.945   2.574   8.511  1.5715  0.9554  1.6761
   45CHL1  H27C 5810   2.905   2.668   8.348  2.4434 -2.9202 -1.4706
   46CHL1    C3 5811   6.126   6.139   9.867 -0.0901 -0.3372 -0.1530
   46CHL1    H3 5812   6.055   6.214   9.825  0.6527  0.0406 -0.7734
   46CHL1    O3 5813   6.115   6.112  10.004  0.1150 -0.5560 -0.5097
   46CHL1   H3' 5814   6.200   6.085  10.040  0.4683  1.3664  0.2060
   46CHL1    C4 5815   6.097   6.015   9.783 -0.2458 -0.3639 -0.1499
   46CHL1   H4A 5816   6.155   5.930   9.826  3.4451  2.3486  0.6945
   46CHL1   H4B 5817   5.991   5.980   9.786 -0.2637 -0.8646 -3.5055
   46CHL1    C5 5818   6.123   6.029   9.639  0.1023  0.0424  0.2943
   46CHL1    C6 5819   6.026   6.012   9.544  0.3316 -0.1348  0.1138
   46CHL1    H6 5820   5.925   5.997   9.583  0.7527 -0.7795  0.9904
   46CHL1    C7 5821   6.058   5.999   9.392 -0.1925 -0.1685 -0.3841
   46CHL1   H7A 5822   6.017   5.904   9.350  1.4837 -0.5088 -1.3346
   46CHL1   H7B 5823   6.016   6.085   9.335  2.0922  1.3873  0.1772
   46CHL1    C8 5824   6.216   6.004   9.365  0.2929  0.3561  0.3558
   46CHL1    H8 5825   6.253   5.903   9.389 -1.5780 -0.8059 -1.3002
   46CHL1   C14 5826   6.235   6.017   9.217  0.2964 -0.6119  0.7101
   46CHL1   H14 5827   6.194   6.116   9.185  0.2968 -0.9032 -0.2397
   46CHL1   C15 5828   6.169   5.919   9.116 -0.0166  0.0212  0.1263
   46CHL1  H15A 5829   6.184   5.819   9.162 -0.3669  0.8401  2.1296
   46CHL1  H15B 5830   6.061   5.937   9.098 -0.2701 -0.8797  0.6850
   46CHL1   C16 5831   6.251   5.948   8.989 -0.2317 -0.0577  0.2893
   46CHL1  H16A 5832   6.281   5.847   8.952 -2.7170 -0.6840 -0.1943
   46CHL1  H16B 5833   6.182   5.996   8.917  0.8445  0.2864 -0.5327
   46CHL1   C17 5834   6.373   6.039   9.032  0.1468  0.3008  0.8240
   46CHL1   H17 5835   6.332   6.141   9.015 -1.1817 -0.2470  0.5834
   46CHL1   C13 5836   6.384   6.013   9.181  0.0830 -0.4901  0.3626
   46CHL1   C18 5837   6.448   5.878   9.214 -0.0924 -0.6071 -1.1495
   46CHL1  H18A 5838   6.407   5.792   9.157  0.6330 -1.6862 -0.1016
   46CHL1  H18B 5839   6.555   5.889   9.189  0.6515 -1.0486  1.5685
   46CHL1  H18C 5840   6.447   5.849   9.321 -2.5654 -0.7705 -1.1477
   46CHL1   C12 5841   6.449   6.123   9.267 -0.3981  0.3087  0.1926
   46CHL1  H12A 5842   6.557   6.135   9.243 -0.5790 -0.1851 -0.9477
   46CHL1  H12B 5843   6.405   6.219   9.233  1.5303  0.8351 -1.0132
   46CHL1   C11 5844   6.439   6.109   9.417 -0.4512  0.1868 -0.2319
   46CHL1  H11A 5845   6.490   6.013   9.440 -1.1021 -0.0251  0.3530
   46CHL1  H11B 5846   6.490   6.195   9.465  1.8125 -1.4638  0.4241
   46CHL1    C9 5847   6.290   6.106   9.453  0.0320 -0.8377  0.2579
   46CHL1    H9 5848   6.261   6.211   9.430  2.6187 -0.6272 -2.7092
   46CHL1   C10 5849   6.269   6.068   9.604 -0.4142 -0.2472 -0.4143
   46CHL1   C19 5850   6.361   5.953   9.648  0.3950  0.4205  0.3186
   46CHL1  H19A 5851   6.357   5.866   9.578 -0.7954  1.4992 -1.0133
   46CHL1  H19B 5852   6.463   5.997   9.655 -0.5592  3.0648 -0.9472
   46CHL1  H19C 5853   6.345   5.906   9.747  1.8281 -0.9465 -0.0578
   46CHL1    C1 5854   6.298   6.198   9.691  0.2422 -0.8957 -0.8098
   46CHL1   H1A 5855   6.401   6.233   9.666 -0.5142  0.4498 -2.2047
   46CHL1   H1B 5856   6.234   6.281   9.653  0.5293  0.3862  1.3839
   46CHL1    C2 5857   6.271   6.188   9.841  0.0324  0.2937  0.0151
   46CHL1   H2A 5858   6.288   6.283   9.896  4.1844  1.6297 -3.0570
   46CHL1   H2B 5859   6.348   6.117   9.879 -0.9691 -1.3727 -0.9198
   46CHL1   C20 5860   6.493   6.016   8.930  0.1212  0.1464  1.0141
   46CHL1   H20 5861   6.514   5.907   8.924  1.5914  0.4323  0.3628
   46CHL1   C21 5862   6.610   6.093   8.980 -0.8871  0.5187  0.5230
   46CHL1  H21A 5863   6.599   6.203   8.989  0.7225  0.5245  4.0964
   46CHL1  H21B 5864   6.700   6.072   8.918  0.3218  2.7372  1.4064
   46CHL1  H21C 5865   6.632   6.051   9.080 -1.3058  2.2895  1.4030
   46CHL1   C22 5866   6.455   6.059   8.788 -0.2537  0.0217  0.5273
   46CHL1  H22A 5867   6.366   5.997   8.764  0.2540 -1.9084  3.1615
   46CHL1  H22B 5868   6.417   6.163   8.793 -1.0043 -0.0861 -1.8838
   46CHL1   C23 5869   6.576   6.048   8.678  0.3300  0.3286  0.1393
   46CHL1  H23A 5870   6.631   6.144   8.687  0.2270  0.4813 -0.7584
   46CHL1  H23B 5871   6.638   5.969   8.724  0.3656  1.1988  1.6676
   46CHL1   C24 5872   6.526   6.022   8.534  0.4713  0.5827  0.2132
   46CHL1  H24A 5873   6.475   5.924   8.523  2.3399 -0.5031  0.7954
   46CHL1  H24B 5874   6.459   6.108   8.511 -0.8918 -0.1157  1.4191
   46CHL1   C25 5875   6.633   6.013   8.425 -0.5092  0.4514  0.0641
   46CHL1   H25 5876   6.700   5.930   8.457 -1.2012  0.0074  0.3856
   46CHL1   C26 5877   6.580   5.966   8.285 -0.0169  0.3194 -0.4327
   46CHL1  H26A 5878   6.492   6.029   8.259 -0.5711 -0.1214  0.3132
   46CHL1  H26B 5879   6.665   5.965   8.214  0.1919  0.1478 -0.1811
   46CHL1  H26C 5880   6.541   5.862   8.295 -0.4327  0.4530 -0.6387
   46CHL1   C27 5881   6.726   6.140   8.430 -0.0010 -0.1779 -0.5403
   46CHL1  H27A 5882   6.662   6.227   8.402  0.4043  0.3574  0.1465
   46CHL1  H27B 5883   6.765   6.167   8.530  0.1365  2.0982 -1.1532
   46CHL1  H27C 5884   6.812   6.133   8.359  0.5908  0.7192  0.0611
   47CHL1    C3 5885   5.820   3.861  10.062  0.3499 -0.3867  0.5630
   47CHL1    H3 5886   5.714   3.834  10.086  0.4273  1.5061  3.6469
   47CHL1    O3 5887   5.874   3.886  10.190 -0.4790  0.9680 -0.7142
   47CHL1   H3' 5888   5.969   3.876  10.178 -0.4224 -0.0604  0.3779
   47CHL1    C4 5889   5.895   3.751   9.993 -0.1103 -0.4411 -0.3244
   47CHL1   H4A 5890   6.000   3.789   9.989 -0.0605 -0.6121 -0.7326
   47CHL1   H4B 5891   5.893   3.660  10.057  0.8536 -0.4284 -0.2533
   47CHL1    C5 5892   5.847   3.721   9.849 -0.1581 -0.3728 -0.1394
   47CHL1    C6 5893   5.803   3.600   9.819  0.0069  0.1908  0.8011
   47CHL1    H6 5894   5.817   3.527   9.900  0.6000  0.6613  1.1413
   47CHL1    C7 5895   5.755   3.567   9.674 -0.1628 -0.0678  0.0362
   47CHL1   H7A 5896   5.818   3.483   9.638  1.4071  1.8660 -2.0379
   47CHL1   H7B 5897   5.650   3.533   9.680  0.3899 -1.6801  1.4939
   47CHL1    C8 5898   5.773   3.678   9.571  0.0297 -0.7155 -0.2517
   47CHL1    H8 5899   5.876   3.682   9.529 -0.2227  3.0598 -0.8705
   47CHL1   C14 5900   5.675   3.660   9.451  0.2768  0.3401  0.0069
   47CHL1   H14 5901   5.575   3.656   9.500 -0.0720 -1.6654 -0.7744
   47CHL1   C15 5902   5.686   3.522   9.378  0.7235 -0.9597  0.3456
   47CHL1  H15A 5903   5.795   3.510   9.359  0.5137 -3.5418  0.4689
   47CHL1  H15B 5904   5.646   3.442   9.443 -1.0390  2.0548  3.3054
   47CHL1   C16 5905   5.618   3.551   9.245 -0.0469  0.7937  0.2405
   47CHL1  H16A 5906   5.689   3.523   9.164 -0.3888  1.0706 -0.1607
   47CHL1  H16B 5907   5.521   3.498   9.232 -0.0543  0.7270  0.5773
   47CHL1   C17 5908   5.593   3.704   9.241  0.1314 -0.2255  0.0244
   47CHL1   H17 5909   5.489   3.717   9.278  0.0481  1.3429 -0.7106
   47CHL1   C13 5910   5.681   3.769   9.344  0.0520  0.3373  0.5127
   47CHL1   C18 5911   5.825   3.777   9.286 -0.2407 -0.1348  0.0160
   47CHL1  H18A 5912   5.898   3.815   9.361 -2.7970  4.5686  0.5374
   47CHL1  H18B 5913   5.864   3.683   9.243 -1.6228 -0.6826 -0.0978
   47CHL1  H18C 5914   5.829   3.855   9.207 -0.6731  0.1324  0.2498
   47CHL1   C12 5915   5.640   3.902   9.410 -0.7221 -0.5535  0.3754
   47CHL1  H12A 5916   5.659   3.980   9.333  0.0169 -0.3377  0.7635
   47CHL1  H12B 5917   5.532   3.903   9.437 -2.1870  1.4761 -4.3916
   47CHL1   C11 5918   5.725   3.934   9.535  0.3092  0.3915 -0.0007
   47CHL1  H11A 5919   5.824   3.967   9.499 -1.1642  2.9589 -2.0477
   47CHL1  H11B 5920   5.680   4.021   9.589  1.6983  0.5269  1.0039
   47CHL1    C9 5921   5.743   3.817   9.632  0.2215 -0.1212  0.3110
   47CHL1    H9 5922   5.643   3.801   9.678  0.3341  2.0399  1.4365
   47CHL1   C10 5923   5.831   3.845   9.759 -0.4045 -0.3089  0.1733
   47CHL1   C19 5924   5.979   3.880   9.707 -0.4586 -0.1127  0.4228
   47CHL1  H19A 5925   6.035   3.910   9.798 -1.4183  1.5896  0.5071
   47CHL1  H19B 5926   6.018   3.788   9.660 -1.0391 -0.0895 -0.1107
   47CHL1  H19C 5927   5.986   3.968   9.639  0.9825  1.1130  2.0662
   47CHL1    C1 5928   5.768   3.965   9.834 -0.5879  0.5974 -0.1716
   47CHL1   H1A 5929   5.789   4.062   9.784  1.2134  1.2651  1.7483
   47CHL1   H1B 5930   5.659   3.951   9.848 -0.5994  1.3436  0.5067
   47CHL1    C2 5931   5.825   3.992   9.977  0.6293 -0.1404  1.0007
   47CHL1   H2A 5932   5.760   4.062  10.034 -0.0332  0.5289 -0.5346
   47CHL1   H2B 5933   5.926   4.040   9.977  0.2291  0.7322  1.1380
   47CHL1   C20 5934   5.598   3.758   9.098  0.2756 -0.5852  0.1878
   47CHL1   H20 5935   5.699   3.783   9.061 -0.7061  2.7001 -0.6522
   47CHL1   C21 5936   5.530   3.897   9.090  0.3191  0.9497  0.4801
   47CHL1  H21A 5937   5.423   3.874   9.109  0.3633 -1.0466 -1.2901
   47CHL1  H21B 5938   5.531   3.949   8.992  0.8845  1.9227  0.9802
   47CHL1  H21C 5939   5.567   3.972   9.163  0.8720  0.5319  0.6373
   47CHL1   C22 5940   5.540   3.661   8.992  1.3075  0.2402 -0.5033
   47CHL1  H22A 5941   5.608   3.576   8.970  1.7736  0.1608  1.1472
   47CHL1  H22B 5942   5.441   3.626   9.029  0.5357  2.4074 -0.4102
   47CHL1   C23 5943   5.515   3.720   8.856 -0.0836 -0.2741  0.9442
   47CHL1  H23A 5944   5.428   3.788   8.866 -1.2982 -1.6527  0.2066
   47CHL1  H23B 5945   5.599   3.777   8.810 -1.4687  0.3653 -0.8861
   47CHL1   C24 5946   5.460   3.624   8.745  0.3590  0.1069 -0.1878
   47CHL1  H24A 5947   5.545   3.557   8.720  1.6854  1.7506 -0.2702
   47CHL1  H24B 5948   5.367   3.571   8.775  0.2471  1.5468  2.3476
   47CHL1   C25 5949   5.427   3.704   8.613  0.7499  0.2777 -0.8887
   47CHL1   H25 5950   5.520   3.758   8.584  1.3095 -0.8338 -1.2214
   47CHL1   C26 5951   5.367   3.620   8.495  0.2574 -0.0938 -1.0794
   47CHL1  H26A 5952   5.334   3.682   8.409 -1.9754  0.9735  0.4459
   47CHL1  H26B 5953   5.276   3.563   8.524  0.5232 -0.2240 -0.4894
   47CHL1  H26C 5954   5.441   3.545   8.463  0.3464 -0.5588  0.1761
   47CHL1   C27 5955   5.326   3.822   8.633 -0.0236 -0.2047 -0.1284
   47CHL1  H27A 5956   5.303   3.872   8.537 -0.6910 -0.5091 -0.1325
   47CHL1  H27B 5957   5.241   3.768   8.681  0.4417  0.8878  2.0698
   47CHL1  H27C 5958   5.364   3.903   8.700  0.2533  0.7246 -1.3770
   48CHL1    C3 5959   1.578   4.872   9.649  0.4758  0.0078  0.0496
   48CHL1    H3 5960   1.609   4.977   9.668  1.3764 -0.5115  1.6170
   48CHL1    O3 5961   1.509   4.828   9.765  0.6024 -0.3833 -0.1374
   48CHL1   H3' 5962   1.572   4.810   9.835 -0.6877 -1.5327  0.7929
   48CHL1    C4 5963   1.490   4.868   9.524  0.5918 -0.9198 -0.1096
   48CHL1   H4A 5964   1.449   4.767   9.504 -2.2094  0.1569 -0.1893
   48CHL1   H4B 5965   1.405   4.936   9.545  0.8084 -0.4335 -0.7832
   48CHL1    C5 5966   1.560   4.897   9.396 -0.3918 -0.4315  0.6345
   48CHL1    C6 5967   1.510   4.983   9.310  0.1704 -0.0522  0.2138
   48CHL1    H6 5968   1.417   5.041   9.322  1.7001  2.4577  0.6601
   48CHL1    C7 5969   1.575   5.003   9.177 -0.4356 -0.7509 -0.0991
   48CHL1   H7A 5970   1.501   4.984   9.096 -0.6516 -2.1517  0.3917
   48CHL1   H7B 5971   1.595   5.111   9.168 -1.9656 -0.3439  1.0332
   48CHL1    C8 5972   1.686   4.902   9.126 -0.2411  0.5932 -0.1634
   48CHL1    H8 5973   1.636   4.816   9.075 -0.6473  1.0943 -0.6151
   48CHL1   C14 5974   1.774   4.950   9.010  0.9362 -0.3241  0.8111
   48CHL1   H14 5975   1.804   5.048   9.054  0.2523 -0.0469  0.6767
   48CHL1   C15 5976   1.704   4.982   8.878  0.2841 -0.1484  0.1658
   48CHL1  H15A 5977   1.651   4.887   8.852  0.2648 -0.6267  1.8800
   48CHL1  H15B 5978   1.632   5.067   8.886 -0.7410 -0.7187 -2.0445
   48CHL1   C16 5979   1.816   4.996   8.771 -0.4895  0.0854  0.1502
   48CHL1  H16A 5980   1.778   4.932   8.689  0.1503  0.1234 -0.1792
   48CHL1  H16B 5981   1.826   5.103   8.742 -0.1229 -0.1634 -0.6783
   48CHL1   C17 5982   1.947   4.946   8.850 -0.0323  0.0745 -0.5534
   48CHL1   H17 5983   2.003   5.037   8.881  0.8110 -0.0261 -1.7553
   48CHL1   C13 5984   1.894   4.867   8.973  0.1871 -0.8066  0.4696
   48CHL1   C18 5985   1.848   4.719   8.929 -0.5956 -1.1904 -0.0838
   48CHL1  H18A 5986   1.790   4.722   8.834 -0.6277  4.4816 -0.2557
   48CHL1  H18B 5987   1.942   4.662   8.910  0.7854  0.3102  1.7960
   48CHL1  H18C 5988   1.805   4.667   9.017  2.8456 -1.9879  1.2962
   48CHL1   C12 5989   1.976   4.862   9.102 -0.2628 -0.5689 -0.2330
   48CHL1  H12A 5990   2.061   4.792   9.084  0.5598  0.9751 -2.9414
   48CHL1  H12B 5991   2.008   4.964   9.130 -1.0306 -0.5292  0.5268
   48CHL1   C11 5992   1.899   4.800   9.227 -0.7409 -0.1318  0.1764
   48CHL1  H11A 5993   1.873   4.695   9.200 -1.7487  0.5193 -1.5660
   48CHL1  H11B 5994   1.966   4.809   9.315 -1.2171 -0.2487  0.5602
   48CHL1    C9 5995   1.768   4.872   9.248 -0.2956  0.5246 -0.5087
   48CHL1    H9 5996   1.797   4.970   9.291 -0.2671 -0.2089  1.2564
   48CHL1   C10 5997   1.686   4.815   9.365 -0.6274 -0.0411 -0.2533
   48CHL1   C19 5998   1.662   4.668   9.318  0.6391 -0.2988 -0.3452
   48CHL1  H19A 5999   1.589   4.633   9.393  0.4548  1.7741  0.5163
   48CHL1  H19B 6000   1.610   4.658   9.220 -0.0118  1.8129 -0.2680
   48CHL1  H19C 6001   1.751   4.603   9.331  0.1291 -0.7167  1.2032
   48CHL1    C1 6002   1.765   4.806   9.505 -0.5037  0.6850  0.1644
   48CHL1   H1A 6003   1.847   4.733   9.492 -1.3016 -0.1091 -0.5039
   48CHL1   H1B 6004   1.823   4.901   9.502  0.8446 -0.1230 -0.2701
   48CHL1    C2 6005   1.696   4.781   9.634 -0.6425 -0.0694 -0.1931
   48CHL1   H2A 6006   1.768   4.799   9.717 -3.0109  3.7505  1.3157
   48CHL1   H2B 6007   1.660   4.676   9.634 -1.3955  0.1811 -0.2817
   48CHL1   C20 6008   2.046   4.876   8.763 -0.4250  0.1155  1.1592
   48CHL1   H20 6009   2.011   4.772   8.747 -0.7556  0.3777  0.1235
   48CHL1   C21 6010   2.190   4.881   8.824 -0.6680  0.5137  0.1122
   48CHL1  H21A 6011   2.256   4.828   8.752 -0.1681 -0.7092  1.4128
   48CHL1  H21B 6012   2.204   4.819   8.916  0.3916  0.1702 -0.2593
   48CHL1  H21C 6013   2.225   4.985   8.837  2.9681 -0.3220 -1.6768
   48CHL1   C22 6014   2.055   4.921   8.616 -0.8724 -0.8057  0.4708
   48CHL1  H22A 6015   2.124   4.854   8.561  0.8877  1.7877 -0.6954
   48CHL1  H22B 6016   1.954   4.907   8.572 -0.4766  1.6311 -1.4487
   48CHL1   C23 6017   2.096   5.068   8.596 -0.1900  0.4650 -0.0077
   48CHL1  H23A 6018   2.024   5.130   8.652 -0.3673  1.3468 -1.1632
   48CHL1  H23B 6019   2.190   5.097   8.647 -0.0190 -0.3094  0.1230
   48CHL1   C24 6020   2.095   5.105   8.452  0.3351  0.1566  0.2573
   48CHL1  H24A 6021   2.157   5.037   8.390  1.1050  1.3158 -0.2929
   48CHL1  H24B 6022   1.988   5.096   8.424  0.5665 -0.0490 -0.5919
   48CHL1   C25 6023   2.152   5.252   8.421 -0.2144  0.5985  0.8714
   48CHL1   H25 6024   2.104   5.291   8.329 -3.3651 -0.9186  1.7567
   48CHL1   C26 6025   2.111   5.356   8.522  0.0104  0.8455 -0.4060
   48CHL1  H26A 6026   2.147   5.458   8.498  1.6386  0.1105 -1.2633
   48CHL1  H26B 6027   2.001   5.352   8.538 -0.0024 -1.7279 -0.6502
   48CHL1  H26C 6028   2.144   5.332   8.626  0.6235 -1.0100 -0.9889
   48CHL1   C27 6029   2.302   5.254   8.404 -0.1455  0.7882  1.1116
   48CHL1  H27A 6030   2.352   5.200   8.487 -0.2417 -1.5454 -0.2672
   48CHL1  H27B 6031   2.343   5.210   8.311 -1.6163 -1.2203  1.3599
   48CHL1  H27C 6032   2.339   5.359   8.400 -0.8783  1.0299 -0.4222
   49CHL1    C3 6033   5.204   5.766  10.129 -1.1688  0.5444  0.1230
   49CHL1    H3 6034   5.203   5.872  10.098  1.1311 -0.4276 -3.9480
   49CHL1    O3 6035   5.220   5.765  10.275 -0.1936  0.2879  0.2360
   49CHL1   H3' 6036   5.274   5.689  10.299 -1.0726  0.0799  1.7088
   49CHL1    C4 6037   5.069   5.711  10.084 -0.9169  0.5992 -0.2186
   49CHL1   H4A 6038   5.048   5.607  10.116 -2.1491  0.8239 -0.2744
   49CHL1   H4B 6039   4.984   5.767  10.128 -0.9701 -0.2395  0.7671
   49CHL1    C5 6040   5.062   5.724   9.931 -0.0642  0.0964 -0.8422
   49CHL1    C6 6041   4.971   5.806   9.874  1.3020 -0.6903  0.1323
   49CHL1    H6 6042   4.899   5.859   9.938  2.1231  0.1957  0.3573
   49CHL1    C7 6043   4.944   5.817   9.730  0.1272  0.0400  0.6031
   49CHL1   H7A 6044   4.837   5.806   9.700  0.0617 -0.3156  0.9530
   49CHL1   H7B 6045   4.978   5.917   9.698  0.2526 -0.0441  0.4730
   49CHL1    C8 6046   5.020   5.701   9.650 -0.1924 -0.3626  0.1572
   49CHL1    H8 6047   4.964   5.607   9.671  1.3745 -1.2004  0.7539
   49CHL1   C14 6048   5.032   5.748   9.506 -0.1244  0.3905  0.2847
   49CHL1   H14 6049   5.091   5.842   9.497  0.8371 -0.2620 -0.4570
   49CHL1   C15 6050   4.889   5.779   9.438  0.4544  0.4889  0.7152
   49CHL1  H15A 6051   4.824   5.703   9.486 -1.1143  1.2910 -0.0415
   49CHL1  H15B 6052   4.860   5.884   9.461 -3.2178 -0.3494  0.5766
   49CHL1   C16 6053   4.926   5.760   9.287  0.5386  0.2844 -0.1906
   49CHL1  H16A 6054   4.855   5.684   9.247  0.6794 -0.3266  0.6734
   49CHL1  H16B 6055   4.896   5.854   9.236 -1.0040  0.6077  1.2114
   49CHL1   C17 6056   5.072   5.713   9.277  0.4818 -0.3085  0.0453
   49CHL1   H17 6057   5.132   5.805   9.264  2.0675 -1.0505  1.7021
   49CHL1   C13 6058   5.112   5.653   9.420 -0.4676  0.2319 -0.1459
   49CHL1   C18 6059   5.062   5.506   9.409 -0.0639  0.2451 -0.1734
   49CHL1  H18A 6060   4.964   5.512   9.357 -0.2379 -1.3852 -0.0919
   49CHL1  H18B 6061   5.122   5.449   9.335 -0.0886 -1.7922  1.2784
   49CHL1  H18C 6062   5.042   5.447   9.502  0.3223 -2.8553 -1.9148
   49CHL1   C12 6063   5.255   5.648   9.468  0.0532  0.1504  0.5523
   49CHL1  H12A 6064   5.318   5.586   9.401  0.7517  2.1692 -0.7254
   49CHL1  H12B 6065   5.294   5.751   9.459 -0.1287  0.2671  1.1071
   49CHL1   C11 6066   5.262   5.608   9.613 -0.1571 -0.0564  0.0369
   49CHL1  H11A 6067   5.230   5.502   9.627 -0.6048  0.1420  0.5615
   49CHL1  H11B 6068   5.365   5.622   9.652 -1.0433  2.9133  1.5977
   49CHL1    C9 6069   5.171   5.701   9.700  0.8442 -0.2476 -0.6392
   49CHL1    H9 6070   5.205   5.806   9.686  0.6032 -0.0209  0.3993
   49CHL1   C10 6071   5.170   5.664   9.851 -0.6651  0.5674  0.5598
   49CHL1   C19 6072   5.149   5.507   9.868 -0.1949 -0.5667 -0.0673
   49CHL1  H19A 6073   5.053   5.474   9.822 -0.4535  0.3379 -0.1990
   49CHL1  H19B 6074   5.233   5.453   9.819 -0.4167 -0.8434 -0.1454
   49CHL1  H19C 6075   5.149   5.471   9.973  0.7251 -0.7902 -0.1401
   49CHL1    C1 6076   5.310   5.709   9.913  0.7415  0.2447  0.6425
   49CHL1   H1A 6077   5.387   5.635   9.882 -0.0069 -0.0959 -0.4611
   49CHL1   H1B 6078   5.332   5.817   9.894  1.4004  0.1099  0.5862
   49CHL1    C2 6079   5.321   5.703  10.064 -0.3187 -0.2034  0.3161
   49CHL1   H2A 6080   5.415   5.758  10.089 -0.4858 -0.4474  1.5462
   49CHL1   H2B 6081   5.329   5.599  10.102  0.0849  0.4616  2.1296
   49CHL1   C20 6082   5.102   5.629   9.142 -0.3343 -0.5092 -0.2899
   49CHL1   H20 6083   5.048   5.533   9.157 -0.1523 -0.7444 -1.1301
   49CHL1   C21 6084   5.257   5.617   9.119  0.3485  0.2636  0.7735
   49CHL1  H21A 6085   5.281   5.596   9.013  0.4134 -1.4760  1.1104
   49CHL1  H21B 6086   5.288   5.527   9.176 -1.4313 -0.7841  0.1639
   49CHL1  H21C 6087   5.294   5.720   9.137  2.7840 -0.2449 -0.8448
   49CHL1   C22 6088   5.034   5.681   9.017 -0.4174 -0.1494 -0.3887
   49CHL1  H22A 6089   5.060   5.624   8.925  1.0213 -0.5305  0.2300
   49CHL1  H22B 6090   4.928   5.652   9.028 -0.6355  0.2329 -1.3820
   49CHL1   C23 6091   5.058   5.831   8.974  0.1201  0.9438  0.3915
   49CHL1  H23A 6092   5.010   5.904   9.042 -0.0480  1.5463 -0.3576
   49CHL1  H23B 6093   5.165   5.854   8.955  0.3456 -0.9442 -0.9173
   49CHL1   C24 6094   4.988   5.861   8.839 -0.3059  0.0885 -0.1665
   49CHL1  H24A 6095   5.000   5.967   8.807 -1.1912  0.3396  0.3069
   49CHL1  H24B 6096   5.029   5.784   8.769 -0.3329 -0.2620  0.1990
   49CHL1   C25 6097   4.841   5.836   8.828 -0.2249  0.2487 -0.3560
   49CHL1   H25 6098   4.810   5.733   8.855 -1.3159  0.8455  0.7655
   49CHL1   C26 6099   4.766   5.931   8.920  0.7365  0.4330 -0.3857
   49CHL1  H26A 6100   4.656   5.924   8.905  0.5146  2.0732  0.2389
   49CHL1  H26B 6101   4.797   5.915   9.026 -2.0103  1.6670  0.6788
   49CHL1  H26C 6102   4.794   6.033   8.886 -0.7532  1.7455  2.0630
   49CHL1   C27 6103   4.790   5.843   8.675  0.0650  0.1334 -0.5219
   49CHL1  H27A 6104   4.853   5.782   8.607  0.8653  1.0522 -0.6275
   49CHL1  H27B 6105   4.688   5.800   8.680  0.8679 -1.8934  3.7545
   49CHL1  H27C 6106   4.791   5.948   8.637  0.8569 -0.9345 -3.7420
   50CHL1    C3 6107   1.771   2.492   9.562  0.1036  0.0727  0.7724
   50CHL1    H3 6108   1.860   2.428   9.545  1.2066  1.8575 -0.4821
   50CHL1    O3 6109   1.741   2.506   9.695 -0.0606 -0.5100 -0.0878
   50CHL1   H3' 6110   1.703   2.422   9.722 -2.7852  1.3147  2.3598
   50CHL1    C4 6111   1.801   2.626   9.497 -0.0948  0.9928 -0.1479
   50CHL1   H4A 6112   1.704   2.679   9.508 -1.2200 -0.8847 -0.5570
   50CHL1   H4B 6113   1.885   2.687   9.535 -1.1663  2.1780  0.4085
   50CHL1    C5 6114   1.819   2.614   9.345  0.2564 -0.0853  0.5806
   50CHL1    C6 6115   1.936   2.666   9.288  0.2972  0.2532 -0.7709
   50CHL1    H6 6116   2.009   2.723   9.348  0.4533  0.2839 -0.9914
   50CHL1    C7 6117   1.950   2.654   9.139  0.5778  0.3619  0.3326
   50CHL1   H7A 6118   1.992   2.747   9.093  0.9042 -0.9995 -2.3119
   50CHL1   H7B 6119   2.029   2.580   9.113  0.5400  0.4907 -0.1631
   50CHL1    C8 6120   1.815   2.627   9.065 -0.8594  0.5025  0.0022
   50CHL1    H8 6121   1.763   2.724   9.082 -1.1691  0.1633  1.0409
   50CHL1   C14 6122   1.856   2.589   8.923  0.2088 -0.0656  0.6795
   50CHL1   H14 6123   1.927   2.504   8.932 -1.1542 -1.2548  0.6467
   50CHL1   C15 6124   1.936   2.694   8.838 -0.0389 -0.1339 -0.2636
   50CHL1  H15A 6125   1.892   2.793   8.862  1.8458  1.2320 -2.1432
   50CHL1  H15B 6126   2.045   2.697   8.859  0.0284 -1.5105 -0.2930
   50CHL1   C16 6127   1.906   2.659   8.690 -0.5389 -0.3342  0.0417
   50CHL1  H16A 6128   1.873   2.754   8.642  0.0500 -1.0490 -1.8742
   50CHL1  H16B 6129   1.993   2.624   8.631 -1.3191 -2.6629  0.1816
   50CHL1   C17 6130   1.806   2.538   8.695 -0.4165 -0.3454 -0.0715
   50CHL1   H17 6131   1.867   2.447   8.714 -0.5341 -0.1074  1.5872
   50CHL1   C13 6132   1.743   2.554   8.835 -0.1613 -0.3479  0.6273
   50CHL1   C18 6133   1.634   2.673   8.829  0.2212  0.5550  0.0529
   50CHL1  H18A 6134   1.686   2.770   8.812 -1.4367  1.2836 -1.0661
   50CHL1  H18B 6135   1.554   2.656   8.755  0.1429  1.5785 -0.1173
   50CHL1  H18C 6136   1.584   2.694   8.926  0.3378  1.6579 -0.1061
   50CHL1   C12 6137   1.669   2.434   8.889  0.7243 -0.1114 -0.1421
   50CHL1  H12A 6138   1.574   2.418   8.833 -1.6909  1.4114  3.1832
   50CHL1  H12B 6139   1.738   2.349   8.870  1.9899  0.4429  1.6798
   50CHL1   C11 6140   1.625   2.448   9.037 -0.2640  0.8585  0.5133
   50CHL1  H11A 6141   1.534   2.511   9.031 -0.5344  0.3409 -1.6772
   50CHL1  H11B 6142   1.599   2.352   9.087  1.3817  1.0644  1.8366
   50CHL1    C9 6143   1.744   2.508   9.126 -0.4579  0.4724 -0.5274
   50CHL1    H9 6144   1.823   2.432   9.143 -0.1404  0.8495 -0.2822
   50CHL1   C10 6145   1.702   2.546   9.270 -0.4401  0.0688  0.2079
   50CHL1   C19 6146   1.576   2.636   9.265  0.0320 -0.1867 -0.4405
   50CHL1  H19A 6147   1.553   2.696   9.355  0.7365  1.9830 -1.6410
   50CHL1  H19B 6148   1.581   2.699   9.173 -3.2234  2.3784  0.9126
   50CHL1  H19C 6149   1.490   2.568   9.245 -0.5645  0.3889  0.0986
   50CHL1    C1 6150   1.653   2.418   9.340 -1.1108  0.5027 -0.5629
   50CHL1   H1A 6151   1.558   2.378   9.299 -1.7504 -0.6578  1.8663
   50CHL1   H1B 6152   1.734   2.344   9.330 -0.2655  1.6045 -2.4222
   50CHL1    C2 6153   1.645   2.429   9.495 -0.3053 -0.4153  0.3840
   50CHL1   H2A 6154   1.644   2.324   9.532  1.1507 -1.0346 -1.1774
   50CHL1   H2B 6155   1.554   2.488   9.518 -0.6121 -0.2807 -1.0515
   50CHL1   C20 6156   1.726   2.519   8.569  0.1400 -0.2660 -0.0322
   50CHL1   H20 6157   1.640   2.456   8.600  0.5900 -1.0808 -0.4074
   50CHL1   C21 6158   1.812   2.443   8.466 -0.3257 -0.3245 -0.0492
   50CHL1  H21A 6159   1.754   2.447   8.371  0.1137  3.7658 -0.3448
   50CHL1  H21B 6160   1.863   2.350   8.499  3.6397  1.5034 -0.4853
   50CHL1  H21C 6161   1.903   2.500   8.437 -0.3033 -0.1889  0.2832
   50CHL1   C22 6162   1.669   2.648   8.507  0.1446 -0.0727  0.2251
   50CHL1  H22A 6163   1.652   2.730   8.580  0.1544 -1.7762  2.2316
   50CHL1  H22B 6164   1.734   2.694   8.430  2.0393  0.5084  2.0681
   50CHL1   C23 6165   1.539   2.605   8.440 -0.9299 -0.2645  0.2678
   50CHL1  H23A 6166   1.552   2.526   8.362 -2.2075 -0.6948  0.4563
   50CHL1  H23B 6167   1.478   2.559   8.521  1.4796 -2.0673  1.1958
   50CHL1   C24 6168   1.475   2.725   8.367  0.2190 -0.1000 -0.6359
   50CHL1  H24A 6169   1.468   2.813   8.434  0.6197 -0.5004 -0.0581
   50CHL1  H24B 6170   1.536   2.745   8.276  1.1951 -1.5330 -0.3216
   50CHL1   C25 6171   1.337   2.694   8.307  0.0389 -0.2319 -0.7237
   50CHL1   H25 6172   1.338   2.598   8.250  0.3306  0.4267 -1.8633
   50CHL1   C26 6173   1.218   2.676   8.413 -0.8294  0.8316  0.7081
   50CHL1  H26A 6174   1.249   2.606   8.494 -2.4086  0.4902  1.0420
   50CHL1  H26B 6175   1.193   2.768   8.470 -0.4700  0.6196  1.2197
   50CHL1  H26C 6176   1.129   2.630   8.365  0.5446 -3.1216  1.5026
   50CHL1   C27 6177   1.294   2.791   8.201  0.1019 -0.0390  0.3169
   50CHL1  H27A 6178   1.375   2.823   8.131  0.5047 -0.6312  0.5109
   50CHL1  H27B 6179   1.216   2.739   8.142 -0.7085  1.1590  0.2769
   50CHL1  H27C 6180   1.253   2.884   8.248 -0.0942 -0.4347  0.9396
   51CHL1    C3 6181   3.168   3.683   9.804 -0.9764 -0.0134  0.0270
   51CHL1    H3 6182   3.274   3.713   9.787 -0.5113 -0.0187  2.4622
   51CHL1    O3 6183   3.128   3.718   9.936  0.0320  0.3595  0.0896
   51CHL1   H3' 6184   3.102   3.810   9.943 -0.9294  0.0621  0.5785
   51CHL1    C4 6185   3.084   3.768   9.707  0.1295 -0.5053  0.1455
   51CHL1   H4A 6186   2.977   3.761   9.735 -1.0213  2.1543 -2.9001
   51CHL1   H4B 6187   3.111   3.874   9.728 -0.3223 -0.9587  3.5745
   51CHL1    C5 6188   3.106   3.723   9.560 -1.0077  0.3338 -0.0359
   51CHL1    C6 6189   3.136   3.817   9.467 -0.8615  0.3445  0.0374
   51CHL1    H6 6190   3.146   3.920   9.504 -0.1000  0.3920 -0.2807
   51CHL1    C7 6191   3.167   3.774   9.327  0.2985 -0.5046  0.1869
   51CHL1   H7A 6192   3.131   3.852   9.256  1.6792  1.4841  1.5575
   51CHL1   H7B 6193   3.277   3.762   9.318  0.0308 -2.1806 -1.6786
   51CHL1    C8 6194   3.112   3.636   9.287  0.7489 -1.0099  0.7610
   51CHL1    H8 6195   3.002   3.653   9.282  0.6054 -0.2657  4.4032
   51CHL1   C14 6196   3.174   3.605   9.148 -0.1967  0.1006  0.6524
   51CHL1   H14 6197   3.284   3.606   9.162 -0.4902 -1.2951  4.0492
   51CHL1   C15 6198   3.153   3.705   9.030 -0.2360 -0.2622 -0.0880
   51CHL1  H15A 6199   3.051   3.749   9.033  0.2204  0.9124 -0.8200
   51CHL1  H15B 6200   3.213   3.798   9.030  0.5673 -0.7484 -1.4972
   51CHL1   C16 6201   3.176   3.612   8.914 -0.2421  0.1069 -0.0901
   51CHL1  H16A 6202   3.091   3.605   8.843 -1.3164  0.4227  1.1273
   51CHL1  H16B 6203   3.257   3.652   8.850 -0.2502 -0.9171 -0.7631
   51CHL1   C17 6204   3.195   3.467   8.960 -0.3279 -0.1515 -0.0149
   51CHL1   H17 6205   3.305   3.456   8.977 -0.4275 -0.9404  0.1523
   51CHL1   C13 6206   3.126   3.473   9.095  0.1319 -0.4413  0.1148
   51CHL1   C18 6207   2.972   3.458   9.067  0.2242 -0.3710  0.8056
   51CHL1  H18A 6208   2.950   3.502   8.967  2.2726 -2.4177 -0.6589
   51CHL1  H18B 6209   2.954   3.349   9.060  0.6200 -0.3362 -3.5432
   51CHL1  H18C 6210   2.909   3.515   9.139 -0.1664 -1.0277  0.9917
   51CHL1   C12 6211   3.171   3.382   9.206 -0.0868 -0.2075  0.3005
   51CHL1  H12A 6212   3.156   3.275   9.178  0.7088 -0.5845  1.2786
   51CHL1  H12B 6213   3.280   3.394   9.222  0.1647 -1.6617 -0.1892
   51CHL1   C11 6214   3.099   3.397   9.338 -0.5855  0.2056  0.4357
   51CHL1  H11A 6215   2.990   3.390   9.315 -0.1325 -1.2900 -1.5165
   51CHL1  H11B 6216   3.119   3.311   9.405  1.7914  0.6376  0.3562
   51CHL1    C9 6217   3.140   3.536   9.393  0.2458 -0.2141  0.0308
   51CHL1    H9 6218   3.250   3.531   9.411  0.3566 -1.3617 -0.8028
   51CHL1   C10 6219   3.087   3.572   9.534 -0.4946  0.0914 -0.9062
   51CHL1   C19 6220   2.937   3.536   9.557  0.6337  0.0896 -0.0465
   51CHL1  H19A 6221   2.926   3.426   9.560  0.8762  0.0800  0.9794
   51CHL1  H19B 6222   2.892   3.581   9.648  1.4427  1.2692 -0.2014
   51CHL1  H19C 6223   2.883   3.573   9.467  1.2822 -1.0647 -0.9345
   51CHL1    C1 6224   3.161   3.490   9.645 -1.1688  0.0351  0.2389
   51CHL1   H1A 6225   3.133   3.383   9.643 -0.4188 -0.1635 -0.3989
   51CHL1   H1B 6226   3.271   3.497   9.630 -0.9299 -3.2527 -0.2078
   51CHL1    C2 6227   3.138   3.534   9.790  0.5272  0.2482  0.7818
   51CHL1   H2A 6228   3.212   3.487   9.858  1.5534 -2.2885 -1.8681
   51CHL1   H2B 6229   3.032   3.519   9.817  0.0103 -0.0729 -1.2494
   51CHL1   C20 6230   3.151   3.361   8.852 -0.1918  0.1363 -0.1995
   51CHL1   H20 6231   3.041   3.363   8.838 -0.4548 -2.6504  0.9314
   51CHL1   C21 6232   3.192   3.221   8.899  0.9842  0.0173  0.3279
   51CHL1  H21A 6233   3.165   3.155   8.814  0.6891 -0.6397  0.9201
   51CHL1  H21B 6234   3.133   3.192   8.989 -1.9548  0.8304 -1.2087
   51CHL1  H21C 6235   3.301   3.206   8.920  1.2046  0.3430 -0.5624
   51CHL1   C22 6236   3.224   3.388   8.718  0.7421 -0.0147  0.0501
   51CHL1  H22A 6237   3.225   3.494   8.685 -0.4103 -0.2581 -0.8291
   51CHL1  H22B 6238   3.329   3.357   8.737  0.6665  0.3206  1.0848
   51CHL1   C23 6239   3.153   3.310   8.606  0.0742  0.6261  0.3737
   51CHL1  H23A 6240   3.125   3.206   8.630 -0.3663  0.8441  0.8196
   51CHL1  H23B 6241   3.063   3.373   8.586  1.4626  3.0181  1.1909
   51CHL1   C24 6242   3.241   3.302   8.481  0.1182 -0.0657 -0.9365
   51CHL1  H24A 6243   3.274   3.407   8.465  0.5855 -0.2381 -1.1329
   51CHL1  H24B 6244   3.322   3.227   8.495  2.0774  1.9111 -1.1315
   51CHL1   C25 6245   3.167   3.239   8.353 -0.3490 -0.6926 -0.0575
   51CHL1   H25 6246   3.161   3.128   8.357  0.9391 -0.9392 -2.5162
   51CHL1   C26 6247   3.019   3.298   8.323 -0.3731 -0.1255 -0.2168
   51CHL1  H26A 6248   2.984   3.259   8.225  2.2786 -3.0986 -0.1693
   51CHL1  H26B 6249   2.938   3.283   8.397  0.6377 -0.5786  0.8235
   51CHL1  H26C 6250   3.036   3.407   8.312  1.0971 -0.5630 -3.3755
   51CHL1   C27 6251   3.251   3.258   8.228 -0.4700 -0.0634 -0.0362
   51CHL1  H27A 6252   3.354   3.229   8.258 -0.2551  1.2485  0.5996
   51CHL1  H27B 6253   3.218   3.205   8.137  2.3083  0.1935 -1.2830
   51CHL1  H27C 6254   3.258   3.365   8.198  1.2218  0.4483  1.9394
   52CHL1    C3 6255   5.351   3.938  10.000 -0.3801 -0.2339  0.1210
   52CHL1    H3 6256   5.430   4.013   9.977 -1.3456 -0.0446 -3.1902
   52CHL1    O3 6257   5.363   3.884  10.130  0.0340  0.2262  0.9176
   52CHL1   H3' 6258   5.307   3.806  10.124 -0.1006  0.2066  2.1847
   52CHL1    C4 6259   5.208   3.998   9.979  0.1183  0.0963  0.4639
   52CHL1   H4A 6260   5.134   3.919  10.005  0.1654 -1.1656 -2.8158
   52CHL1   H4B 6261   5.206   4.085  10.048  0.7913 -0.9514  1.8439
   52CHL1    C5 6262   5.183   4.036   9.831  0.3405 -0.1889  0.1468
   52CHL1    C6 6263   5.148   4.155   9.793  0.3403 -0.1766  0.3658
   52CHL1    H6 6264   5.131   4.235   9.868  0.9556 -0.2883  0.6301
   52CHL1    C7 6265   5.118   4.199   9.652 -0.8053 -0.3398  0.2358
   52CHL1   H7A 6266   5.039   4.277   9.650 -1.7379 -1.2452  0.4806
   52CHL1   H7B 6267   5.216   4.234   9.613 -0.2818  0.3375  2.0385
   52CHL1    C8 6268   5.081   4.077   9.563  0.3970  0.2152  0.2591
   52CHL1    H8 6269   4.978   4.040   9.581 -0.2311  1.0537 -1.4106
   52CHL1   C14 6270   5.072   4.119   9.414  0.2606  0.3220 -0.1825
   52CHL1   H14 6271   5.175   4.155   9.397  0.8072 -0.7806  0.6700
   52CHL1   C15 6272   4.977   4.236   9.376  0.6835  0.6650 -0.0841
   52CHL1  H15A 6273   4.879   4.214   9.423  1.2033  1.6147  1.5300
   52CHL1  H15B 6274   4.997   4.337   9.418 -0.1645  0.4848  0.7827
   52CHL1   C16 6275   4.966   4.223   9.218  0.7447 -0.4185 -0.6086
   52CHL1  H16A 6276   4.859   4.229   9.188  0.0847 -1.7181  1.3021
   52CHL1  H16B 6277   5.016   4.314   9.179 -0.1165  0.5142  0.3965
   52CHL1   C17 6278   5.027   4.083   9.178  0.0634 -0.0443  0.0495
   52CHL1   H17 6279   5.131   4.102   9.146 -0.0623  1.8433  0.6336
   52CHL1   C13 6280   5.049   4.006   9.311 -0.1502  0.5059  0.3160
   52CHL1   C18 6281   4.919   3.925   9.350 -0.0431 -0.6241  0.0067
   52CHL1  H18A 6282   4.843   4.006   9.342  0.1529 -0.4557 -0.1979
   52CHL1  H18B 6283   4.886   3.855   9.270  1.1349  0.3312 -1.3831
   52CHL1  H18C 6284   4.922   3.884   9.453 -1.9736  1.6022  1.0461
   52CHL1   C12 6285   5.177   3.919   9.325  0.8373  0.1905 -0.7503
   52CHL1  H12A 6286   5.171   3.834   9.254 -2.0760  0.9064 -1.4919
   52CHL1  H12B 6287   5.270   3.974   9.299  0.8386 -0.6135 -2.5528
   52CHL1   C11 6288   5.195   3.864   9.470  0.3280  0.0808 -0.3899
   52CHL1  H11A 6289   5.117   3.788   9.491  3.0847 -2.8124  0.0038
   52CHL1  H11B 6290   5.288   3.804   9.478 -0.1466 -0.4599  1.7762
   52CHL1    C9 6291   5.191   3.972   9.576 -0.0946 -0.6900  0.3088
   52CHL1    H9 6292   5.281   4.033   9.555  0.0384 -1.3449 -1.1569
   52CHL1   C10 6293   5.205   3.925   9.723  0.5780 -0.3988 -0.5865
   52CHL1   C19 6294   5.105   3.817   9.750 -0.4720 -0.0715 -1.3847
   52CHL1  H19A 6295   5.128   3.772   9.849  0.3525 -0.2386 -1.6463
   52CHL1  H19B 6296   5.006   3.866   9.761  0.1161  0.8022  0.2446
   52CHL1  H19C 6297   5.107   3.725   9.688 -1.7266 -0.9787 -0.1597
   52CHL1    C1 6298   5.347   3.870   9.748 -0.5681  0.0443 -0.1420
   52CHL1   H1A 6299   5.356   3.785   9.677 -2.1182  0.2181 -0.5777
   52CHL1   H1B 6300   5.421   3.952   9.735 -2.0629  1.7777  1.5754
   52CHL1    C2 6301   5.376   3.822   9.896  0.2279  0.2438  0.1986
   52CHL1   H2A 6302   5.481   3.791   9.913  0.3774  1.6653  2.2415
   52CHL1   H2B 6303   5.313   3.738   9.931  0.2901  0.8798  1.9449
   52CHL1   C20 6304   4.954   4.022   9.057 -0.3329 -0.7679  0.0280
   52CHL1   H20 6305   4.848   4.006   9.085 -0.8652  0.4561 -1.1962
   52CHL1   C21 6306   5.027   3.897   9.003  0.2849 -0.2791 -0.2148
   52CHL1  H21A 6307   5.029   3.815   9.079 -1.0166 -1.6624 -1.5870
   52CHL1  H21B 6308   5.137   3.913   8.994  0.3907 -0.1623  1.1427
   52CHL1  H21C 6309   4.974   3.852   8.916  0.2274 -0.3663 -0.1345
   52CHL1   C22 6310   4.947   4.130   8.947  0.4114 -0.7374 -0.0949
   52CHL1  H22A 6311   4.909   4.226   8.988 -0.1654 -1.6522  1.6132
   52CHL1  H22B 6312   5.047   4.157   8.908 -0.3799  0.7121 -1.2397
   52CHL1   C23 6313   4.856   4.087   8.824  0.1454 -0.2212  0.0478
   52CHL1  H23A 6314   4.924   4.022   8.766  1.3841  0.7487  0.3758
   52CHL1  H23B 6315   4.768   4.028   8.859  0.5956  0.6289  2.8665
   52CHL1   C24 6316   4.825   4.211   8.736 -0.7803  0.1745  0.5655
   52CHL1  H24A 6317   4.746   4.276   8.781 -1.1018 -0.3378  0.7514
   52CHL1  H24B 6318   4.923   4.262   8.728 -0.8697  0.2861  0.1669
   52CHL1   C25 6319   4.810   4.180   8.587 -0.0715  0.4612  0.2219
   52CHL1   H25 6320   4.893   4.119   8.546 -2.2582 -3.0120  0.5353
   52CHL1   C26 6321   4.684   4.089   8.559  0.1639 -0.3404 -0.4469
   52CHL1  H26A 6322   4.700   3.994   8.614 -1.9830 -1.5093 -1.6809
   52CHL1  H26B 6323   4.593   4.144   8.592 -0.1320 -0.4794 -1.0131
   52CHL1  H26C 6324   4.677   4.056   8.453 -3.3685  0.1361 -0.5055
   52CHL1   C27 6325   4.804   4.314   8.513 -0.5277 -0.4847  0.1045
   52CHL1  H27A 6326   4.889   4.383   8.530 -1.4791  0.9260 -0.6542
   52CHL1  H27B 6327   4.796   4.293   8.404 -2.0655  0.6583 -0.0365
   52CHL1  H27C 6328   4.708   4.368   8.527  0.6394  1.0801  2.4932
   53CHL1    C3 6329   0.063   2.416   9.993  0.3132 -0.3457 -0.0130
   53CHL1    H3 6330  -0.040   2.459   9.993  0.0412 -0.8124  2.5722
   53CHL1    O3 6331   0.111   2.424  10.124  0.3945 -0.1649 -0.5811
   53CHL1   H3' 6332   0.076   2.348  10.170  1.1574 -1.2189 -1.6753
   53CHL1    C4 6333   0.069   2.278   9.934  0.4080  1.0816 -0.5927
   53CHL1   H4A 6334   0.176   2.248   9.936  0.5773  1.6190 -1.2036
   53CHL1   H4B 6335   0.016   2.212  10.006  1.9780  1.8330  1.3260
   53CHL1    C5 6336   0.004   2.279   9.798  0.1996  0.1159  0.2149
   53CHL1    C6 6337  -0.101   2.205   9.760  0.7352  0.1756 -0.0356
   53CHL1    H6 6338  -0.163   2.150   9.832 -0.7732 -0.7424 -1.9103
   53CHL1    C7 6339  -0.144   2.191   9.618  0.4378 -0.1430 -0.2639
   53CHL1   H7A 6340  -0.156   2.081   9.609  0.4381 -0.1179 -0.5945
   53CHL1   H7B 6341  -0.245   2.231   9.597  0.1516 -1.0571 -0.6771
   53CHL1    C8 6342  -0.052   2.256   9.520  0.3020 -0.2154  0.2626
   53CHL1    H8 6343   0.029   2.183   9.498 -0.9233 -0.9678 -2.0893
   53CHL1   C14 6344  -0.128   2.277   9.392 -0.5798 -0.0704 -0.6912
   53CHL1   H14 6345  -0.203   2.351   9.428  0.6318  0.0254  1.8076
   53CHL1   C15 6346  -0.201   2.156   9.324  1.2312 -0.4200 -0.1459
   53CHL1  H15A 6347  -0.126   2.074   9.337  0.5122 -1.3903 -1.8000
   53CHL1  H15B 6348  -0.285   2.114   9.383  1.7167 -0.7080  0.3605
   53CHL1   C16 6349  -0.217   2.200   9.180  0.4132 -0.0123 -0.1751
   53CHL1  H16A 6350  -0.163   2.131   9.112  0.5397  0.7518 -0.8670
   53CHL1  H16B 6351  -0.327   2.202   9.160  0.3804  0.1708  0.0136
   53CHL1   C17 6352  -0.160   2.343   9.162  0.5220  0.0357 -0.4537
   53CHL1   H17 6353  -0.241   2.410   9.197  0.9042  0.4326 -0.3302
   53CHL1   C13 6354  -0.053   2.352   9.277 -0.0655  0.4874 -0.1304
   53CHL1   C18 6355   0.067   2.271   9.236 -0.2767  0.0649  0.5274
   53CHL1  H18A 6356   0.144   2.270   9.316 -0.0335 -3.2410  0.3861
   53CHL1  H18B 6357   0.041   2.165   9.215 -0.2462 -0.0914  1.2654
   53CHL1  H18C 6358   0.104   2.298   9.135  1.0811 -2.9786  0.0965
   53CHL1   C12 6359  -0.017   2.490   9.331 -0.0517  0.3966 -0.9474
   53CHL1  H12A 6360   0.048   2.537   9.255 -1.4072  0.3127 -2.2008
   53CHL1  H12B 6361  -0.110   2.550   9.341  0.6266  1.6562 -1.9419
   53CHL1   C11 6362   0.063   2.477   9.462  0.0893 -0.3453 -0.1475
   53CHL1  H11A 6363   0.156   2.425   9.431 -1.4514 -1.6480 -2.9813
   53CHL1  H11B 6364   0.098   2.577   9.497 -0.6502  0.0971 -0.6592
   53CHL1    C9 6365  -0.003   2.387   9.572 -0.8595 -0.3168  0.4034
   53CHL1    H9 6366  -0.097   2.436   9.606 -0.0745  0.1938  1.9346
   53CHL1   C10 6367   0.084   2.371   9.704 -0.8108  0.1462 -0.2152
   53CHL1   C19 6368   0.218   2.297   9.665  0.0942 -0.5694 -0.3040
   53CHL1  H19A 6369   0.282   2.273   9.753  0.2585 -0.4082 -0.3791
   53CHL1  H19B 6370   0.200   2.194   9.627 -3.9498  0.4434 -1.5925
   53CHL1  H19C 6371   0.281   2.348   9.589  0.4800 -0.6825 -0.0653
   53CHL1    C1 6372   0.111   2.510   9.760  0.9606 -0.5309 -0.5639
   53CHL1   H1A 6373   0.189   2.568   9.708  0.6991  3.0882  2.5942
   53CHL1   H1B 6374   0.014   2.565   9.763  0.7119 -0.9821  1.3415
   53CHL1    C2 6375   0.150   2.508   9.908 -0.6226  0.7915  0.1562
   53CHL1   H2A 6376   0.158   2.609   9.953 -2.1690  0.7417  0.5746
   53CHL1   H2B 6377   0.251   2.461   9.913 -0.5556  1.0544  2.1495
   53CHL1   C20 6378  -0.131   2.384   9.021  0.3178 -0.2660  0.8146
   53CHL1   H20 6379  -0.073   2.311   8.959  0.7513  1.4187 -0.8626
   53CHL1   C21 6380  -0.039   2.514   9.012  0.5354 -0.4770 -0.1825
   53CHL1  H21A 6381  -0.013   2.549   8.910  1.9384 -0.9905 -0.0254
   53CHL1  H21B 6382   0.057   2.484   9.059  0.7144 -0.5091 -0.5592
   53CHL1  H21C 6383  -0.089   2.593   9.072  1.6341  1.0683 -1.2188
   53CHL1   C22 6384  -0.258   2.416   8.934  0.2388  0.6364 -0.4566
   53CHL1  H22A 6385  -0.333   2.480   8.983  0.9777  1.2792 -0.1480
   53CHL1  H22B 6386  -0.221   2.481   8.852  1.0904 -0.0118 -0.6096
   53CHL1   C23 6387  -0.311   2.284   8.870  0.1573 -0.1273  0.4671
   53CHL1  H23A 6388  -0.221   2.220   8.865  0.3269  0.2181 -2.0287
   53CHL1  H23B 6389  -0.385   2.233   8.936 -0.8386 -1.9153 -1.8743
   53CHL1   C24 6390  -0.366   2.291   8.730 -0.5933 -0.7251  0.6969
   53CHL1  H24A 6391  -0.277   2.331   8.676 -0.9456  2.0704  2.0248
   53CHL1  H24B 6392  -0.381   2.188   8.692  0.6839 -0.0188 -1.9584
   53CHL1   C25 6393  -0.492   2.373   8.699 -0.0086  0.4268  0.5415
   53CHL1   H25 6394  -0.499   2.469   8.755 -1.5460  1.0078 -0.5733
   53CHL1   C26 6395  -0.503   2.414   8.553  0.6010  0.3038 -0.4685
   53CHL1  H26A 6396  -0.416   2.474   8.519 -0.3400  0.9482 -1.8490
   53CHL1  H26B 6397  -0.483   2.324   8.491 -0.1586 -0.2112  0.0232
   53CHL1  H26C 6398  -0.601   2.462   8.530 -0.4523 -0.3535  2.3015
   53CHL1   C27 6399  -0.621   2.301   8.745  0.0168 -0.4797  0.2165
   53CHL1  H27A 6400  -0.653   2.231   8.664  0.7281  1.4382 -1.8477
   53CHL1  H27B 6401  -0.612   2.262   8.848  0.7567 -0.2473  0.2440
   53CHL1  H27C 6402  -0.705   2.374   8.748 -0.5629 -1.1008 -0.3099
   54CHL1    C3 6403   0.852   4.023   9.741 -0.8101  0.3725 -0.2018
   54CHL1    H3 6404   0.807   4.112   9.692  0.8998  2.0082  1.0411
   54CHL1    O3 6405   0.885   4.062   9.871  0.4494  0.2405 -0.0951
   54CHL1   H3' 6406   0.908   3.983   9.919 -3.6356 -1.4677 -0.5437
   54CHL1    C4 6407   0.764   3.901   9.742  0.7877  0.7434  0.4352
   54CHL1   H4A 6408   0.822   3.819   9.788  0.1085 -0.6055 -1.0133
   54CHL1   H4B 6409   0.667   3.914   9.795 -0.2583  1.6562 -1.5883
   54CHL1    C5 6410   0.728   3.864   9.594  0.0325  0.6210 -0.0455
   54CHL1    C6 6411   0.603   3.867   9.553 -0.3092 -1.0409  0.5315
   54CHL1    H6 6412   0.519   3.884   9.622 -0.7979 -0.1740 -0.2490
   54CHL1    C7 6413   0.556   3.866   9.409  0.0173  0.3615 -0.0478
   54CHL1   H7A 6414   0.465   3.803   9.402  0.4335 -0.3294  0.7200
   54CHL1   H7B 6415   0.528   3.967   9.370 -0.8532 -0.8618 -2.8716
   54CHL1    C8 6416   0.664   3.796   9.331  0.1732  0.1207  0.1620
   54CHL1    H8 6417   0.689   3.690   9.356  0.0624  0.4208  1.6394
   54CHL1   C14 6418   0.635   3.804   9.185  0.1251  0.7267  1.0038
   54CHL1   H14 6419   0.625   3.910   9.156 -0.5771 -0.2631 -2.9315
   54CHL1   C15 6420   0.504   3.750   9.127 -0.6022  0.3341  0.7975
   54CHL1  H15A 6421   0.486   3.652   9.177  3.3151  0.1276  2.1074
   54CHL1  H15B 6422   0.419   3.818   9.149 -0.7573  1.4808 -2.7349
   54CHL1   C16 6423   0.524   3.736   8.977 -0.2423 -0.4989 -0.3056
   54CHL1  H16A 6424   0.492   3.639   8.933 -0.4023 -1.4765  1.7916
   54CHL1  H16B 6425   0.454   3.810   8.933  1.2825  0.3109 -1.4423
   54CHL1   C17 6426   0.673   3.773   8.946 -0.1008  0.7867 -0.7504
   54CHL1   H17 6427   0.678   3.882   8.928  0.4142  0.7021 -1.1498
   54CHL1   C13 6428   0.748   3.758   9.081 -0.5633  0.8125  0.2597
   54CHL1   C18 6429   0.770   3.602   9.108  0.5154 -0.2281 -0.1254
   54CHL1  H18A 6430   0.850   3.557   9.046 -0.9740 -2.7306 -0.3271
   54CHL1  H18B 6431   0.805   3.573   9.209 -0.6948  1.7327  0.9126
   54CHL1  H18C 6432   0.679   3.541   9.090  2.3674 -3.5490  0.9857
   54CHL1   C12 6433   0.868   3.852   9.103 -0.2546 -0.0373 -0.0530
   54CHL1  H12A 6434   0.956   3.831   9.039 -0.5423 -2.6845  0.3163
   54CHL1  H12B 6435   0.827   3.954   9.085 -1.0220 -0.6321 -2.0625
   54CHL1   C11 6436   0.920   3.850   9.249 -0.1396 -0.0358 -1.0824
   54CHL1  H11A 6437   0.965   3.750   9.267  0.7613  0.5304 -0.0518
   54CHL1  H11B 6438   1.008   3.917   9.251  0.9414 -1.2865 -3.4390
   54CHL1    C9 6439   0.802   3.871   9.351 -0.2941  0.8447  0.8413
   54CHL1    H9 6440   0.766   3.974   9.335  0.9373  0.8811 -2.3966
   54CHL1   C10 6441   0.852   3.856   9.494  0.5560 -0.0204  0.4225
   54CHL1   C19 6442   0.928   3.723   9.515  0.1435 -0.1124 -0.2844
   54CHL1  H19A 6443   1.022   3.715   9.458  0.1149  1.5840 -0.6154
   54CHL1  H19B 6444   0.960   3.712   9.620  0.3817 -0.5087 -0.3954
   54CHL1  H19C 6445   0.868   3.634   9.484  3.2455 -3.6931  2.9509
   54CHL1    C1 6446   0.956   3.967   9.523 -0.4797  0.0888 -0.2390
   54CHL1   H1A 6447   1.050   3.941   9.470 -1.9852 -0.4557 -2.8704
   54CHL1   H1B 6448   0.913   4.060   9.479  1.2966  0.1898 -1.8743
   54CHL1    C2 6449   0.985   3.994   9.668 -0.0783  0.1464  0.5045
   54CHL1   H2A 6450   1.055   4.079   9.682  0.5851 -0.4549  0.8477
   54CHL1   H2B 6451   1.034   3.907   9.715 -1.8994 -1.7782 -0.9564
   54CHL1   C20 6452   0.733   3.701   8.826 -0.3448 -0.4161 -0.1890
   54CHL1   H20 6453   0.727   3.592   8.850  0.3796 -0.4125  0.0460
   54CHL1   C21 6454   0.884   3.726   8.800  0.4138 -0.0138  0.4696
   54CHL1  H21A 6455   0.932   3.669   8.718  1.1412 -1.5070  1.8734
   54CHL1  H21B 6456   0.937   3.681   8.887 -0.5479 -0.8171  0.6562
   54CHL1  H21C 6457   0.906   3.835   8.804 -1.4024  0.3706  1.2063
   54CHL1   C22 6458   0.646   3.728   8.701  0.8115  0.5347 -1.0400
   54CHL1  H22A 6459   0.544   3.684   8.701  2.0913 -2.7512 -2.7587
   54CHL1  H22B 6460   0.640   3.836   8.675 -2.3171  0.9065  0.6705
   54CHL1   C23 6461   0.692   3.656   8.582 -0.1983 -0.7032 -0.3812
   54CHL1  H23A 6462   0.797   3.675   8.550 -1.0000  3.0860 -1.1966
   54CHL1  H23B 6463   0.680   3.546   8.597  0.0332 -0.6186  0.4970
   54CHL1   C24 6464   0.611   3.702   8.462  0.2475  1.0105 -0.6157
   54CHL1  H24A 6465   0.503   3.709   8.488  0.1446  1.2036 -1.0916
   54CHL1  H24B 6466   0.648   3.804   8.441  0.0921  1.0614 -0.6472
   54CHL1   C25 6467   0.616   3.611   8.341  0.1607  0.7702 -0.7512
   54CHL1   H25 6468   0.724   3.591   8.327  0.0715  0.5971 -1.2014
   54CHL1   C26 6469   0.550   3.471   8.364 -0.2992  0.1063  0.8037
   54CHL1  H26A 6470   0.439   3.470   8.371 -0.5186  0.7446 -1.7080
   54CHL1  H26B 6471   0.575   3.401   8.282  1.2843 -0.3233  1.6214
   54CHL1  H26C 6472   0.582   3.427   8.461  1.1398  1.4546  0.9873
   54CHL1   C27 6473   0.564   3.675   8.214  1.6102 -0.1819  0.0385
   54CHL1  H27A 6474   0.620   3.768   8.191  1.1962  0.1066  0.1812
   54CHL1  H27B 6475   0.575   3.615   8.121 -2.8993 -1.7451  0.2749
   54CHL1  H27C 6476   0.455   3.690   8.228  1.6914 -1.4285  2.7335
   55CHL1    C3 6477   1.150   2.035   9.611  0.3096  0.0061  0.5549
   55CHL1    H3 6478   1.047   1.992   9.607 -0.1137  1.0602 -1.2307
   55CHL1    O3 6479   1.179   2.048   9.750  0.0481  0.1115  0.3026
   55CHL1   H3' 6480   1.230   1.970   9.775  1.0227  0.6652  0.0841
   55CHL1    C4 6481   1.251   1.943   9.531 -0.0292 -0.1853  0.6635
   55CHL1   H4A 6482   1.354   1.980   9.552  1.2594 -2.8399 -0.4966
   55CHL1   H4B 6483   1.245   1.840   9.569  1.2690 -0.2483  0.7521
   55CHL1    C5 6484   1.236   1.944   9.379 -0.6419 -0.2128 -0.2290
   55CHL1    C6 6485   1.221   1.829   9.302 -0.1635  0.2048  0.7826
   55CHL1    H6 6486   1.221   1.730   9.349 -1.2227  0.0029  0.3890
   55CHL1    C7 6487   1.200   1.834   9.151 -0.2613  0.3364 -0.3948
   55CHL1   H7A 6488   1.272   1.769   9.097 -1.3715 -0.2956 -1.1689
   55CHL1   H7B 6489   1.095   1.814   9.118  0.3153  1.3417 -3.1462
   55CHL1    C8 6490   1.239   1.975   9.091  0.3259  0.4107  0.4664
   55CHL1    H8 6491   1.348   1.993   9.087  0.3271  0.2364 -0.5303
   55CHL1   C14 6492   1.192   1.993   8.943  0.7691  0.2975  0.5544
   55CHL1   H14 6493   1.082   1.985   8.953  0.5484  2.3906  0.2137
   55CHL1   C15 6494   1.234   1.891   8.838 -0.2959 -0.0763  0.1746
   55CHL1  H15A 6495   1.340   1.878   8.867 -0.0574  0.5034 -0.4112
   55CHL1  H15B 6496   1.179   1.794   8.844  2.8302 -1.9574  0.4331
   55CHL1   C16 6497   1.222   1.958   8.706  0.6746 -0.6937 -0.2154
   55CHL1  H16A 6498   1.314   1.954   8.644  0.0897  0.4689 -1.1960
   55CHL1  H16B 6499   1.138   1.905   8.655  0.1193 -2.1987  2.1017
   55CHL1   C17 6500   1.183   2.110   8.731 -0.2821 -0.6882 -0.1695
   55CHL1   H17 6501   1.073   2.120   8.745 -0.3269  0.5129 -1.2404
   55CHL1   C13 6502   1.227   2.127   8.883  0.4264  0.4038  1.1195
   55CHL1   C18 6503   1.378   2.160   8.877 -0.3286  0.1855  0.3049
   55CHL1  H18A 6504   1.414   2.161   8.982 -0.3006 -0.3616  0.3051
   55CHL1  H18B 6505   1.438   2.076   8.835 -3.2473 -3.6388  3.0241
   55CHL1  H18C 6506   1.391   2.261   8.834 -1.2613 -0.3271 -1.2442
   55CHL1   C12 6507   1.144   2.225   8.957  0.8664  0.2352 -0.5146
   55CHL1  H12A 6508   1.137   2.327   8.913 -0.7458  0.6998  0.7587
   55CHL1  H12B 6509   1.041   2.187   8.968  0.6770  1.0919  0.9063
   55CHL1   C11 6510   1.188   2.237   9.104 -0.3573  0.1506  0.1405
   55CHL1  H11A 6511   1.295   2.267   9.101  0.1452 -1.4456  1.2251
   55CHL1  H11B 6512   1.125   2.315   9.151  1.2575  0.6720  1.5462
   55CHL1    C9 6513   1.172   2.091   9.171  0.2804 -0.7276  0.2457
   55CHL1    H9 6514   1.062   2.074   9.178 -0.3263  3.0002  2.6438
   55CHL1   C10 6515   1.218   2.092   9.325  0.2686  0.2401  0.7062
   55CHL1   C19 6516   1.352   2.161   9.339 -0.2075  0.3384 -0.0205
   55CHL1  H19A 6517   1.414   2.131   9.426  1.0166  1.0270 -0.6236
   55CHL1  H19B 6518   1.406   2.133   9.246 -3.0856 -0.0967 -1.6820
   55CHL1  H19C 6519   1.333   2.271   9.335 -0.2048  0.3283 -0.3652
   55CHL1    C1 6520   1.112   2.178   9.398  0.0160 -0.9167  0.2418
   55CHL1   H1A 6521   1.114   2.286   9.371  0.2627 -1.0568 -0.3268
   55CHL1   H1B 6522   1.018   2.122   9.378  1.7224 -4.5461  1.5815
   55CHL1    C2 6523   1.135   2.177   9.557  0.3376 -0.2115  0.5327
   55CHL1   H2A 6524   1.051   2.230   9.607  1.0337 -0.7509  2.3441
   55CHL1   H2B 6525   1.226   2.231   9.593  2.1712 -1.8325 -1.4388
   55CHL1   C20 6526   1.221   2.208   8.627 -0.2789 -0.6343  0.6380
   55CHL1   H20 6527   1.330   2.200   8.611  0.0928  2.5227  0.8939
   55CHL1   C21 6528   1.196   2.360   8.664 -0.3106  0.2721  0.4218
   55CHL1  H21A 6529   1.240   2.399   8.759 -1.5716  0.1801  1.0682
   55CHL1  H21B 6530   1.088   2.386   8.673 -0.9827 -1.5681 -1.6426
   55CHL1  H21C 6531   1.231   2.419   8.577  0.8790 -0.1832  0.5763
   55CHL1   C22 6532   1.165   2.155   8.492  0.0731 -0.0913 -0.5683
   55CHL1  H22A 6533   1.172   2.046   8.477 -0.5101 -0.1535 -0.4061
   55CHL1  H22B 6534   1.058   2.187   8.490  0.1085  0.0082 -1.8702
   55CHL1   C23 6535   1.233   2.224   8.368 -0.1683  0.2966 -0.2258
   55CHL1  H23A 6536   1.202   2.329   8.351 -1.3375  0.3657  2.0009
   55CHL1  H23B 6537   1.342   2.222   8.389 -0.0737 -0.0141 -0.7300
   55CHL1   C24 6538   1.228   2.137   8.239  0.1225 -0.0673  0.0216
   55CHL1  H24A 6539   1.281   2.043   8.265 -1.6831 -0.9514  0.6907
   55CHL1  H24B 6540   1.123   2.101   8.235  0.0048  0.1693  0.8148
   55CHL1   C25 6541   1.265   2.203   8.104  0.1428  0.2665  0.2197
   55CHL1   H25 6542   1.270   2.126   8.024  1.1847  0.3437  0.2028
   55CHL1   C26 6543   1.138   2.285   8.065 -0.2519 -0.9536  0.3791
   55CHL1  H26A 6544   1.110   2.367   8.135  1.0146  1.2417 -1.5212
   55CHL1  H26B 6545   1.166   2.343   7.974  1.3065 -0.2158  1.2861
   55CHL1  H26C 6546   1.045   2.228   8.047 -0.0436 -0.5062 -2.5213
   55CHL1   C27 6547   1.395   2.284   8.108 -0.6645  0.2506  0.2038
   55CHL1  H27A 6548   1.478   2.217   8.136 -0.2773  0.8011  0.3813
   55CHL1  H27B 6549   1.416   2.334   8.011 -2.8153 -1.6209 -1.3710
   55CHL1  H27C 6550   1.389   2.363   8.186  0.2995  1.5448 -0.9744
   56CHL1    C3 6551   5.364   6.250  10.149 -0.2287 -0.0392 -0.1764
   56CHL1    H3 6552   5.448   6.317  10.120  0.7468 -0.8477  0.7270
   56CHL1    O3 6553   5.357   6.242  10.290 -0.5321  0.6407 -0.2527
   56CHL1   H3' 6554   5.289   6.178  10.314 -1.2517  2.0400  1.7787
   56CHL1    C4 6555   5.226   6.318  10.114  0.0167  0.0895  0.7388
   56CHL1   H4A 6556   5.137   6.264  10.152 -1.4455 -0.4419 -3.0323
   56CHL1   H4B 6557   5.232   6.418  10.163  3.0791  0.6360 -0.5062
   56CHL1    C5 6558   5.222   6.334   9.963  1.1343  0.4456 -0.2775
   56CHL1    C6 6559   5.198   6.448   9.899 -0.1480 -0.5789  0.1589
   56CHL1    H6 6560   5.182   6.543   9.952 -4.1002 -0.6135 -0.6550
   56CHL1    C7 6561   5.178   6.457   9.744  0.2819 -0.3705  0.0198
   56CHL1   H7A 6562   5.097   6.529   9.722  0.1806 -0.1026  1.2373
   56CHL1   H7B 6563   5.271   6.502   9.701  0.3861  1.3274  1.8751
   56CHL1    C8 6564   5.158   6.320   9.674  0.0219 -0.3264  0.4520
   56CHL1    H8 6565   5.052   6.287   9.685  0.0712 -0.2611  1.1814
   56CHL1   C14 6566   5.181   6.335   9.524 -0.0495 -0.0882  0.4279
   56CHL1   H14 6567   5.281   6.377   9.502 -0.4054  0.4918 -0.1424
   56CHL1   C15 6568   5.097   6.441   9.442 -0.4331  0.6422 -0.1533
   56CHL1  H15A 6569   4.994   6.414   9.472  0.5265 -2.1317  0.9577
   56CHL1  H15B 6570   5.120   6.546   9.470 -1.0551  1.0106 -0.9700
   56CHL1   C16 6571   5.120   6.396   9.297 -0.3623 -0.3473  0.3235
   56CHL1  H16A 6572   5.023   6.387   9.244  0.3598  0.7467 -1.2617
   56CHL1  H16B 6573   5.193   6.464   9.248  0.8118  0.1493  2.5904
   56CHL1   C17 6574   5.190   6.259   9.300 -0.7974  0.3453  0.3548
   56CHL1   H17 6575   5.299   6.279   9.307 -0.6625  0.4549 -1.5934
   56CHL1   C13 6576   5.164   6.203   9.439 -0.4852 -0.2931  0.3668
   56CHL1   C18 6577   5.019   6.148   9.438  0.0984 -0.2474  0.2201
   56CHL1  H18A 6578   5.016   6.052   9.382  1.4132 -0.7180  0.9108
   56CHL1  H18B 6579   4.968   6.122   9.533 -0.2983  0.5841  0.2419
   56CHL1  H18C 6580   4.954   6.201   9.365  1.2013  0.4455 -0.2975
   56CHL1   C12 6581   5.267   6.110   9.504  0.0628  0.3477  0.3865
   56CHL1  H12A 6582   5.241   6.011   9.461  1.2768  0.7420 -1.3735
   56CHL1  H12B 6583   5.372   6.142   9.484  0.7558 -0.4603  2.4950
   56CHL1   C11 6584   5.247   6.082   9.649  0.1253 -0.8286  0.2348
   56CHL1  H11A 6585   5.150   6.035   9.677 -0.2282  0.6349  1.6393
   56CHL1  H11B 6586   5.332   6.015   9.676  0.9872 -0.1933 -0.8485
   56CHL1    C9 6587   5.253   6.214   9.731  0.0271 -0.4519 -0.0125
   56CHL1    H9 6588   5.355   6.254   9.713  1.9408 -4.7582  0.0374
   56CHL1   C10 6589   5.238   6.203   9.886 -0.4493 -0.0907  0.1757
   56CHL1   C19 6590   5.114   6.111   9.924 -0.0174 -0.5409 -0.3946
   56CHL1  H19A 6591   5.148   6.009   9.895 -0.7439 -1.3050  1.3357
   56CHL1  H19B 6592   5.090   6.108  10.032 -0.1599 -0.6935 -0.4308
   56CHL1  H19C 6593   5.022   6.130   9.864 -0.8251  2.8148  1.6363
   56CHL1    C1 6594   5.370   6.138   9.927 -0.3365  0.0752 -0.9507
   56CHL1   H1A 6595   5.383   6.044   9.870 -1.1932 -0.8681  0.3798
   56CHL1   H1B 6596   5.463   6.192   9.895  0.7918 -0.9188  0.5010
   56CHL1    C2 6597   5.387   6.117  10.080  0.4245  0.0524  0.7788
   56CHL1   H2A 6598   5.494   6.087  10.091 -0.4396 -4.0367 -0.3420
   56CHL1   H2B 6599   5.320   6.035  10.111  2.0563 -1.8346 -0.4200
   56CHL1   C20 6600   5.178   6.158   9.189  0.5029 -0.8447  0.5254
   56CHL1   H20 6601   5.083   6.103   9.205 -1.4698  2.8607  3.3856
   56CHL1   C21 6602   5.304   6.056   9.184 -0.1525 -0.5209 -0.0743
   56CHL1  H21A 6603   5.295   5.984   9.100  2.8350 -0.8874 -0.1623
   56CHL1  H21B 6604   5.294   5.991   9.274  0.3457 -1.2371 -0.5311
   56CHL1  H21C 6605   5.398   6.115   9.177  0.4323 -1.0856  2.1803
   56CHL1   C22 6606   5.169   6.230   9.049 -0.7317 -0.1560  0.1164
   56CHL1  H22A 6607   5.182   6.339   9.064 -0.8856 -0.4187  2.5825
   56CHL1  H22B 6608   5.244   6.182   8.983  1.2352  1.4550  1.0945
   56CHL1   C23 6609   5.026   6.231   8.999  0.1724  0.5117 -0.6815
   56CHL1  H23A 6610   4.988   6.128   8.982 -2.0091  0.5334  2.8705
   56CHL1  H23B 6611   4.959   6.273   9.078 -0.4483  0.0347 -0.9415
   56CHL1   C24 6612   5.007   6.291   8.859 -0.4357  0.2950 -0.3654
   56CHL1  H24A 6613   5.099   6.259   8.806  0.4118  2.7541 -0.5485
   56CHL1  H24B 6614   4.921   6.248   8.804 -1.4921  1.5486  0.2457
   56CHL1   C25 6615   4.995   6.449   8.855 -0.4629 -0.1138  0.1472
   56CHL1   H25 6616   5.088   6.490   8.899  0.5168 -2.1050  0.0148
   56CHL1   C26 6617   4.981   6.518   8.716 -0.2525  0.2021  0.6034
   56CHL1  H26A 6618   5.071   6.501   8.653 -0.1136  2.0215  0.2584
   56CHL1  H26B 6619   4.889   6.482   8.667  0.2346  0.6188 -0.6462
   56CHL1  H26C 6620   4.976   6.628   8.733 -0.2826  0.5705 -1.5489
   56CHL1   C27 6621   4.878   6.506   8.940 -0.1907  0.5478  0.2371
   56CHL1  H27A 6622   4.885   6.477   9.047  0.8232  0.2902  0.1033
   56CHL1  H27B 6623   4.886   6.616   8.946  2.8937  0.5295 -1.5443
   56CHL1  H27C 6624   4.783   6.462   8.902 -0.0963  1.7756 -1.5429
   57CHL1    C3 6625   1.053   2.706   9.766  0.3729 -0.0857  0.1426
   57CHL1    H3 6626   0.949   2.742   9.782 -0.0820 -2.3626  3.1699
   57CHL1    O3 6627   1.110   2.683   9.901 -0.3150  0.4930 -0.2108
   57CHL1   H3' 6628   1.093   2.767   9.944 -1.4065  0.0397  0.2935
   57CHL1    C4 6629   1.047   2.577   9.689  0.5248 -0.2955  0.7507
   57CHL1   H4A 6630   1.144   2.523   9.695  2.0316  1.8157 -2.1627
   57CHL1   H4B 6631   0.965   2.512   9.726  1.5505 -2.3693 -0.4431
   57CHL1    C5 6632   1.020   2.592   9.537 -0.1558 -0.2463  0.5979
   57CHL1    C6 6633   0.923   2.521   9.481  0.2178 -1.0951  0.1318
   57CHL1    H6 6634   0.870   2.446   9.540 -0.5611 -1.6921 -1.2914
   57CHL1    C7 6635   0.888   2.525   9.334  0.4764  0.2985  0.9395
   57CHL1   H7A 6636   0.876   2.418   9.308  0.9374  0.6127 -0.6753
   57CHL1   H7B 6637   0.797   2.582   9.306  1.3966  0.4608 -1.9890
   57CHL1    C8 6638   1.002   2.595   9.256 -0.5408 -0.9324 -0.2150
   57CHL1    H8 6639   1.086   2.524   9.244  1.3320  1.2306 -0.5218
   57CHL1   C14 6640   0.952   2.642   9.123 -0.1746  0.7174 -0.2569
   57CHL1   H14 6641   0.876   2.720   9.148 -2.5017 -1.9908  1.7707
   57CHL1   C15 6642   0.879   2.536   9.036  0.0949 -0.0388 -0.3095
   57CHL1  H15A 6643   0.916   2.431   9.035  1.5441  0.4331 -2.3425
   57CHL1  H15B 6644   0.780   2.516   9.081 -0.4865  2.2593 -0.4292
   57CHL1   C16 6645   0.870   2.607   8.901  0.3652  0.0770  0.3400
   57CHL1  H16A 6646   0.897   2.542   8.814  2.7705  2.6855 -1.0223
   57CHL1  H16B 6647   0.774   2.660   8.883  0.4008  0.2133  0.5609
   57CHL1   C17 6648   0.961   2.736   8.905  0.4375 -0.2737 -0.1159
   57CHL1   H17 6649   0.894   2.822   8.925 -1.7911 -1.3072 -2.5746
   57CHL1   C13 6650   1.048   2.720   9.035  0.0724  0.0766 -0.0821
   57CHL1   C18 6651   1.163   2.622   9.012  0.5462  0.4194  0.0457
   57CHL1  H18A 6652   1.215   2.589   9.104 -1.4195  0.0714  1.0808
   57CHL1  H18B 6653   1.132   2.531   8.957 -2.4738 -0.3051  2.6529
   57CHL1  H18C 6654   1.242   2.674   8.954  0.2627 -0.6864 -1.3833
   57CHL1   C12 6655   1.099   2.845   9.113 -0.1936 -0.3752 -0.0646
   57CHL1  H12A 6656   1.181   2.876   9.044 -0.2708 -0.5447 -0.2315
   57CHL1  H12B 6657   1.021   2.922   9.135 -0.4864 -1.6146  4.1578
   57CHL1   C11 6658   1.156   2.806   9.250  0.4483  0.6193  0.2898
   57CHL1  H11A 6659   1.248   2.751   9.222 -0.8289 -1.3164 -0.3384
   57CHL1  H11B 6660   1.166   2.901   9.307 -1.5788  0.3798  1.1314
   57CHL1    C9 6661   1.052   2.719   9.333 -0.1982  0.1922  0.3868
   57CHL1    H9 6662   0.967   2.790   9.344 -0.1660 -0.0259  2.4275
   57CHL1   C10 6663   1.110   2.690   9.470 -0.1704  0.0872 -0.2829
   57CHL1   C19 6664   1.256   2.633   9.454 -0.2594  0.0949 -0.7770
   57CHL1  H19A 6665   1.329   2.705   9.412  2.2077 -1.2258  0.9643
   57CHL1  H19B 6666   1.283   2.611   9.560 -3.7774  1.3585  0.5388
   57CHL1  H19C 6667   1.261   2.543   9.390 -1.2527 -0.6922  0.1951
   57CHL1    C1 6668   1.118   2.825   9.551  0.0651 -0.0355  0.0560
   57CHL1   H1A 6669   1.199   2.893   9.516  0.0901 -0.1966 -0.2040
   57CHL1   H1B 6670   1.018   2.874   9.547  0.3279  0.6024  1.1234
   57CHL1    C2 6671   1.144   2.811   9.702  0.6535  0.3577 -0.6001
   57CHL1   H2A 6672   1.142   2.907   9.758  0.4971 -0.6998  1.2912
   57CHL1   H2B 6673   1.250   2.778   9.718  0.9552  1.4210 -0.3217
   57CHL1   C20 6674   1.023   2.766   8.764  0.1495 -0.0131 -0.2624
   57CHL1   H20 6675   1.087   2.679   8.736 -1.1957 -0.5566 -1.8384
   57CHL1   C21 6676   1.111   2.886   8.763  0.3188  0.6615  0.5829
   57CHL1  H21A 6677   1.138   2.912   8.658 -1.5720 -2.2554 -0.7686
   57CHL1  H21B 6678   1.203   2.869   8.823  0.5195  0.4589  0.2228
   57CHL1  H21C 6679   1.062   2.973   8.812 -2.3890 -1.4753  1.9116
   57CHL1   C22 6680   0.914   2.779   8.655  0.4457 -0.1045  1.0531
   57CHL1  H22A 6681   0.961   2.811   8.560  0.5813 -2.6587  0.1908
   57CHL1  H22B 6682   0.877   2.676   8.638 -0.6303  0.7149 -2.1040
   57CHL1   C23 6683   0.797   2.876   8.681  0.2831 -0.0722  0.3801
   57CHL1  H23A 6684   0.764   2.861   8.786  2.0247 -1.3717  0.7846
   57CHL1  H23B 6685   0.809   2.986   8.679 -1.6785  0.1783 -0.6460
   57CHL1   C24 6686   0.679   2.845   8.597  0.3099 -0.6801  0.3386
   57CHL1  H24A 6687   0.697   2.844   8.487 -1.5238 -1.3483  0.0165
   57CHL1  H24B 6688   0.648   2.743   8.627  1.7590 -2.3067 -3.1911
   57CHL1   C25 6689   0.560   2.936   8.619 -0.3938  0.5262  0.2571
   57CHL1   H25 6690   0.537   2.943   8.727 -0.5548 -1.1941  0.3674
   57CHL1   C26 6691   0.572   3.079   8.570  0.7704 -0.1667  0.0174
   57CHL1  H26A 6692   0.492   3.139   8.618  0.4993 -2.9600  3.4726
   57CHL1  H26B 6693   0.665   3.125   8.612  2.3288 -3.8204  0.9377
   57CHL1  H26C 6694   0.565   3.082   8.459 -2.5266 -1.4322  0.0949
   57CHL1   C27 6695   0.444   2.877   8.541 -0.2388 -0.4396  0.2203
   57CHL1  H27A 6696   0.410   2.780   8.582 -1.6037 -0.9914 -2.0199
   57CHL1  H27B 6697   0.362   2.951   8.556 -1.3942 -1.3333 -1.3896
   57CHL1  H27C 6698   0.470   2.853   8.436 -0.0027 -0.3577  0.2595
   58CHL1    C3 6699   3.619   0.422  10.211 -0.6808 -0.3524  0.0332
   58CHL1    H3 6700   3.681   0.513  10.197 -1.3937 -0.0884 -1.6940
   58CHL1    O3 6701   3.603   0.390  10.345 -0.1571  0.1658  0.3784
   58CHL1   H3' 6702   3.551   0.309  10.336  0.9925 -0.5462 -0.1361
   58CHL1    C4 6703   3.487   0.441  10.135 -0.7868 -0.1055 -0.3233
   58CHL1   H4A 6704   3.416   0.357  10.152 -0.9254  0.3164  1.4489
   58CHL1   H4B 6705   3.455   0.539  10.178  0.0088  0.0369 -0.0410
   58CHL1    C5 6706   3.508   0.470   9.988  0.3561 -0.3011 -0.0681
   58CHL1    C6 6707   3.460   0.586   9.935  0.0877  0.0330 -0.5306
   58CHL1    H6 6708   3.413   0.664   9.996 -0.6030  0.7807 -1.9651
   58CHL1    C7 6709   3.472   0.615   9.785 -0.2512  0.6236  0.0735
   58CHL1   H7A 6710   3.371   0.639   9.744  0.2791  1.5597 -0.7250
   58CHL1   H7B 6711   3.535   0.706   9.772  0.0360  0.0236 -4.0587
   58CHL1    C8 6712   3.525   0.494   9.704 -0.3318  0.3517 -0.7744
   58CHL1    H8 6713   3.440   0.427   9.680 -0.6783  0.3242  0.4559
   58CHL1   C14 6714   3.577   0.543   9.571 -0.0051 -0.2927  0.4380
   58CHL1   H14 6715   3.665   0.612   9.577 -0.8902  0.9427 -0.2530
   58CHL1   C15 6716   3.486   0.635   9.481  0.0884 -0.1358 -0.1698
   58CHL1  H15A 6717   3.382   0.596   9.479 -0.7704  2.0466 -0.4581
   58CHL1  H15B 6718   3.476   0.738   9.520 -3.1575  0.2210 -1.6709
   58CHL1   C16 6719   3.545   0.617   9.339 -0.3096 -0.0277  0.2955
   58CHL1  H16A 6720   3.464   0.569   9.280  1.6182 -1.8297 -1.0044
   58CHL1  H16B 6721   3.579   0.714   9.296 -0.7406 -0.8338 -1.9648
   58CHL1   C17 6722   3.668   0.522   9.349 -0.2761  0.7983 -0.2328
   58CHL1   H17 6723   3.753   0.587   9.381  0.6213 -0.4646  0.0161
   58CHL1   C13 6724   3.638   0.439   9.477  0.7223 -0.1254 -0.1275
   58CHL1   C18 6725   3.528   0.334   9.434  0.1890  0.1890  0.3386
   58CHL1  H18A 6726   3.489   0.272   9.517 -0.3908 -0.6513 -0.5373
   58CHL1  H18B 6727   3.437   0.389   9.402  0.2998  1.4748  2.0902
   58CHL1  H18C 6728   3.575   0.270   9.356  1.4081  1.0716  0.3152
   58CHL1   C12 6729   3.747   0.366   9.548  0.1103 -0.6197 -0.4582
   58CHL1  H12A 6730   3.782   0.280   9.488  3.2012  0.7772 -0.8739
   58CHL1  H12B 6731   3.824   0.445   9.565 -0.8870  0.4393 -0.6966
   58CHL1   C11 6732   3.707   0.320   9.690 -0.5292  0.3690 -0.1312
   58CHL1  H11A 6733   3.633   0.238   9.680 -0.5311  0.2676  0.6249
   58CHL1  H11B 6734   3.799   0.276   9.733 -0.4229 -0.3756 -1.0886
   58CHL1    C9 6735   3.638   0.425   9.781 -0.1694 -0.5010  0.1574
   58CHL1    H9 6736   3.716   0.503   9.796  0.8559 -1.5045  0.2792
   58CHL1   C10 6737   3.592   0.370   9.915  0.2062 -0.6344 -0.4548
   58CHL1   C19 6738   3.509   0.240   9.899 -0.5774 -0.0977  0.3531
   58CHL1  H19A 6739   3.469   0.204   9.996 -0.0115  1.8247  1.3546
   58CHL1  H19B 6740   3.425   0.252   9.827 -0.3476  0.0499  0.1047
   58CHL1  H19C 6741   3.572   0.155   9.863  1.8284  1.8994 -0.5114
   58CHL1    C1 6742   3.719   0.341  10.008  0.0657 -0.5717  0.4566
   58CHL1   H1A 6743   3.788   0.262   9.972  0.7435  0.0229  0.4240
   58CHL1   H1B 6744   3.773   0.438  10.016 -0.9531  0.1530 -1.0550
   58CHL1    C2 6745   3.684   0.300  10.150  0.4477 -0.1338 -0.5342
   58CHL1   H2A 6746   3.777   0.282  10.210 -0.0665 -0.3251  0.2284
   58CHL1   H2B 6747   3.614   0.214  10.148 -2.2529  1.9228  0.4485
   58CHL1   C20 6748   3.694   0.459   9.211  0.3549 -0.0388 -0.3807
   58CHL1   H20 6749   3.610   0.391   9.186 -1.0378  1.6268 -0.4768
   58CHL1   C21 6750   3.832   0.404   9.231 -0.6861  1.3614 -0.3553
   58CHL1  H21A 6751   3.883   0.368   9.139 -0.1032 -0.0888  0.5099
   58CHL1  H21B 6752   3.838   0.326   9.309  1.2322  0.5164 -1.2885
   58CHL1  H21C 6753   3.894   0.486   9.272 -0.2427  1.2423 -0.7793
   58CHL1   C22 6754   3.689   0.574   9.103 -0.1309 -0.1328  0.0469
   58CHL1  H22A 6755   3.585   0.610   9.085  0.1785 -0.3405 -2.7139
   58CHL1  H22B 6756   3.741   0.665   9.139  0.2498  0.2285 -1.3488
   58CHL1   C23 6757   3.737   0.535   8.961 -0.2902 -0.3039 -0.3038
   58CHL1  H23A 6758   3.845   0.509   8.954 -0.6278 -1.5700 -1.2316
   58CHL1  H23B 6759   3.682   0.442   8.934  0.0038 -0.7115  0.4862
   58CHL1   C24 6760   3.710   0.641   8.849  0.7472 -0.0274 -0.6091
   58CHL1  H24A 6761   3.600   0.639   8.834  0.6100  0.2238  0.2817
   58CHL1  H24B 6762   3.736   0.744   8.880 -0.0508  0.2841 -0.9439
   58CHL1   C25 6763   3.774   0.611   8.715 -0.4887  0.1373 -0.5566
   58CHL1   H25 6764   3.758   0.503   8.694  2.8241 -0.4238 -0.8257
   58CHL1   C26 6765   3.694   0.679   8.609 -0.2239 -0.4191  0.1491
   58CHL1  H26A 6766   3.741   0.652   8.512 -1.6028  2.0164 -1.3004
   58CHL1  H26B 6767   3.586   0.653   8.605 -0.1406 -0.7605  0.0992
   58CHL1  H26C 6768   3.699   0.789   8.622 -0.3602 -0.0202 -2.5773
   58CHL1   C27 6769   3.926   0.643   8.711  0.3204 -0.3343 -0.7708
   58CHL1  H27A 6770   3.965   0.631   8.607 -0.0312  1.1716 -1.0986
   58CHL1  H27B 6771   3.937   0.752   8.727  0.3962 -0.5243  0.5485
   58CHL1  H27C 6772   3.989   0.589   8.785  0.9984  1.1703 -0.2237
   59CHL1    C3 6773   4.214   0.028  10.457  0.1813 -0.1475 -0.9013
   59CHL1    H3 6774   4.268  -0.060  10.417 -0.2403 -0.0991 -1.5945
   59CHL1    O3 6775   4.219   0.028  10.599 -0.4032 -0.0726 -0.4172
   59CHL1   H3' 6776   4.314   0.038  10.613 -0.2230 -0.3873 -1.3400
   59CHL1    C4 6777   4.297   0.142  10.406 -0.3088 -0.9063  0.3369
   59CHL1   H4A 6778   4.259   0.242  10.437  0.7497  0.4559 -2.3693
   59CHL1   H4B 6779   4.402   0.130  10.440  0.5810 -1.0327 -2.2368
   59CHL1    C5 6780   4.294   0.141  10.249  0.6840  0.7262 -0.2221
   59CHL1    C6 6781   4.408   0.121  10.179 -0.3664 -0.1267 -0.8731
   59CHL1    H6 6782   4.499   0.102  10.238 -0.2424 -0.6172 -1.2122
   59CHL1    C7 6783   4.420   0.122  10.029 -0.3724  0.7214  1.0443
   59CHL1   H7A 6784   4.498   0.193   9.995 -0.2210  0.6723  1.2847
   59CHL1   H7B 6785   4.447   0.018  10.001 -1.1354  0.8578 -0.2641
   59CHL1    C8 6786   4.289   0.172   9.954 -0.3288  0.3975  0.1977
   59CHL1    H8 6787   4.278   0.281   9.969 -2.7158  0.1380  0.6334
   59CHL1   C14 6788   4.294   0.124   9.808 -0.7017  0.5237 -0.3636
   59CHL1   H14 6789   4.300   0.013   9.810 -0.0735  0.5658  0.3596
   59CHL1   C15 6790   4.410   0.175   9.725 -0.2762  0.2268  0.6235
   59CHL1  H15A 6791   4.421   0.283   9.750  0.6041  0.2096  0.3187
   59CHL1  H15B 6792   4.504   0.119   9.742 -0.6211 -0.1576  1.3250
   59CHL1   C16 6793   4.358   0.168   9.582 -0.4250  0.1282  0.2374
   59CHL1  H16A 6794   4.359   0.269   9.535 -3.9609  0.3773  0.4293
   59CHL1  H16B 6795   4.428   0.104   9.524 -2.0410  0.1845 -1.9191
   59CHL1   C17 6796   4.211   0.117   9.583 -0.2115  0.1158  0.1472
   59CHL1   H17 6797   4.222   0.006   9.578 -1.9710 -0.0243 -1.8660
   59CHL1   C13 6798   4.166   0.149   9.730  0.0725 -0.2404  0.2571
   59CHL1   C18 6799   4.126   0.293   9.740 -0.0661  0.4078 -0.2072
   59CHL1  H18A 6800   4.199   0.360   9.691 -1.1908  1.0463 -1.0614
   59CHL1  H18B 6801   4.022   0.309   9.702  0.1490  1.0306 -0.5466
   59CHL1  H18C 6802   4.126   0.328   9.845 -0.0093  1.3634 -0.5146
   59CHL1   C12 6803   4.057   0.068   9.790 -0.0360 -0.4188  0.8637
   59CHL1  H12A 6804   3.958   0.078   9.740  1.8693  3.1409 -2.7809
   59CHL1  H12B 6805   4.068  -0.041   9.770 -2.3279 -0.2545 -1.9272
   59CHL1   C11 6806   4.046   0.102   9.941  0.4567 -0.3855 -0.3910
   59CHL1  H11A 6807   3.991   0.199   9.948  2.9229  1.5619 -4.3754
   59CHL1  H11B 6808   3.973   0.034   9.990  0.3098 -1.4297 -1.9698
   59CHL1    C9 6809   4.174   0.103  10.028 -0.3636  0.6193  0.3224
   59CHL1    H9 6810   4.201  -0.003  10.044 -2.4908  0.2421  1.9514
   59CHL1   C10 6811   4.159   0.142  10.177  0.4094 -0.3886  0.0363
   59CHL1   C19 6812   4.091   0.281  10.192  0.1919 -0.5677  0.3222
   59CHL1  H19A 6813   3.993   0.297  10.141 -0.4674  1.0991  1.9903
   59CHL1  H19B 6814   4.062   0.293  10.298 -1.0376 -4.1459  0.5415
   59CHL1  H19C 6815   4.163   0.359  10.159 -0.9517  0.5594  0.4153
   59CHL1    C1 6816   4.064   0.035  10.251 -0.6418 -0.0102  0.0310
   59CHL1   H1A 6817   3.959   0.053  10.221 -0.5569 -0.3976 -0.5253
   59CHL1   H1B 6818   4.095  -0.067  10.220 -1.7533 -0.5681  0.6696
   59CHL1    C2 6819   4.066   0.035  10.406  0.4389  0.8105 -0.5626
   59CHL1   H2A 6820   4.017  -0.052  10.455 -0.2161  0.1943 -2.2402
   59CHL1   H2B 6821   4.017   0.128  10.442 -1.5356 -0.5709  0.5215
   59CHL1   C20 6822   4.139   0.166   9.459  0.5378  0.5103 -0.0204
   59CHL1   H20 6823   4.114   0.272   9.484  0.9772  0.5617  0.2134
   59CHL1   C21 6824   4.001   0.096   9.456  0.5544 -0.8829  0.6344
   59CHL1  H21A 6825   3.931   0.119   9.539 -1.0752  0.3964 -1.0229
   59CHL1  H21B 6826   4.025  -0.012   9.449  0.2150 -0.8696 -1.9020
   59CHL1  H21C 6827   3.948   0.128   9.364 -1.3827  1.1467  2.3304
   59CHL1   C22 6828   4.215   0.152   9.327  0.4149  0.0585 -0.1434
   59CHL1  H22A 6829   4.322   0.183   9.332  0.6745 -0.7968 -0.2132
   59CHL1  H22B 6830   4.233   0.046   9.300 -1.3828 -0.5471  0.9002
   59CHL1   C23 6831   4.166   0.227   9.206  0.5378  0.0103  0.0550
   59CHL1  H23A 6832   4.076   0.169   9.177  0.2471  1.2247 -1.6114
   59CHL1  H23B 6833   4.130   0.330   9.226 -0.1247 -0.2095  0.0166
   59CHL1   C24 6834   4.261   0.235   9.082 -0.0280 -0.4299 -0.2296
   59CHL1  H24A 6835   4.358   0.276   9.118  0.6585 -1.0416 -1.3120
   59CHL1  H24B 6836   4.282   0.130   9.053  0.5650 -0.7328  1.2032
   59CHL1   C25 6837   4.216   0.317   8.954  0.8169 -0.1649  0.1757
   59CHL1   H25 6838   4.171   0.410   8.995  2.0557  1.0705 -1.1485
   59CHL1   C26 6839   4.334   0.342   8.871 -0.7207 -0.4737  0.0861
   59CHL1  H26A 6840   4.323   0.377   8.766  0.1360  0.0744  0.1667
   59CHL1  H26B 6841   4.389   0.420   8.927 -1.8914 -0.8125  1.7898
   59CHL1  H26C 6842   4.409   0.259   8.872  0.3385  0.4633 -0.0572
   59CHL1   C27 6843   4.112   0.233   8.890  1.1814 -0.5358  0.0752
   59CHL1  H27A 6844   4.090   0.270   8.787  0.3046 -0.3086  0.3392
   59CHL1  H27B 6845   4.154   0.131   8.880  0.8419 -0.6725  0.0215
   59CHL1  H27C 6846   4.011   0.235   8.937  0.1880 -0.5545 -1.9409
   60CHL1    C3 6847   1.585   0.374   9.799  0.1443 -0.1017  0.1100
   60CHL1    H3 6848   1.687   0.339   9.775  0.9219  0.8797  1.8321
   60CHL1    O3 6849   1.567   0.381   9.943  0.1099 -0.7737  0.3066
   60CHL1   H3' 6850   1.489   0.437   9.954  1.2005  1.1187 -0.9285
   60CHL1    C4 6851   1.579   0.517   9.743  0.3049  1.0931  0.4866
   60CHL1   H4A 6852   1.482   0.566   9.763  0.1271  0.6887  0.6201
   60CHL1   H4B 6853   1.660   0.580   9.785  0.9752  1.1233 -0.7872
   60CHL1    C5 6854   1.606   0.513   9.592  0.3902 -0.0673  0.2905
   60CHL1    C6 6855   1.706   0.575   9.528 -0.4251 -0.3725  0.2267
   60CHL1    H6 6856   1.779   0.625   9.593 -0.3067 -1.3677  0.8887
   60CHL1    C7 6857   1.733   0.581   9.381  0.5338 -0.0011  0.2224
   60CHL1   H7A 6858   1.766   0.683   9.354  1.8116 -0.4821 -0.1046
   60CHL1   H7B 6859   1.824   0.519   9.367  0.3033 -0.3517  0.2631
   60CHL1    C8 6860   1.610   0.524   9.295 -0.7290  0.0772 -0.9122
   60CHL1    H8 6861   1.529   0.600   9.286 -2.2882 -1.6217 -1.9295
   60CHL1   C14 6862   1.662   0.472   9.162  0.2031 -0.2559  0.2384
   60CHL1   H14 6863   1.717   0.381   9.192  2.8109  1.4654  1.0523
   60CHL1   C15 6864   1.757   0.555   9.080 -0.1568 -0.1302  0.1205
   60CHL1  H15A 6865   1.734   0.663   9.075  2.2898  0.5423  1.5007
   60CHL1  H15B 6866   1.862   0.543   9.113  0.2319  2.1539 -0.1487
   60CHL1   C16 6867   1.750   0.494   8.944 -0.2333 -0.5582  0.4642
   60CHL1  H16A 6868   1.729   0.571   8.867  0.9284  1.6393  2.2275
   60CHL1  H16B 6869   1.842   0.447   8.903 -0.0786 -1.4434  1.7770
   60CHL1   C17 6870   1.638   0.388   8.943  0.7374  0.2297  0.4015
   60CHL1   H17 6871   1.696   0.293   8.947 -0.5407 -0.5707  0.1340
   60CHL1   C13 6872   1.557   0.420   9.067  0.4852  0.4559 -0.7034
   60CHL1   C18 6873   1.446   0.522   9.042 -0.4070  0.0259 -0.2667
   60CHL1  H18A 6874   1.357   0.474   8.996 -1.5055  1.8594 -0.1406
   60CHL1  H18B 6875   1.415   0.580   9.132 -0.2761 -1.5577  0.8514
   60CHL1  H18C 6876   1.477   0.600   8.970  1.4722 -1.8125 -1.5469
   60CHL1   C12 6877   1.508   0.284   9.137  0.0470 -0.9572 -0.1702
   60CHL1  H12A 6878   1.435   0.222   9.081  1.4207 -1.4583 -1.4735
   60CHL1  H12B 6879   1.593   0.215   9.152  1.6286  1.2935  2.2201
   60CHL1   C11 6880   1.446   0.333   9.272 -0.6520 -0.6445 -0.3751
   60CHL1  H11A 6881   1.367   0.408   9.250 -0.6074 -0.1644  0.9953
   60CHL1  H11B 6882   1.410   0.244   9.327 -0.4575  0.2951  1.3172
   60CHL1    C9 6883   1.547   0.405   9.365  0.2489 -0.0887  0.4638
   60CHL1    H9 6884   1.630   0.332   9.381  1.2256  0.5153 -1.5118
   60CHL1   C10 6885   1.499   0.436   9.514 -0.4308  0.8007  0.7091
   60CHL1   C19 6886   1.363   0.507   9.499  0.3500  0.1103 -0.5234
   60CHL1  H19A 6887   1.283   0.436   9.469  0.2227 -0.4987  1.1206
   60CHL1  H19B 6888   1.329   0.544   9.598 -3.4664 -0.4447 -1.4589
   60CHL1  H19C 6889   1.370   0.594   9.430  2.0441  1.5163  1.2962
   60CHL1    C1 6890   1.476   0.302   9.578 -0.5770 -0.2243  0.2483
   60CHL1   H1A 6891   1.388   0.250   9.536 -0.6062 -2.5939  2.9377
   60CHL1   H1B 6892   1.558   0.234   9.544 -0.6566 -0.0656 -0.2657
   60CHL1    C2 6893   1.469   0.295   9.731  0.2480  0.5572 -0.0922
   60CHL1   H2A 6894   1.471   0.192   9.773 -0.5973  2.0076  3.9384
   60CHL1   H2B 6895   1.375   0.341   9.769 -0.6826  0.2531 -1.9259
   60CHL1   C20 6896   1.567   0.380   8.807 -0.9972  0.0102 -0.0816
   60CHL1   H20 6897   1.511   0.475   8.792 -0.2392  0.3225 -1.0655
   60CHL1   C21 6898   1.472   0.251   8.810 -0.0851  1.0568 -0.5527
   60CHL1  H21A 6899   1.388   0.258   8.883  0.2613 -0.2305  0.0041
   60CHL1  H21B 6900   1.528   0.157   8.829 -2.8846 -1.0723 -2.0810
   60CHL1  H21C 6901   1.421   0.238   8.713 -1.9967 -0.8837  0.6275
   60CHL1   C22 6902   1.674   0.352   8.691 -0.0693  0.0771  0.1184
   60CHL1  H22A 6903   1.773   0.399   8.706  2.0149 -4.1549  0.8773
   60CHL1  H22B 6904   1.684   0.242   8.687 -0.1748 -0.0059  1.6121
   60CHL1   C23 6905   1.631   0.397   8.544 -0.4639  0.5786  0.0160
   60CHL1  H23A 6906   1.693   0.346   8.468  0.1949 -1.9711  2.1080
   60CHL1  H23B 6907   1.526   0.365   8.526 -0.2465  0.0481 -0.3062
   60CHL1   C24 6908   1.657   0.547   8.525 -0.0006  0.9796  0.3119
   60CHL1  H24A 6909   1.610   0.602   8.609 -0.5556 -1.4128  1.6614
   60CHL1  H24B 6910   1.767   0.560   8.529  0.3172 -1.5166  1.3684
   60CHL1   C25 6911   1.608   0.600   8.384  0.2024 -0.0356  0.3257
   60CHL1   H25 6912   1.613   0.521   8.307 -1.4960  2.4092 -2.4943
   60CHL1   C26 6913   1.466   0.636   8.393 -0.0053 -0.1677  0.3111
   60CHL1  H26A 6914   1.417   0.672   8.300 -0.0002 -0.6655  0.1087
   60CHL1  H26B 6915   1.399   0.551   8.420 -0.9657 -0.3177 -2.3021
   60CHL1  H26C 6916   1.454   0.720   8.465 -1.2559 -0.6156  0.6599
   60CHL1   C27 6917   1.688   0.728   8.350 -0.8545 -0.0881 -0.5728
   60CHL1  H27A 6918   1.665   0.763   8.247 -0.0434  1.1728 -0.3483
   60CHL1  H27B 6919   1.652   0.801   8.426  2.7955 -1.2127  2.5347
   60CHL1  H27C 6920   1.797   0.714   8.364 -0.7493  0.6109 -0.6752
   61CHL1    C3 6921   0.125   5.198   9.513 -0.6638 -0.3301 -0.4616
   61CHL1    H3 6922   0.215   5.261   9.523 -0.5024 -0.6576  0.2026
   61CHL1    O3 6923   0.051   5.190   9.633 -0.5896  1.0083 -0.8936
   61CHL1   H3' 6924  -0.034   5.150   9.615 -0.6044  1.5038 -1.9914
   61CHL1    C4 6925   0.036   5.253   9.397  0.4190  0.6795 -0.5363
   61CHL1   H4A 6926  -0.049   5.181   9.401  2.0180 -1.5114 -3.1074
   61CHL1   H4B 6927  -0.011   5.349   9.429  0.9121  0.6911  0.1819
   61CHL1    C5 6928   0.095   5.255   9.264  0.4699  0.3965  0.5827
   61CHL1    C6 6929   0.104   5.367   9.194  0.0287 -0.0489  0.0449
   61CHL1    H6 6930   0.062   5.461   9.233 -0.1657  0.2577 -0.8836
   61CHL1    C7 6931   0.166   5.381   9.054 -0.0642  0.6741  0.0413
   61CHL1   H7A 6932   0.099   5.445   8.993 -0.7364 -1.5930 -1.7518
   61CHL1   H7B 6933   0.261   5.437   9.065 -0.9232  2.3075 -0.5058
   61CHL1    C8 6934   0.188   5.238   8.994  0.0938  0.2750  0.6635
   61CHL1    H8 6935   0.087   5.200   8.970  1.5650 -4.5495  1.0329
   61CHL1   C14 6936   0.263   5.241   8.859  0.8035  1.1390 -1.0723
   61CHL1   H14 6937   0.365   5.271   8.891  0.8135 -0.3805  0.4993
   61CHL1   C15 6938   0.214   5.335   8.746 -0.1351 -0.3346 -0.6343
   61CHL1  H15A 6939   0.104   5.335   8.734 -0.3302  1.9794  0.6943
   61CHL1  H15B 6940   0.261   5.434   8.762 -1.3568 -0.1419  2.4471
   61CHL1   C16 6941   0.274   5.273   8.612 -0.4723 -0.0867 -0.5371
   61CHL1  H16A 6942   0.185   5.240   8.554 -1.8434 -0.6730  1.7804
   61CHL1  H16B 6943   0.339   5.341   8.554  0.3372 -1.0172 -0.7405
   61CHL1   C17 6944   0.364   5.147   8.654  0.3095 -0.2267 -0.2188
   61CHL1   H17 6945   0.461   5.193   8.682 -1.1515  2.1625  1.2966
   61CHL1   C13 6946   0.293   5.104   8.791 -0.0905  0.8455 -0.1166
   61CHL1   C18 6947   0.162   5.034   8.755  0.1177 -0.3014  0.3950
   61CHL1  H18A 6948   0.075   5.041   8.824 -1.6670  0.6051 -1.8244
   61CHL1  H18B 6949   0.122   5.088   8.666  0.8930  3.3837  2.0859
   61CHL1  H18C 6950   0.175   4.926   8.736  2.7622 -0.0587  0.5110
   61CHL1   C12 6951   0.385   5.019   8.885  0.1966 -0.4038  0.2471
   61CHL1  H12A 6952   0.391   4.916   8.844  0.1936 -0.1892 -0.3012
   61CHL1  H12B 6953   0.476   5.080   8.905 -0.4455  0.1589  1.6020
   61CHL1   C11 6954   0.314   5.012   9.023  0.2353  0.1369  0.1797
   61CHL1  H11A 6955   0.231   4.940   9.004 -0.3990  1.2795 -1.6528
   61CHL1  H11B 6956   0.387   4.961   9.089  0.5800 -0.0159 -0.3156
   61CHL1    C9 6957   0.262   5.145   9.089  0.3439 -0.4178 -0.1662
   61CHL1    H9 6958   0.354   5.193   9.128 -1.0863  0.6793  2.0054
   61CHL1   C10 6959   0.169   5.128   9.215  0.3696 -0.0701  0.6156
   61CHL1   C19 6960   0.056   5.029   9.185  0.1579  0.8942 -0.2177
   61CHL1  H19A 6961  -0.018   5.060   9.108 -1.0276  1.1653  1.0018
   61CHL1  H19B 6962   0.088   4.927   9.154  1.4122  0.8636  1.0973
   61CHL1  H19C 6963  -0.004   5.005   9.275 -0.1176 -0.0606 -0.6413
   61CHL1    C1 6964   0.245   5.067   9.337 -0.3626  0.2194  0.2770
   61CHL1   H1A 6965   0.267   4.962   9.307 -0.4646  0.3907 -0.4249
   61CHL1   H1B 6966   0.344   5.118   9.345  0.5328 -1.2653 -0.8119
   61CHL1    C2 6967   0.171   5.060   9.477 -0.5920 -0.3710  0.0657
   61CHL1   H2A 6968   0.241   5.027   9.557 -0.3019 -0.8199 -0.3693
   61CHL1   H2B 6969   0.083   4.991   9.475  0.3391 -1.5845  0.0320
   61CHL1   C20 6970   0.384   5.046   8.545 -0.3701 -0.0244  0.5256
   61CHL1   H20 6971   0.290   4.986   8.545 -0.4189 -0.0957 -2.3491
   61CHL1   C21 6972   0.502   4.953   8.584  0.7477  0.7659 -0.1812
   61CHL1  H21A 6973   0.545   4.909   8.492  0.6768 -1.1980  0.6747
   61CHL1  H21B 6974   0.477   4.868   8.651  2.1306  1.7653  1.7295
   61CHL1  H21C 6975   0.584   5.007   8.637  0.6764  0.1089  0.6276
   61CHL1   C22 6976   0.408   5.099   8.399 -0.0645  0.5181 -0.6355
   61CHL1  H22A 6977   0.321   5.163   8.372 -1.1315 -0.9143 -0.7013
   61CHL1  H22B 6978   0.497   5.165   8.389  0.8258 -0.8374 -2.2719
   61CHL1   C23 6979   0.415   4.993   8.282  0.3587  0.6234  1.2124
   61CHL1  H23A 6980   0.485   4.911   8.309 -1.0287 -0.2620  2.2469
   61CHL1  H23B 6981   0.317   4.941   8.292 -0.4390  2.2636  2.5473
   61CHL1   C24 6982   0.453   5.054   8.150 -0.3310 -1.1845  0.5906
   61CHL1  H24A 6983   0.380   5.133   8.122  0.3170 -1.0776 -0.8913
   61CHL1  H24B 6984   0.546   5.114   8.157 -1.3530  0.6786 -0.8206
   61CHL1   C25 6985   0.489   4.960   8.031  0.2832 -0.3778 -0.4103
   61CHL1   H25 6986   0.420   4.877   8.057 -0.2270  0.2597  0.2994
   61CHL1   C26 6987   0.455   5.019   7.894  0.3923  1.0429 -0.0699
   61CHL1  H26A 6988   0.346   5.042   7.897 -0.1899 -1.4390  0.1455
   61CHL1  H26B 6989   0.513   5.109   7.864  1.8292  0.1805  0.0512
   61CHL1  H26C 6990   0.456   4.945   7.812 -2.7052  0.1480  0.5759
   61CHL1   C27 6991   0.627   4.916   8.031  0.6435  0.4083  0.0727
   61CHL1  H27A 6992   0.663   4.868   8.125 -0.0030 -0.5815 -0.1808
   61CHL1  H27B 6993   0.641   4.841   7.951 -0.4365 -0.4563  0.6628
   61CHL1  H27C 6994   0.689   5.003   7.999  0.8679  0.6801  1.1795
   62CHL1    C3 6995   0.568   1.923   9.783 -0.4883  0.1471  0.3761
   62CHL1    H3 6996   0.507   1.831   9.771 -0.9186  0.4785 -0.0321
   62CHL1    O3 6997   0.584   1.934   9.918  0.8500 -0.2389 -0.0933
   62CHL1   H3' 6998   0.572   1.844   9.951 -0.0245 -0.4250 -0.8624
   62CHL1    C4 6999   0.707   1.917   9.717  0.5484 -0.1302 -0.0284
   62CHL1   H4A 7000   0.775   1.997   9.752  2.1795 -2.0237  1.3939
   62CHL1   H4B 7001   0.755   1.825   9.757  1.3329 -0.1552 -0.9843
   62CHL1    C5 7002   0.702   1.914   9.569 -0.7992 -1.1918  0.2623
   62CHL1    C6 7003   0.762   1.815   9.501  0.1931 -0.3533  0.2181
   62CHL1    H6 7004   0.818   1.736   9.553 -0.0200  0.0054  1.0068
   62CHL1    C7 7005   0.776   1.808   9.355 -0.4197 -0.7850  0.1358
   62CHL1   H7A 7006   0.874   1.785   9.309 -1.4964 -1.0049 -2.2221
   62CHL1   H7B 7007   0.708   1.723   9.331 -2.7313 -0.0576  3.3986
   62CHL1    C8 7008   0.744   1.945   9.285  0.1244  0.3843  0.0864
   62CHL1    H8 7009   0.820   2.025   9.290 -0.3864  0.8425  0.7253
   62CHL1   C14 7010   0.708   1.929   9.138  0.7136  0.4716  0.2092
   62CHL1   H14 7011   0.620   1.861   9.136  1.5758 -0.7345  1.2859
   62CHL1   C15 7012   0.784   1.840   9.035  0.0506  0.3571  0.2908
   62CHL1  H15A 7013   0.892   1.869   9.037  0.5984 -1.5001 -0.0172
   62CHL1  H15B 7014   0.766   1.733   9.061 -3.3779  0.7223 -0.1514
   62CHL1   C16 7015   0.728   1.866   8.893  0.7176 -0.5196 -0.2741
   62CHL1  H16A 7016   0.808   1.895   8.821  0.1191 -1.2188 -1.2473
   62CHL1  H16B 7017   0.678   1.772   8.861 -1.1786  0.5888 -0.7357
   62CHL1   C17 7018   0.624   1.978   8.916 -0.0560  0.3709 -0.0463
   62CHL1   H17 7019   0.532   1.921   8.937  0.4534 -0.6441 -0.5038
   62CHL1   C13 7020   0.661   2.044   9.055  1.0432  0.2684  0.0075
   62CHL1   C18 7021   0.764   2.155   9.023 -0.8605  0.1984 -0.2441
   62CHL1  H18A 7022   0.708   2.235   8.969 -3.1874 -0.5294  0.9660
   62CHL1  H18B 7023   0.825   2.187   9.110 -0.6853 -3.4318  1.1375
   62CHL1  H18C 7024   0.841   2.114   8.955  0.7961 -0.4679  1.9478
   62CHL1   C12 7025   0.542   2.098   9.124  0.0476  0.2403  0.0275
   62CHL1  H12A 7026   0.503   2.180   9.059 -1.2031 -0.9416 -0.7608
   62CHL1  H12B 7027   0.448   2.040   9.133 -0.5719  1.3709  1.2063
   62CHL1   C11 7028   0.566   2.140   9.270 -0.0724  0.7600 -0.4967
   62CHL1  H11A 7029   0.647   2.217   9.273  1.0796 -0.4188 -0.4678
   62CHL1  H11B 7030   0.478   2.183   9.322 -0.3166 -1.3910  0.9979
   62CHL1    C9 7031   0.619   2.009   9.347  0.2071  0.0853  0.7767
   62CHL1    H9 7032   0.534   1.938   9.341 -2.2026  2.9216 -1.6914
   62CHL1   C10 7033   0.630   2.030   9.506  0.5200 -0.0850 -0.3941
   62CHL1   C19 7034   0.707   2.164   9.536  0.6726  0.1905  0.0770
   62CHL1  H19A 7035   0.712   2.184   9.645  0.2206  0.2364  0.0901
   62CHL1  H19B 7036   0.801   2.146   9.480 -1.3524 -2.3665 -2.8804
   62CHL1  H19C 7037   0.666   2.258   9.494  2.0715  1.0314  0.5218
   62CHL1    C1 7038   0.494   2.041   9.570  0.5213  0.0625  1.0166
   62CHL1   H1A 7039   0.443   2.131   9.529 -0.8857 -1.1891 -0.1402
   62CHL1   H1B 7040   0.428   1.957   9.537 -0.9685  0.1608  3.4798
   62CHL1    C2 7041   0.493   2.043   9.724  0.2075 -0.3070 -0.0435
   62CHL1   H2A 7042   0.389   2.051   9.762  0.9277  2.3636  1.6555
   62CHL1   H2B 7043   0.546   2.138   9.748  0.5312 -0.7174  0.9135
   62CHL1   C20 7044   0.593   2.068   8.796 -0.2138 -0.0097  0.3775
   62CHL1   H20 7045   0.548   2.164   8.828  1.0146  1.3116 -1.6240
   62CHL1   C21 7046   0.478   1.995   8.710 -0.4085  0.3606  0.7841
   62CHL1  H21A 7047   0.391   1.992   8.778 -1.1378  1.2938 -0.0703
   62CHL1  H21B 7048   0.508   1.897   8.668  1.2480  1.8940 -1.9222
   62CHL1  H21C 7049   0.451   2.067   8.629  0.2849  1.4749  1.5211
   62CHL1   C22 7050   0.715   2.104   8.705 -0.6965 -0.4474  0.8113
   62CHL1  H22A 7051   0.796   2.151   8.765 -1.5930  1.9470  0.2703
   62CHL1  H22B 7052   0.757   2.017   8.650 -0.0270  1.3354 -1.6683
   62CHL1   C23 7053   0.669   2.203   8.604  0.3571  0.0631 -0.2377
   62CHL1  H23A 7054   0.607   2.147   8.531 -0.6362 -0.7867  1.1944
   62CHL1  H23B 7055   0.602   2.283   8.643 -2.0496 -2.7800  1.8325
   62CHL1   C24 7056   0.789   2.279   8.539  0.1450 -0.2831  0.0171
   62CHL1  H24A 7057   0.865   2.310   8.614 -0.5783 -0.2732  0.7740
   62CHL1  H24B 7058   0.836   2.217   8.460  0.6599  2.1699 -1.7144
   62CHL1   C25 7059   0.743   2.416   8.472  0.1271 -1.1375 -0.3368
   62CHL1   H25 7060   0.717   2.485   8.555  0.2747 -2.8140  1.1884
   62CHL1   C26 7061   0.867   2.477   8.404  0.0752 -0.2116  0.4111
   62CHL1  H26A 7062   0.894   2.402   8.327 -0.9664 -0.3457  0.1692
   62CHL1  H26B 7063   0.839   2.573   8.357  0.5247  0.8062  2.1208
   62CHL1  H26C 7064   0.959   2.485   8.467  1.3275  1.4135 -1.4885
   62CHL1   C27 7065   0.643   2.404   8.367 -0.5496  0.9252 -0.5215
   62CHL1  H27A 7066   0.546   2.368   8.409 -0.6215  0.2846 -1.1929
   62CHL1  H27B 7067   0.609   2.500   8.324 -0.5954  1.2768  0.2956
   62CHL1  H27C 7068   0.676   2.330   8.291  0.5059  0.2626  0.5480
   63CHL1    C3 7069   1.587   3.725   9.603 -0.4827  0.1307 -0.8568
   63CHL1    H3 7070   1.690   3.718   9.562 -0.3781 -2.4945 -0.2994
   63CHL1    O3 7071   1.593   3.729   9.745  0.3685  0.4405  0.1625
   63CHL1   H3' 7072   1.679   3.695   9.771  0.3805  0.2984 -0.0670
   63CHL1    C4 7073   1.533   3.859   9.549 -0.0204 -0.2513 -0.0368
   63CHL1   H4A 7074   1.435   3.878   9.598 -0.5753 -0.1891 -1.1418
   63CHL1   H4B 7075   1.603   3.934   9.589 -0.8097 -0.1751  1.2635
   63CHL1    C5 7076   1.526   3.852   9.397  0.0742 -0.1171  0.9294
   63CHL1    C6 7077   1.593   3.944   9.316  0.5225 -0.1859 -0.3817
   63CHL1    H6 7078   1.659   4.016   9.367  1.0727 -2.2094  1.9748
   63CHL1    C7 7079   1.578   3.945   9.166 -0.4648  0.0595  0.0301
   63CHL1   H7A 7080   1.564   4.049   9.131  0.6966 -0.1731 -1.2159
   63CHL1   H7B 7081   1.675   3.909   9.124 -0.1255  1.3990 -0.3814
   63CHL1    C8 7082   1.466   3.852   9.120  0.4333  0.1064 -1.0601
   63CHL1    H8 7083   1.369   3.901   9.142  1.7832  3.6425 -2.3811
   63CHL1   C14 7084   1.477   3.830   8.968 -0.3130 -0.6277 -0.5535
   63CHL1   H14 7085   1.573   3.774   8.956  1.1800  2.0900 -2.5070
   63CHL1   C15 7086   1.512   3.941   8.869  0.3017  0.2938 -0.0110
   63CHL1  H15A 7087   1.447   4.030   8.884  0.1779  0.5107 -1.6672
   63CHL1  H15B 7088   1.618   3.969   8.886 -0.0500  1.5829  0.1762
   63CHL1   C16 7089   1.477   3.894   8.726 -0.2320 -0.0090 -0.5107
   63CHL1  H16A 7090   1.410   3.968   8.677 -0.9638 -0.2661  0.0830
   63CHL1  H16B 7091   1.579   3.883   8.683  0.8052 -0.9290  1.9965
   63CHL1   C17 7092   1.412   3.752   8.746 -0.2830 -0.2817  0.3382
   63CHL1   H17 7093   1.500   3.684   8.739  0.2575  0.4654 -0.3546
   63CHL1   C13 7094   1.368   3.752   8.892  0.0912 -0.3935 -0.6334
   63CHL1   C18 7095   1.232   3.827   8.907 -0.9246 -0.4866 -0.1126
   63CHL1  H18A 7096   1.245   3.929   8.865 -0.5465 -0.3699  0.2754
   63CHL1  H18B 7097   1.154   3.767   8.855 -0.8308  0.6006 -1.5813
   63CHL1  H18C 7098   1.199   3.838   9.013  0.9965  0.6911  0.4164
   63CHL1   C12 7099   1.358   3.612   8.965 -0.3329  0.8839 -0.0408
   63CHL1  H12A 7100   1.266   3.566   8.922 -0.5793  3.0971 -2.0479
   63CHL1  H12B 7101   1.450   3.554   8.943 -0.8344  0.0763 -0.0682
   63CHL1   C11 7102   1.347   3.623   9.122  0.5692 -0.0265  0.2936
   63CHL1  H11A 7103   1.243   3.651   9.146 -0.1877 -0.8157 -1.8218
   63CHL1  H11B 7104   1.361   3.520   9.160 -0.7240  0.4340  2.1298
   63CHL1    C9 7105   1.452   3.718   9.188  0.3102  0.1489  0.2643
   63CHL1    H9 7106   1.551   3.676   9.163  0.6978  0.9666  0.4123
   63CHL1   C10 7107   1.435   3.730   9.338 -0.3600 -0.3476  0.1066
   63CHL1   C19 7108   1.286   3.758   9.378  0.7309 -0.0592  0.2651
   63CHL1  H19A 7109   1.241   3.846   9.325 -2.2845 -1.1593  0.7677
   63CHL1  H19B 7110   1.223   3.669   9.357  1.7110 -0.4756 -1.0604
   63CHL1  H19C 7111   1.272   3.776   9.486 -0.5923  0.4177  0.0455
   63CHL1    C1 7112   1.484   3.597   9.410  0.3621  0.3476 -0.3057
   63CHL1   H1A 7113   1.403   3.527   9.381  1.2698 -1.0918  0.4477
   63CHL1   H1B 7114   1.580   3.561   9.367  0.7545 -0.7954  1.4248
   63CHL1    C2 7115   1.501   3.606   9.558 -0.5447 -0.4754 -0.1755
   63CHL1   H2A 7116   1.552   3.511   9.584 -0.0693 -0.4479 -0.9636
   63CHL1   H2B 7117   1.403   3.609   9.609 -1.0483  0.4546 -1.1683
   63CHL1   C20 7118   1.307   3.726   8.647 -0.0033  0.8651 -0.8923
   63CHL1   H20 7119   1.222   3.793   8.670  1.1674  1.8711  0.7906
   63CHL1   C21 7120   1.262   3.580   8.643 -0.0123  0.8154  0.4083
   63CHL1  H21A 7121   1.353   3.517   8.629 -0.1280  1.0959 -2.3080
   63CHL1  H21B 7122   1.198   3.556   8.555  0.5310 -1.9705  0.6792
   63CHL1  H21C 7123   1.203   3.551   8.732 -1.2752  0.4714 -0.5154
   63CHL1   C22 7124   1.346   3.761   8.506  0.2091 -0.2767  0.8939
   63CHL1  H22A 7125   1.256   3.735   8.446 -0.0556  0.2037  1.0860
   63CHL1  H22B 7126   1.370   3.868   8.488  0.9543 -0.6405 -0.4916
   63CHL1   C23 7127   1.459   3.669   8.446 -0.1233  0.6925  0.1796
   63CHL1  H23A 7128   1.547   3.691   8.510 -0.9664  1.1386  1.2233
   63CHL1  H23B 7129   1.434   3.561   8.459 -0.0256  0.5325 -0.8731
   63CHL1   C24 7130   1.500   3.707   8.301  0.8427  0.4509  0.5540
   63CHL1  H24A 7131   1.570   3.634   8.256  0.0203 -0.5283  0.8206
   63CHL1  H24B 7132   1.402   3.691   8.251 -0.9750 -0.5099  4.1136
   63CHL1   C25 7133   1.557   3.849   8.286 -0.2712  0.0085 -0.1871
   63CHL1   H25 7134   1.490   3.923   8.335  1.2584 -0.0068  2.0777
   63CHL1   C26 7135   1.689   3.871   8.354 -0.8819  0.4127  0.3531
   63CHL1  H26A 7136   1.710   3.980   8.367 -3.3087  1.2085 -1.5708
   63CHL1  H26B 7137   1.699   3.826   8.455 -2.3824  1.3840  0.9689
   63CHL1  H26C 7138   1.775   3.834   8.294 -0.9485 -1.9917  1.6118
   63CHL1   C27 7139   1.564   3.892   8.134 -0.0573  0.4199  0.2823
   63CHL1  H27A 7140   1.638   3.830   8.078  0.8228  0.7358  1.0614
   63CHL1  H27B 7141   1.464   3.867   8.092  0.8426 -2.1369 -0.5496
   63CHL1  H27C 7142   1.584   4.001   8.132  0.0116  0.4157  0.6094
   64CHL1    C3 7143   1.585   2.985   9.616 -0.8021 -0.5493 -1.0702
   64CHL1    H3 7144   1.592   2.880   9.579 -2.3316 -0.4988 -1.5786
   64CHL1    O3 7145   1.604   2.991   9.754  0.0747 -0.2001  0.0697
   64CHL1   H3' 7146   1.592   2.901   9.785 -0.8808 -0.2574 -0.4121
   64CHL1    C4 7147   1.689   3.070   9.553 -0.8777 -1.6218  0.6475
   64CHL1   H4A 7148   1.674   3.177   9.577 -1.8143 -1.4280 -0.6857
   64CHL1   H4B 7149   1.791   3.041   9.586  0.1126 -1.4626 -2.0336
   64CHL1    C5 7150   1.682   3.062   9.403  0.3389  0.1900 -0.0650
   64CHL1    C6 7151   1.783   3.020   9.330 -0.6045 -0.5964  0.1695
   64CHL1    H6 7152   1.875   2.983   9.379 -0.5994 -2.6073 -1.2277
   64CHL1    C7 7153   1.796   3.027   9.184  0.4417  0.0538  0.3697
   64CHL1   H7A 7154   1.886   3.079   9.145 -1.0603  2.1540 -0.5119
   64CHL1   H7B 7155   1.807   2.922   9.151  1.0623  0.2628 -0.1023
   64CHL1    C8 7156   1.668   3.094   9.125 -0.1023  0.0878  0.5021
   64CHL1    H8 7157   1.682   3.204   9.131 -0.9367  0.1622  1.3278
   64CHL1   C14 7158   1.659   3.051   8.973 -0.2484 -0.3128 -0.6133
   64CHL1   H14 7159   1.641   2.942   8.965 -0.4222 -0.3099 -0.3068
   64CHL1   C15 7160   1.783   3.075   8.884  0.0207  0.7227  0.7167
   64CHL1  H15A 7161   1.833   3.168   8.920  1.7630 -1.1384  3.4622
   64CHL1  H15B 7162   1.860   3.000   8.911  1.3002  2.0295  0.8336
   64CHL1   C16 7163   1.728   3.069   8.742 -0.4509  0.2446 -0.1609
   64CHL1  H16A 7164   1.774   3.147   8.677  1.3734 -0.6800 -0.0221
   64CHL1  H16B 7165   1.741   2.974   8.687 -3.4880 -1.7231  2.1733
   64CHL1   C17 7166   1.575   3.075   8.754 -0.0847  0.5427 -0.8794
   64CHL1   H17 7167   1.541   2.969   8.752 -1.8996  1.0831 -2.9861
   64CHL1   C13 7168   1.545   3.122   8.897 -0.0715  0.9606 -0.1499
   64CHL1   C18 7169   1.549   3.279   8.897  0.3452 -0.2304  0.5548
   64CHL1  H18A 7170   1.570   3.309   9.002  2.2620  0.1364  0.1111
   64CHL1  H18B 7171   1.632   3.325   8.839  2.1620 -2.1413  1.4923
   64CHL1  H18C 7172   1.449   3.314   8.864  0.7423 -0.9404 -1.5648
   64CHL1   C12 7173   1.411   3.078   8.971  0.6545 -0.9881  0.3980
   64CHL1  H12A 7174   1.316   3.114   8.925 -1.5474 -2.3813  3.5145
   64CHL1  H12B 7175   1.404   2.967   8.970  3.0838 -1.1986  0.6662
   64CHL1   C11 7176   1.410   3.130   9.111  0.0665 -0.0871 -0.3111
   64CHL1  H11A 7177   1.409   3.241   9.124  0.4115 -0.1041 -0.1099
   64CHL1  H11B 7178   1.318   3.094   9.162  0.0316  1.9107  1.1697
   64CHL1    C9 7179   1.530   3.066   9.192 -1.1227 -0.7876  0.6905
   64CHL1    H9 7180   1.518   2.958   9.168 -1.8416 -0.5121 -0.2720
   64CHL1   C10 7181   1.547   3.098   9.346  0.7897  0.7026 -0.4081
   64CHL1   C19 7182   1.524   3.248   9.364  1.4554  0.1267 -0.3826
   64CHL1  H19A 7183   1.522   3.284   9.469  0.8439  0.4776 -0.5079
   64CHL1  H19B 7184   1.607   3.309   9.323  1.7195  0.1849  0.2185
   64CHL1  H19C 7185   1.428   3.280   9.318  0.4770  0.7328  1.9255
   64CHL1    C1 7186   1.433   3.024   9.425  0.5905  0.4303  0.6530
   64CHL1   H1A 7187   1.335   3.065   9.395  0.8381  0.2655 -0.3989
   64CHL1   H1B 7188   1.433   2.915   9.403 -2.0239  0.2392  1.3568
   64CHL1    C2 7189   1.451   3.039   9.571  0.3787  0.0482  0.4493
   64CHL1   H2A 7190   1.383   2.974   9.630  1.4126 -1.9358 -0.4933
   64CHL1   H2B 7191   1.442   3.147   9.598 -0.7906  0.4442 -1.3440
   64CHL1   C20 7192   1.513   3.145   8.635 -0.5248 -0.1377 -0.0633
   64CHL1   H20 7193   1.515   3.254   8.657 -1.4804 -0.1519  0.1596
   64CHL1   C21 7194   1.364   3.111   8.629 -0.5099  0.1127 -0.1134
   64CHL1  H21A 7195   1.307   3.155   8.545  0.8678 -0.3322 -1.3319
   64CHL1  H21B 7196   1.302   3.141   8.716 -1.2498  1.8981 -1.1965
   64CHL1  H21C 7197   1.353   3.001   8.630 -0.5434  0.1087  1.1213
   64CHL1   C22 7198   1.574   3.104   8.495 -0.2783 -1.1198  0.5587
   64CHL1  H22A 7199   1.680   3.134   8.485  0.0246 -2.4353 -0.4283
   64CHL1  H22B 7200   1.566   2.996   8.470 -0.9818 -0.9001 -0.2270
   64CHL1   C23 7201   1.514   3.180   8.373 -0.0832  0.1920 -0.7708
   64CHL1  H23A 7202   1.412   3.137   8.366  0.7311 -2.3266  1.1353
   64CHL1  H23B 7203   1.513   3.288   8.400  0.3235  0.3264 -1.2740
   64CHL1   C24 7204   1.587   3.153   8.235  0.4527 -0.6666  0.5146
   64CHL1  H24A 7205   1.693   3.181   8.249 -0.2417  1.4507  2.1905
   64CHL1  H24B 7206   1.589   3.046   8.205 -3.8004 -0.3851 -1.4930
   64CHL1   C25 7207   1.524   3.232   8.120  0.4804 -0.6480 -0.1946
   64CHL1   H25 7208   1.413   3.234   8.129  0.5422  2.2682  0.9830
   64CHL1   C26 7209   1.569   3.380   8.140  0.3212  0.1436 -0.0919
   64CHL1  H26A 7210   1.533   3.441   8.055  0.3396  1.0707  0.5532
   64CHL1  H26B 7211   1.526   3.421   8.234 -2.3249 -0.3800 -0.9793
   64CHL1  H26C 7212   1.679   3.391   8.129  0.3750  0.6544  0.8177
   64CHL1   C27 7213   1.569   3.168   7.989  0.3028  0.2383 -0.3459
   64CHL1  H27A 7214   1.529   3.066   7.973 -0.1978  0.0303  1.8469
   64CHL1  H27B 7215   1.525   3.230   7.908  2.1680 -1.3572 -2.7317
   64CHL1  H27C 7216   1.680   3.163   7.991  0.7403  5.2105 -0.4472
   65CHL1    C3 7217   4.862   6.750  10.191 -0.1733 -0.5365 -0.0836
   65CHL1    H3 7218   4.752   6.733  10.200 -0.2663 -0.7633 -1.4371
   65CHL1    O3 7219   4.911   6.736  10.323 -0.4117 -0.5885 -0.4842
   65CHL1   H3' 7220   5.002   6.766  10.313 -1.1120  1.2194 -2.3088
   65CHL1    C4 7221   4.933   6.642  10.101  0.1943  1.2770  0.2620
   65CHL1   H4A 7222   5.043   6.654  10.108  0.3861 -0.1298  0.0777
   65CHL1   H4B 7223   4.920   6.544  10.152  0.9636  0.4429 -1.0926
   65CHL1    C5 7224   4.878   6.638   9.956  0.3327 -0.3956 -0.4347
   65CHL1    C6 7225   4.819   6.532   9.903  0.2419  0.0672  0.7916
   65CHL1    H6 7226   4.802   6.438   9.956 -0.4409 -0.8705 -0.9960
   65CHL1    C7 7227   4.759   6.545   9.762  0.0830 -0.1174 -0.5474
   65CHL1   H7A 7228   4.779   6.446   9.716  1.0431 -0.3239  0.2931
   65CHL1   H7B 7229   4.648   6.552   9.764 -0.0458 -1.3626 -1.8787
   65CHL1    C8 7230   4.815   6.669   9.682 -0.2394  0.5586 -0.3600
   65CHL1    H8 7231   4.923   6.655   9.662  0.3595  2.1866  1.4473
   65CHL1   C14 7232   4.730   6.690   9.558 -0.5027  0.9338 -0.3206
   65CHL1   H14 7233   4.634   6.728   9.601 -0.9902  0.1015 -0.6461
   65CHL1   C15 7234   4.701   6.570   9.473  0.6329 -0.0129  0.5020
   65CHL1  H15A 7235   4.800   6.520   9.460  1.1762  0.8966  1.0811
   65CHL1  H15B 7236   4.627   6.494   9.507 -0.0520 -0.4815 -1.8267
   65CHL1   C16 7237   4.647   6.639   9.347 -0.0143  0.2883 -0.5596
   65CHL1  H16A 7238   4.711   6.598   9.266  1.4231 -1.0838  1.2124
   65CHL1  H16B 7239   4.539   6.619   9.328 -0.0952 -1.6901  1.6341
   65CHL1   C17 7240   4.674   6.791   9.360  0.5694  0.2040  0.4836
   65CHL1   H17 7241   4.582   6.831   9.409  0.8133 -0.2425  1.3318
   65CHL1   C13 7242   4.778   6.811   9.468 -0.2663  0.0955 -0.4187
   65CHL1   C18 7243   4.923   6.789   9.402  0.5100  0.1560 -1.2213
   65CHL1  H18A 7244   4.992   6.776   9.488 -1.2856  1.5934  0.5418
   65CHL1  H18B 7245   4.922   6.694   9.346  0.7638 -0.7605  0.2675
   65CHL1  H18C 7246   4.931   6.880   9.339 -1.0718 -0.3082 -2.1347
   65CHL1   C12 7247   4.767   6.941   9.545  0.0760 -0.1276 -0.1480
   65CHL1  H12A 7248   4.809   7.027   9.487 -0.0481  1.8269  2.4763
   65CHL1  H12B 7249   4.659   6.959   9.564  0.2333 -0.3359  0.9825
   65CHL1   C11 7250   4.844   6.928   9.680  0.0733 -0.1918  0.4745
   65CHL1  H11A 7251   4.954   6.940   9.669  0.0936 -0.2052  0.6586
   65CHL1  H11B 7252   4.801   7.005   9.747 -0.2590 -1.0451  1.2503
   65CHL1    C9 7253   4.813   6.798   9.765  0.5298 -0.1513  0.3737
   65CHL1    H9 7254   4.708   6.818   9.795  0.4325 -0.4547  0.2455
   65CHL1   C10 7255   4.898   6.780   9.895  0.7738 -0.6854 -0.7293
   65CHL1   C19 7256   5.052   6.803   9.863  0.0106  0.0349 -0.0474
   65CHL1  H19A 7257   5.086   6.909   9.855  1.3755 -0.4906 -1.6885
   65CHL1  H19B 7258   5.109   6.769   9.952  1.1335  0.6009 -0.5277
   65CHL1  H19C 7259   5.083   6.759   9.766 -2.9695 -1.1737 -0.5604
   65CHL1    C1 7260   4.847   6.892   9.995  0.8566 -0.9490 -0.3033
   65CHL1   H1A 7261   4.881   6.992   9.960  1.3487 -0.0469  2.4284
   65CHL1   H1B 7262   4.736   6.888   9.995  0.8504 -0.7774 -0.6797
   65CHL1    C2 7263   4.895   6.889  10.138  0.2534 -0.5370  0.2219
   65CHL1   H2A 7264   4.827   6.966  10.180 -0.6012  0.7728 -3.1916
   65CHL1   H2B 7265   5.001   6.921  10.135 -0.0927  0.7084 -2.9901
   65CHL1   C20 7266   4.687   6.861   9.226 -0.4053 -0.0484 -0.0489
   65CHL1   H20 7267   4.780   6.835   9.171 -0.8142 -0.3096 -0.6265
   65CHL1   C21 7268   4.690   7.017   9.245  0.1724  0.6742  0.1216
   65CHL1  H21A 7269   4.793   7.053   9.268 -0.4948  2.7803 -0.0754
   65CHL1  H21B 7270   4.605   7.046   9.310  0.6134  2.0365  0.1142
   65CHL1  H21C 7271   4.655   7.063   9.150 -0.7356 -2.2516 -1.0921
   65CHL1   C22 7272   4.570   6.827   9.130 -0.2128 -0.5265 -0.4780
   65CHL1  H22A 7273   4.550   6.718   9.123 -1.2446 -0.3665 -0.0801
   65CHL1  H22B 7274   4.480   6.882   9.163 -0.9081 -1.3079 -1.0369
   65CHL1   C23 7275   4.595   6.871   8.982  0.1607  0.3296  0.1670
   65CHL1  H23A 7276   4.580   6.981   8.974 -0.1192  0.3995  1.3895
   65CHL1  H23B 7277   4.700   6.847   8.955 -0.7684 -5.5514  0.3984
   65CHL1   C24 7278   4.505   6.806   8.883  0.1301  0.5783 -0.6940
   65CHL1  H24A 7279   4.511   6.696   8.899 -0.5195  0.7675  0.9667
   65CHL1  H24B 7280   4.398   6.835   8.888 -0.5688 -1.5474 -1.6639
   65CHL1   C25 7281   4.536   6.823   8.734  0.7100  0.1309  0.1096
   65CHL1   H25 7282   4.527   6.931   8.711 -1.1166  0.3625  1.6983
   65CHL1   C26 7283   4.679   6.783   8.694 -0.5013  1.1891 -0.0643
   65CHL1  H26A 7284   4.684   6.771   8.584 -2.0740  0.2387 -0.0623
   65CHL1  H26B 7285   4.754   6.860   8.722 -0.1415  1.6388 -2.1230
   65CHL1  H26C 7286   4.702   6.679   8.727 -3.7919  1.1763  2.6285
   65CHL1   C27 7287   4.425   6.737   8.657 -0.5345  0.7258  0.4748
   65CHL1  H27A 7288   4.328   6.780   8.692 -0.4342  1.7480 -0.4490
   65CHL1  H27B 7289   4.431   6.738   8.546  2.0945 -1.5356  0.4958
   65CHL1  H27C 7290   4.438   6.632   8.690 -0.6643  0.9314  1.2233
   66CHL1    C3 7291   1.135   4.843   9.480 -0.0057 -0.1591  0.2935
   66CHL1    H3 7292   1.212   4.923   9.474 -0.7625  0.5741  0.2247
   66CHL1    O3 7293   1.075   4.870   9.609 -0.1622 -0.1309  0.1485
   66CHL1   H3' 7294   1.144   4.854   9.674 -0.3678 -0.0447  0.3907
   66CHL1    C4 7295   1.025   4.885   9.371  0.1280 -0.4512  0.1262
   66CHL1   H4A 7296   0.941   4.813   9.384  0.3115 -0.3352  2.4208
   66CHL1   H4B 7297   0.990   4.988   9.392 -1.1746 -0.5659 -1.2548
   66CHL1    C5 7298   1.086   4.860   9.230  0.0528  0.6969 -0.1340
   66CHL1    C6 7299   1.096   4.962   9.140  0.2812  0.4641  0.8861
   66CHL1    H6 7300   1.044   5.057   9.161  0.4246  1.3724 -2.2595
   66CHL1    C7 7301   1.161   4.957   9.001  0.0630 -0.1459  0.0671
   66CHL1   H7A 7302   1.096   4.998   8.922  1.5359  0.1495 -1.0425
   66CHL1   H7B 7303   1.261   5.006   9.006  0.0145  0.3272 -2.4137
   66CHL1    C8 7304   1.188   4.817   8.959  0.0645  0.7447  0.1631
   66CHL1    H8 7305   1.091   4.770   8.932  0.7629 -1.9577  1.9498
   66CHL1   C14 7306   1.296   4.821   8.848 -0.0441 -0.0615 -0.0542
   66CHL1   H14 7307   1.387   4.858   8.899  0.3875 -2.4656  1.0333
   66CHL1   C15 7308   1.284   4.927   8.727 -0.7397  0.4192 -0.1168
   66CHL1  H15A 7309   1.180   4.919   8.690  0.1194  2.3565 -3.3400
   66CHL1  H15B 7310   1.311   5.026   8.769 -0.2647  0.3593 -0.2670
   66CHL1   C16 7311   1.376   4.866   8.617 -0.2974 -0.4910 -0.3998
   66CHL1  H16A 7312   1.318   4.839   8.526 -0.4519 -0.3055 -0.3569
   66CHL1  H16B 7313   1.451   4.939   8.578 -1.3271  1.1093  0.5181
   66CHL1   C17 7314   1.432   4.739   8.680  0.2087 -0.1931 -0.1375
   66CHL1   H17 7315   1.521   4.764   8.741  0.9103  1.1100 -1.6316
   66CHL1   C13 7316   1.327   4.691   8.783 -0.3996  0.9756 -0.1178
   66CHL1   C18 7317   1.207   4.636   8.715  0.1697 -0.4993  0.1291
   66CHL1  H18A 7318   1.229   4.537   8.671 -0.5979 -0.1935 -0.9811
   66CHL1  H18B 7319   1.129   4.617   8.792 -0.5441  0.9008 -0.1961
   66CHL1  H18C 7320   1.164   4.706   8.640  1.8285 -1.2042 -1.5729
   66CHL1   C12 7321   1.379   4.599   8.897 -0.5320 -0.0566 -0.1438
   66CHL1  H12A 7322   1.401   4.496   8.861  1.5323  0.4398 -0.4287
   66CHL1  H12B 7323   1.471   4.640   8.945 -0.8877  0.1205  0.3968
   66CHL1   C11 7324   1.277   4.596   9.010  0.6859  0.6284 -0.4174
   66CHL1  H11A 7325   1.180   4.559   8.969  0.6828  1.8542 -1.5546
   66CHL1  H11B 7326   1.310   4.525   9.089 -0.1170 -0.8822 -1.3916
   66CHL1    C9 7327   1.244   4.733   9.070 -0.5042  0.2174  0.4228
   66CHL1    H9 7328   1.343   4.771   9.102  1.5085 -3.8818 -0.3350
   66CHL1   C10 7329   1.154   4.722   9.195 -0.0455  0.2362 -0.7512
   66CHL1   C19 7330   1.047   4.615   9.174 -0.4336 -1.1415  0.5942
   66CHL1  H19A 7331   0.993   4.642   9.081  1.2751  0.8488  0.0863
   66CHL1  H19B 7332   1.103   4.519   9.175  0.8993 -0.3965  0.8635
   66CHL1  H19C 7333   0.984   4.614   9.266  1.8256 -1.1182  2.2214
   66CHL1    C1 7334   1.243   4.674   9.316  0.2829  0.3453 -0.2435
   66CHL1   H1A 7335   1.290   4.575   9.300  0.7578  0.2445  1.5850
   66CHL1   H1B 7336   1.324   4.748   9.302 -1.4011  1.9706 -1.9330
   66CHL1    C2 7337   1.184   4.702   9.460  0.7417 -0.1726 -0.6506
   66CHL1   H2A 7338   1.260   4.689   9.541 -0.4949  0.1702  0.6010
   66CHL1   H2B 7339   1.099   4.634   9.478  0.6446 -0.4481 -2.0472
   66CHL1   C20 7340   1.493   4.637   8.578 -0.4301  0.0832 -0.7820
   66CHL1   H20 7341   1.520   4.547   8.637  1.0614  1.5632  0.8888
   66CHL1   C21 7342   1.636   4.680   8.526 -0.4272  0.2409  0.6011
   66CHL1  H21A 7343   1.619   4.780   8.481  1.7072  1.5765  2.5271
   66CHL1  H21B 7344   1.666   4.605   8.450  1.4832  1.7109 -0.1839
   66CHL1  H21C 7345   1.709   4.670   8.610  0.7081 -0.6463 -0.4607
   66CHL1   C22 7346   1.404   4.605   8.454 -0.1356  0.3291 -0.4412
   66CHL1  H22A 7347   1.300   4.583   8.485  0.6303 -2.9766  0.1446
   66CHL1  H22B 7348   1.417   4.686   8.379  0.6073 -0.2146 -0.9042
   66CHL1   C23 7349   1.437   4.484   8.384  0.7593  0.9294  0.4210
   66CHL1  H23A 7350   1.543   4.471   8.352 -0.0034 -1.2248 -1.4594
   66CHL1  H23B 7351   1.410   4.401   8.452  2.4774  0.5702  0.7244
   66CHL1   C24 7352   1.360   4.460   8.249 -1.0111  0.4267  0.5037
   66CHL1  H24A 7353   1.251   4.468   8.270 -1.3975  1.0689 -1.5187
   66CHL1  H24B 7354   1.400   4.542   8.185  2.4937 -0.4965  1.3204
   66CHL1   C25 7355   1.402   4.327   8.186 -0.3904  0.0429 -0.4705
   66CHL1   H25 7356   1.341   4.321   8.093 -2.9887  0.2042  1.1086
   66CHL1   C26 7357   1.550   4.323   8.142  0.1578 -0.3984  0.0778
   66CHL1  H26A 7358   1.564   4.404   8.067  0.5320  0.4893  1.0767
   66CHL1  H26B 7359   1.616   4.336   8.230  1.5353 -0.1127 -0.9629
   66CHL1  H26C 7360   1.569   4.224   8.095  2.5214 -0.7506  1.6059
   66CHL1   C27 7361   1.354   4.207   8.271  0.3332 -0.2109  0.0067
   66CHL1  H27A 7362   1.250   4.229   8.305 -0.7149 -1.3227 -2.2431
   66CHL1  H27B 7363   1.370   4.114   8.212 -0.7118 -0.9407  0.8314
   66CHL1  H27C 7364   1.418   4.212   8.362 -1.1932  3.4903  1.0771
   67CHL1    C3 7365   5.632   5.237   9.399 -0.1023 -0.7724  0.8404
   67CHL1    H3 7366   5.615   5.133   9.435 -1.1582 -0.7934  0.2962
   67CHL1    O3 7367   5.698   5.317   9.495 -0.0811  0.4856  0.1666
   67CHL1   H3' 7368   5.746   5.252   9.547 -2.2404 -0.3766  1.1715
   67CHL1    C4 7369   5.723   5.237   9.272  0.1988 -0.0304  0.2858
   67CHL1   H4A 7370   5.743   5.344   9.253  0.3253  0.0290  0.7426
   67CHL1   H4B 7371   5.820   5.189   9.299 -0.8342 -1.3920  1.8231
   67CHL1    C5 7372   5.657   5.169   9.151 -0.1359 -0.5200 -0.0209
   67CHL1    C6 7373   5.710   5.064   9.091  0.1228 -0.4020  0.4193
   67CHL1    H6 7374   5.797   5.012   9.133 -0.1111 -1.6726 -0.5952
   67CHL1    C7 7375   5.656   5.016   8.964 -0.5510  0.1989 -0.0175
   67CHL1   H7A 7376   5.742   4.994   8.898  1.7473 -0.2245  2.8977
   67CHL1   H7B 7377   5.610   4.920   8.995  0.7509  0.1210  1.8384
   67CHL1    C8 7378   5.553   5.106   8.893 -0.4623 -0.0726  0.3177
   67CHL1    H8 7379   5.606   5.197   8.857  1.6666 -1.1137  0.6662
   67CHL1   C14 7380   5.483   5.026   8.780  1.0058  0.0017 -0.1184
   67CHL1   H14 7381   5.433   4.940   8.829  2.6100 -0.8866  0.0507
   67CHL1   C15 7382   5.574   4.971   8.672 -0.0977  0.7493 -0.6547
   67CHL1  H15A 7383   5.646   5.043   8.627  0.0731  0.5280 -0.7397
   67CHL1  H15B 7384   5.629   4.884   8.714 -2.4808  0.2186  1.5795
   67CHL1   C16 7385   5.467   4.932   8.561 -0.3293  0.2047  0.3996
   67CHL1  H16A 7386   5.503   4.977   8.466  0.5322  0.7682  0.9795
   67CHL1  H16B 7387   5.449   4.825   8.536 -2.1115  0.3960  0.6993
   67CHL1   C17 7388   5.323   4.994   8.594  0.0303  0.0287  0.5609
   67CHL1   H17 7389   5.274   4.908   8.645  1.1328 -0.4424  0.8520
   67CHL1   C13 7390   5.366   5.088   8.709  0.8220  0.1041 -1.0618
   67CHL1   C18 7391   5.413   5.219   8.642 -0.2067  0.3384 -0.0405
   67CHL1  H18A 7392   5.331   5.261   8.581 -0.2936  0.2104 -0.0112
   67CHL1  H18B 7393   5.452   5.292   8.717 -2.7486  0.1625  1.5583
   67CHL1  H18C 7394   5.500   5.193   8.578 -0.3307  1.7095 -0.8080
   67CHL1   C12 7395   5.259   5.114   8.823  0.1567 -0.0377 -0.5407
   67CHL1  H12A 7396   5.171   5.168   8.781  0.4318 -0.1542 -1.2813
   67CHL1  H12B 7397   5.215   5.017   8.856 -1.1420  0.7153  0.0565
   67CHL1   C11 7398   5.314   5.205   8.937 -0.4082 -0.0585  0.1264
   67CHL1  H11A 7399   5.339   5.302   8.890 -0.4824  0.1289  0.4675
   67CHL1  H11B 7400   5.245   5.209   9.024 -1.0002  0.4481 -0.3603
   67CHL1    C9 7401   5.450   5.149   8.995 -0.5815 -0.5518 -0.3652
   67CHL1    H9 7402   5.417   5.053   9.040  0.0745  0.2299  1.9222
   67CHL1   C10 7403   5.523   5.231   9.112  0.2972  1.1059  0.1470
   67CHL1   C19 7404   5.540   5.380   9.057 -0.0628  0.4108  0.0653
   67CHL1  H19A 7405   5.632   5.388   8.995  0.6105  2.2380  1.2086
   67CHL1  H19B 7406   5.456   5.416   8.994  1.7223  0.4055 -2.4854
   67CHL1  H19C 7407   5.553   5.452   9.140  1.1669 -0.1735  0.4016
   67CHL1    C1 7408   5.433   5.232   9.235 -0.3799 -0.3355 -0.2712
   67CHL1   H1A 7409   5.341   5.288   9.207  0.2278  0.9963  0.2995
   67CHL1   H1B 7410   5.399   5.131   9.266 -1.0764  0.1670  0.6697
   67CHL1    C2 7411   5.496   5.295   9.365  0.5535  0.3817 -0.0021
   67CHL1   H2A 7412   5.431   5.285   9.454  0.8881  1.1452  0.3337
   67CHL1   H2B 7413   5.503   5.406   9.355 -1.1654  0.5012 -0.2432
   67CHL1   C20 7414   5.240   5.050   8.469 -0.2346  0.2324  0.4552
   67CHL1   H20 7415   5.290   5.140   8.426  0.3654 -1.2655 -2.1976
   67CHL1   C21 7416   5.093   5.077   8.512 -0.1401 -0.1741 -0.2006
   67CHL1  H21A 7417   5.031   5.115   8.428 -1.4743 -1.2952  0.2414
   67CHL1  H21B 7418   5.079   5.156   8.589  0.1984  1.5912 -1.8788
   67CHL1  H21C 7419   5.057   4.982   8.558  2.1805 -0.8838  0.2845
   67CHL1   C22 7420   5.251   4.950   8.358  0.0185 -0.0599 -0.5998
   67CHL1  H22A 7421   5.215   5.000   8.265  0.8834  0.6018 -0.5928
   67CHL1  H22B 7422   5.357   4.929   8.333 -0.1029  0.2160 -1.3802
   67CHL1   C23 7423   5.178   4.815   8.386  0.2354 -0.7052  0.7945
   67CHL1  H23A 7424   5.218   4.771   8.479  0.9097 -0.8225  0.4551
   67CHL1  H23B 7425   5.073   4.849   8.393  1.0637  2.5482 -0.5666
   67CHL1   C24 7426   5.196   4.722   8.269 -0.6066 -0.0754 -0.5068
   67CHL1  H24A 7427   5.157   4.771   8.177  0.3081  1.3051 -0.1979
   67CHL1  H24B 7428   5.303   4.706   8.245 -0.5527  0.4775 -0.6586
   67CHL1   C25 7429   5.138   4.577   8.284 -0.3377 -0.1670  0.0004
   67CHL1   H25 7430   5.187   4.525   8.369  1.5791 -0.2311 -1.0967
   67CHL1   C26 7431   4.986   4.587   8.317  0.1630  0.5791 -0.0294
   67CHL1  H26A 7432   4.946   4.483   8.315  1.5573  0.0193 -0.3249
   67CHL1  H26B 7433   4.976   4.630   8.419  0.1341 -1.5154  0.8982
   67CHL1  H26C 7434   4.934   4.646   8.238  0.2501 -0.1270 -0.6343
   67CHL1   C27 7435   5.166   4.496   8.157  0.3620 -0.0626  0.0025
   67CHL1  H27A 7436   5.130   4.564   8.077  1.1675  1.2278  0.6944
   67CHL1  H27B 7437   5.273   4.474   8.135  0.4616 -0.0505  0.4595
   67CHL1  H27C 7438   5.106   4.403   8.164  2.4548 -1.3760  2.2052
   68CHL1    C3 7439   6.558   0.287  10.066  0.3590  0.0790 -0.0427
   68CHL1    H3 7440   6.661   0.316  10.036  0.7804 -1.9862 -0.7484
   68CHL1    O3 7441   6.556   0.294  10.205  0.1272  0.0707  0.3761
   68CHL1   H3' 7442   6.468   0.269  10.235 -0.0693  1.1992  0.8166
   68CHL1    C4 7443   6.451   0.384  10.007 -0.6886 -0.2452  0.1816
   68CHL1   H4A 7444   6.352   0.375  10.057 -0.1627 -0.9634  1.1132
   68CHL1   H4B 7445   6.500   0.479  10.038 -1.8501  0.0294  1.2634
   68CHL1    C5 7446   6.438   0.380   9.856  0.1203  0.1363  0.8054
   68CHL1    C6 7447   6.438   0.489   9.778 -0.4021  0.1246  0.8201
   68CHL1    H6 7448   6.459   0.586   9.825  0.2438  0.0977  0.6061
   68CHL1    C7 7449   6.419   0.483   9.633 -0.0365 -0.6994 -0.4795
   68CHL1   H7A 7450   6.331   0.544   9.604  0.4633 -0.4851 -1.6185
   68CHL1   H7B 7451   6.513   0.517   9.584 -1.3044  0.5992 -2.1296
   68CHL1    C8 7452   6.375   0.351   9.570 -0.0153 -0.0588 -0.0078
   68CHL1    H8 7453   6.265   0.343   9.582  0.0873 -1.3914  0.1613
   68CHL1   C14 7454   6.397   0.342   9.419  0.4626 -0.5876 -0.2143
   68CHL1   H14 7455   6.507   0.333   9.405  0.2766 -2.1973 -0.8381
   68CHL1   C15 7456   6.346   0.456   9.325  0.1531 -0.2966 -0.1485
   68CHL1  H15A 7457   6.249   0.488   9.370 -0.9444 -0.9487 -1.9685
   68CHL1  H15B 7458   6.420   0.539   9.318 -0.9743  0.5848 -2.7079
   68CHL1   C16 7459   6.322   0.380   9.192  0.1519 -0.1303 -0.0271
   68CHL1  H16A 7460   6.213   0.393   9.173  0.2157  0.6285  0.0787
   68CHL1  H16B 7461   6.387   0.426   9.115 -0.2869  2.0958  0.8305
   68CHL1   C17 7462   6.369   0.234   9.208 -0.1681 -0.2008 -0.4170
   68CHL1   H17 7463   6.479   0.226   9.197 -0.1403 -0.0436 -0.2489
   68CHL1   C13 7464   6.350   0.205   9.359  1.3139  0.1980  1.0807
   68CHL1   C18 7465   6.197   0.185   9.373  0.4503  0.7720 -0.2351
   68CHL1  H18A 7466   6.171   0.078   9.356 -1.8390  1.2199  0.1095
   68CHL1  H18B 7467   6.157   0.214   9.472  0.3246 -2.3241  0.7459
   68CHL1  H18C 7468   6.133   0.236   9.298 -1.2218 -1.5655 -0.4981
   68CHL1   C12 7469   6.431   0.093   9.424  0.4674  0.6632  0.7266
   68CHL1  H12A 7470   6.393  -0.007   9.394  1.6152 -0.4175  2.5842
   68CHL1  H12B 7471   6.538   0.107   9.397 -0.1851  0.4843 -2.3143
   68CHL1   C11 7472   6.396   0.089   9.574 -0.8657  0.2338  0.6008
   68CHL1  H11A 7473   6.289   0.067   9.593 -1.2460  0.3950 -1.1635
   68CHL1  H11B 7474   6.468   0.013   9.612  2.4685  2.2119 -1.3158
   68CHL1    C9 7475   6.439   0.223   9.639 -0.4573  0.2278  0.6367
   68CHL1    H9 7476   6.546   0.223   9.610 -0.3580  3.5654  0.6215
   68CHL1   C10 7477   6.426   0.226   9.798  0.1372 -0.5883  0.0394
   68CHL1   C19 7478   6.278   0.186   9.834 -0.4525  0.2941 -0.8819
   68CHL1  H19A 7479   6.258   0.084   9.794 -1.6986  0.0713  0.2493
   68CHL1  H19B 7480   6.266   0.194   9.944 -0.5510  0.8158 -0.9308
   68CHL1  H19C 7481   6.199   0.247   9.786 -2.4453  0.0633  1.8453
   68CHL1    C1 7482   6.526   0.131   9.866  0.1004  0.5791  0.7838
   68CHL1   H1A 7483   6.505   0.029   9.828  0.1275  1.1278 -0.7822
   68CHL1   H1B 7484   6.626   0.162   9.828 -0.8935  1.2002 -1.5084
   68CHL1    C2 7485   6.533   0.146  10.015 -0.2321 -0.3282 -0.0185
   68CHL1   H2A 7486   6.600   0.078  10.071 -1.3171 -0.9675  0.5468
   68CHL1   H2B 7487   6.437   0.116  10.063 -1.0708  0.2302 -1.2606
   68CHL1   C20 7488   6.304   0.146   9.105 -0.1552 -0.4671  0.1581
   68CHL1   H20 7489   6.194   0.161   9.096  0.2297  1.5009 -3.5448
   68CHL1   C21 7490   6.349  -0.003   9.122 -0.3422 -1.0964  0.8349
   68CHL1  H21A 7491   6.314  -0.049   9.217  1.8028 -0.4248  2.0076
   68CHL1  H21B 7492   6.458  -0.022   9.114  0.3835  1.7076  2.5339
   68CHL1  H21C 7493   6.292  -0.067   9.051  0.0981 -1.1586  0.5339
   68CHL1   C22 7494   6.347   0.197   8.969  0.6796 -0.0292  0.2086
   68CHL1  H22A 7495   6.289   0.288   8.942 -0.2608 -0.9426 -0.9549
   68CHL1  H22B 7496   6.455   0.220   8.955  0.2830  0.2898 -3.0846
   68CHL1   C23 7497   6.298   0.101   8.857  0.0905 -0.2030  0.5694
   68CHL1  H23A 7498   6.346   0.001   8.861 -0.8041 -0.6285  0.9761
   68CHL1  H23B 7499   6.187   0.096   8.868 -0.2621  3.5726 -0.0841
   68CHL1   C24 7500   6.321   0.177   8.721  0.7381  0.4277  0.1757
   68CHL1  H24A 7501   6.258   0.269   8.712 -0.1571 -0.2741 -1.1801
   68CHL1  H24B 7502   6.426   0.212   8.718  0.6498  0.6699 -0.2067
   68CHL1   C25 7503   6.281   0.107   8.595 -0.0290 -0.5267 -0.0357
   68CHL1   H25 7504   6.333   0.008   8.591  1.8811  0.4219  0.2473
   68CHL1   C26 7505   6.128   0.077   8.571  0.6222 -0.6856  0.6495
   68CHL1  H26A 7506   6.080   0.033   8.661  0.2576 -0.4625  0.5676
   68CHL1  H26B 7507   6.072   0.170   8.545 -2.3960 -2.5441  0.0765
   68CHL1  H26C 7508   6.115  -0.003   8.496 -0.8786  1.4614 -1.5232
   68CHL1   C27 7509   6.347   0.193   8.470  0.4827 -0.2591  0.2317
   68CHL1  H27A 7510   6.443   0.240   8.500  0.1962  0.1577  0.5024
   68CHL1  H27B 7511   6.374   0.117   8.393 -0.1921 -0.9035  0.6223
   68CHL1  H27C 7512   6.277   0.267   8.426  0.2685 -1.1668 -1.0464
   69CHL1    C3 7513   5.061   0.616   6.866 -1.3511 -0.0044 -0.3743
   69CHL1    H3 7514   5.171   0.617   6.848 -0.4154  0.4125  4.2048
   69CHL1    O3 7515   4.998   0.585   6.743 -0.1112 -0.0762  0.4479
   69CHL1   H3' 7516   4.904   0.606   6.747 -0.2007 -0.6483  2.4052
   69CHL1    C4 7517   5.030   0.509   6.976  0.0400 -0.5005  0.7685
   69CHL1   H4A 7518   4.924   0.476   6.970  1.1474 -4.2334 -1.9067
   69CHL1   H4B 7519   5.082   0.422   6.930  0.2113 -0.5284  1.0111
   69CHL1    C5 7520   5.069   0.546   7.113 -1.3617 -0.1950 -0.4465
   69CHL1    C6 7521   5.142   0.463   7.190 -0.0328 -0.1368 -0.5072
   69CHL1    H6 7522   5.175   0.365   7.155 -0.8881 -1.2280  1.5715
   69CHL1    C7 7523   5.198   0.496   7.332  0.3463 -0.0187  0.6152
   69CHL1   H7A 7524   5.181   0.403   7.390 -3.0111 -0.4684 -0.8525
   69CHL1   H7B 7525   5.307   0.515   7.337  1.0217 -2.2977 -2.4409
   69CHL1    C8 7526   5.118   0.614   7.392 -0.4927 -0.8296 -0.5525
   69CHL1    H8 7527   5.013   0.585   7.414 -0.3534  0.5388  2.3764
   69CHL1   C14 7528   5.196   0.668   7.515 -0.2496 -0.0330 -0.3598
   69CHL1   H14 7529   5.284   0.719   7.470 -0.5969  0.0884 -0.8967
   69CHL1   C15 7530   5.237   0.571   7.623  0.2706  0.1589 -0.6148
   69CHL1  H15A 7531   5.147   0.518   7.660 -0.6853  2.1932  0.1737
   69CHL1  H15B 7532   5.307   0.493   7.587  1.6721 -0.0084  2.2240
   69CHL1   C16 7533   5.281   0.657   7.744 -0.3175  0.0178 -0.8944
   69CHL1  H16A 7534   5.231   0.615   7.834  0.6320  0.8484  0.0503
   69CHL1  H16B 7535   5.391   0.665   7.755 -0.5384  0.1032  2.1831
   69CHL1   C17 7536   5.224   0.798   7.708  0.2527  0.3525  0.2970
   69CHL1   H17 7537   5.308   0.859   7.668  0.0543 -0.3535 -1.2746
   69CHL1   C13 7538   5.122   0.781   7.590 -1.0453  0.0739 -0.5718
   69CHL1   C18 7539   4.984   0.731   7.626 -0.4779  0.0747 -0.4459
   69CHL1  H18A 7540   4.925   0.712   7.534 -1.0382 -1.4386  0.2024
   69CHL1  H18B 7541   4.980   0.634   7.680 -0.0180 -1.4950 -3.0434
   69CHL1  H18C 7542   4.946   0.811   7.693  2.6304  2.3086 -1.1105
   69CHL1   C12 7543   5.112   0.899   7.490  0.3369  0.4738  0.7083
   69CHL1  H12A 7544   5.069   0.998   7.518 -0.2142  0.6461 -0.6780
   69CHL1  H12B 7545   5.212   0.927   7.451  0.8693 -3.5373 -1.3045
   69CHL1   C11 7546   5.031   0.854   7.359 -0.1708 -0.0801 -0.5934
   69CHL1  H11A 7547   4.924   0.844   7.388 -0.6363  1.1597 -1.7815
   69CHL1  H11B 7548   5.033   0.945   7.295  3.8608  0.8704  0.6101
   69CHL1    C9 7549   5.103   0.729   7.293  0.6613 -0.3526  0.9298
   69CHL1    H9 7550   5.204   0.767   7.267  0.1725  0.1327 -0.3180
   69CHL1   C10 7551   5.032   0.684   7.155  0.6028  0.6752 -0.2237
   69CHL1   C19 7552   4.885   0.698   7.175 -0.0568 -0.1036 -0.2135
   69CHL1  H19A 7553   4.854   0.804   7.160  0.0494 -0.2806 -1.9813
   69CHL1  H19B 7554   4.825   0.656   7.091 -2.1375  1.2794  0.5047
   69CHL1  H19C 7555   4.845   0.674   7.276 -1.5402  3.2949  0.1539
   69CHL1    C1 7556   5.066   0.791   7.044 -0.5149  0.3915 -0.4919
   69CHL1   H1A 7557   5.025   0.886   7.085  0.9978  0.2032  1.6715
   69CHL1   H1B 7558   5.174   0.812   7.038 -0.2474 -0.4356  0.8186
   69CHL1    C2 7559   5.012   0.756   6.909  0.3106 -0.4166 -0.0636
   69CHL1   H2A 7560   5.049   0.829   6.833 -3.2479  0.0031 -1.5808
   69CHL1   H2B 7561   4.902   0.763   6.922  0.5697 -0.1424  2.4555
   69CHL1   C20 7562   5.168   0.859   7.837  0.4435  0.5242  0.9523
   69CHL1   H20 7563   5.084   0.802   7.882 -2.8697  2.5246 -2.1617
   69CHL1   C21 7564   5.122   0.996   7.795  0.2869 -0.0669 -0.2264
   69CHL1  H21A 7565   5.071   1.057   7.872 -1.7383 -0.8150 -0.8978
   69CHL1  H21B 7566   5.052   0.998   7.709  0.5526  1.2194 -0.4346
   69CHL1  H21C 7567   5.209   1.058   7.765 -0.5496  0.5155 -1.5266
   69CHL1   C22 7568   5.281   0.881   7.948  0.0345  0.5522  0.1293
   69CHL1  H22A 7569   5.324   0.784   7.980  2.9640  1.3208 -1.2055
   69CHL1  H22B 7570   5.362   0.948   7.914  2.4144 -1.8375  0.7866
   69CHL1   C23 7571   5.222   0.946   8.076 -0.6467  0.3962 -0.5749
   69CHL1  H23A 7572   5.202   1.051   8.046  0.0506  0.2424 -1.6467
   69CHL1  H23B 7573   5.130   0.890   8.105 -0.5473  0.1640 -0.7024
   69CHL1   C24 7574   5.327   0.949   8.194  0.3744 -0.6032  0.3391
   69CHL1  H24A 7575   5.337   0.845   8.231 -2.4425 -0.9011  0.5090
   69CHL1  H24B 7576   5.425   0.988   8.160 -0.7102  0.7132 -1.4089
   69CHL1   C25 7577   5.293   1.050   8.312 -0.5793  0.4286 -0.5451
   69CHL1   H25 7578   5.197   1.021   8.360  0.0396 -0.0909  0.4023
   69CHL1   C26 7579   5.394   1.033   8.429  0.1051  0.2430  0.0854
   69CHL1  H26A 7580   5.490   1.067   8.384  0.7949  0.1695  1.4243
   69CHL1  H26B 7581   5.381   1.088   8.524  0.0109  1.3193 -0.5388
   69CHL1  H26C 7582   5.399   0.926   8.459 -0.8072 -0.4696 -2.1117
   69CHL1   C27 7583   5.289   1.198   8.263 -0.7589 -0.2524 -0.6185
   69CHL1  H27A 7584   5.253   1.271   8.339  3.1994 -0.7100  1.9705
   69CHL1  H27B 7585   5.393   1.231   8.243 -0.0411 -0.7046  2.0329
   69CHL1  H27C 7586   5.222   1.208   8.174  0.0438 -2.0017 -1.4549
   70CHL1    C3 7587   4.615   3.173   6.695 -0.5848 -0.3707  0.2458
   70CHL1    H3 7588   4.617   3.066   6.723 -2.9325 -0.7840 -0.9493
   70CHL1    O3 7589   4.614   3.177   6.555  0.0563  0.4717  0.3031
   70CHL1   H3' 7590   4.543   3.119   6.526 -0.1910  0.4755  0.8800
   70CHL1    C4 7591   4.484   3.231   6.751 -0.6518 -0.4440  0.5168
   70CHL1   H4A 7592   4.475   3.340   6.731 -2.0365 -0.8939 -1.6280
   70CHL1   H4B 7593   4.400   3.184   6.695 -0.1964  0.8060 -1.2838
   70CHL1    C5 7594   4.476   3.210   6.904 -0.4442  0.3483 -0.7523
   70CHL1    C6 7595   4.384   3.142   6.963  0.6554  0.3451  0.7429
   70CHL1    H6 7596   4.295   3.102   6.912 -0.1828  0.1695  2.2740
   70CHL1    C7 7597   4.378   3.123   7.110 -1.2064 -0.2697  0.3105
   70CHL1   H7A 7598   4.271   3.132   7.139 -0.9947  1.1470  0.7468
   70CHL1   H7B 7599   4.402   3.016   7.126 -0.8974 -0.4313 -1.0877
   70CHL1    C8 7600   4.475   3.210   7.195  0.1450  0.2479  0.2134
   70CHL1    H8 7601   4.442   3.316   7.202 -0.5158 -0.0107  1.2996
   70CHL1   C14 7602   4.492   3.150   7.336  0.2858  0.3558  0.0794
   70CHL1   H14 7603   4.539   3.050   7.326 -0.6748 -0.2600  1.3196
   70CHL1   C15 7604   4.363   3.132   7.412 -0.3691 -0.8400  0.5608
   70CHL1  H15A 7605   4.280   3.196   7.377  0.6907 -0.3085 -1.0974
   70CHL1  H15B 7606   4.321   3.030   7.402  1.1474 -1.6071  1.5604
   70CHL1   C16 7607   4.408   3.134   7.561 -0.2761  0.1499 -0.0505
   70CHL1  H16A 7608   4.357   3.219   7.611 -0.0992 -1.0970  2.3987
   70CHL1  H16B 7609   4.386   3.034   7.604  2.5046 -0.9708 -1.0237
   70CHL1   C17 7610   4.557   3.169   7.559 -0.4694 -0.1405  0.4777
   70CHL1   H17 7611   4.593   3.065   7.541 -0.8616 -0.1418 -0.3572
   70CHL1   C13 7612   4.578   3.243   7.425 -0.5033  0.2191  0.0439
   70CHL1   C18 7613   4.514   3.385   7.430  0.3936 -0.5455 -0.7595
   70CHL1  H18A 7614   4.541   3.446   7.341  3.0471 -0.3223  0.1125
   70CHL1  H18B 7615   4.404   3.377   7.426  0.0657 -0.2982  3.4504
   70CHL1  H18C 7616   4.536   3.454   7.514 -1.3525  0.5957 -1.1790
   70CHL1   C12 7617   4.722   3.237   7.368  0.5823  0.4100  0.5106
   70CHL1  H12A 7618   4.780   3.309   7.430  2.6218 -1.7869  1.2990
   70CHL1  H12B 7619   4.760   3.135   7.387  0.9789  0.7972  1.8895
   70CHL1   C11 7620   4.723   3.283   7.213 -0.6024 -0.6530  0.2666
   70CHL1  H11A 7621   4.714   3.392   7.231 -2.9986 -0.8702  0.6590
   70CHL1  H11B 7622   4.818   3.273   7.156 -0.6443 -2.3294  0.4279
   70CHL1    C9 7623   4.613   3.219   7.131  0.8561 -0.2548 -0.6117
   70CHL1    H9 7624   4.652   3.116   7.116  0.1160 -0.4954 -0.9499
   70CHL1   C10 7625   4.601   3.266   6.981  0.1187 -0.5363  0.1156
   70CHL1   C19 7626   4.586   3.418   6.976  0.2229 -0.0462 -0.2852
   70CHL1  H19A 7627   4.677   3.467   7.017  0.6350 -1.2417  0.2984
   70CHL1  H19B 7628   4.569   3.460   6.875  1.2233 -0.8483 -0.8083
   70CHL1  H19C 7629   4.508   3.456   7.045 -1.5025  3.6169 -3.8542
   70CHL1    C1 7630   4.736   3.230   6.910  0.2018  0.6178  0.2927
   70CHL1   H1A 7631   4.823   3.289   6.945  0.2813  0.8852 -0.3346
   70CHL1   H1B 7632   4.758   3.126   6.941  0.0755  0.1325 -1.1620
   70CHL1    C2 7633   4.739   3.244   6.758 -0.3285 -0.3663 -0.2685
   70CHL1   H2A 7634   4.836   3.203   6.723  1.6230  3.6325 -0.0697
   70CHL1   H2B 7635   4.729   3.350   6.725 -1.2728  0.3808  2.1906
   70CHL1   C20 7636   4.625   3.223   7.679 -0.9771 -0.3494 -1.1377
   70CHL1   H20 7637   4.625   3.334   7.669  3.8000  0.0413  0.4337
   70CHL1   C21 7638   4.770   3.178   7.687  0.5315  0.1643 -0.0240
   70CHL1  H21A 7639   4.820   3.182   7.588  0.4826  0.6370 -0.0316
   70CHL1  H21B 7640   4.764   3.072   7.721 -1.8472 -0.0196 -0.8152
   70CHL1  H21C 7641   4.833   3.229   7.763  1.8073 -1.9933  0.4759
   70CHL1   C22 7642   4.549   3.194   7.810 -0.8189  0.1978  0.9103
   70CHL1  H22A 7643   4.448   3.240   7.803 -1.1207 -0.2604  1.9279
   70CHL1  H22B 7644   4.534   3.084   7.823  0.8215 -0.2652 -0.8214
   70CHL1   C23 7645   4.624   3.237   7.935 -0.2794  0.3251 -0.3113
   70CHL1  H23A 7646   4.693   3.157   7.969 -0.2579  1.1772  1.7527
   70CHL1  H23B 7647   4.680   3.330   7.908 -1.0938  1.1399  0.7438
   70CHL1   C24 7648   4.529   3.276   8.044  0.2423  0.6253  0.1152
   70CHL1  H24A 7649   4.458   3.358   8.020  0.7744  0.9413 -0.4156
   70CHL1  H24B 7650   4.461   3.189   8.059  0.5182  0.3560 -0.1841
   70CHL1   C25 7651   4.592   3.308   8.179  0.8817  0.0233 -0.1478
   70CHL1   H25 7652   4.659   3.222   8.197 -0.9600 -1.0013  2.4887
   70CHL1   C26 7653   4.678   3.441   8.171 -0.0616 -0.2882 -0.7117
   70CHL1  H26A 7654   4.755   3.450   8.250 -1.2909  1.2788  0.3888
   70CHL1  H26B 7655   4.735   3.444   8.075 -1.5611  0.7821 -1.6155
   70CHL1  H26C 7656   4.611   3.530   8.163 -1.4908 -1.3709 -1.2430
   70CHL1   C27 7657   4.502   3.311   8.304 -0.0214 -0.3095  0.4365
   70CHL1  H27A 7658   4.556   3.351   8.393 -0.8375  0.0266  0.7898
   70CHL1  H27B 7659   4.419   3.381   8.282  1.4753  1.8876  1.4059
   70CHL1  H27C 7660   4.464   3.209   8.326  2.4382 -1.0161  1.9045
   71CHL1    C3 7661   3.287   6.335   6.366  0.4719  0.3099  0.0423
   71CHL1    H3 7662   3.388   6.356   6.407 -0.3542 -0.0298  2.4043
   71CHL1    O3 7663   3.300   6.310   6.226 -0.5238  0.5430  0.4256
   71CHL1   H3' 7664   3.215   6.278   6.196  0.1552 -2.8607  1.7090
   71CHL1    C4 7665   3.222   6.208   6.436 -0.3325 -0.6763  0.2258
   71CHL1   H4A 7666   3.123   6.185   6.392 -0.5725  1.0556 -0.2226
   71CHL1   H4B 7667   3.292   6.124   6.419 -1.3906 -1.7255  0.8656
   71CHL1    C5 7668   3.218   6.241   6.586 -0.5966  0.1148 -0.3957
   71CHL1    C6 7669   3.293   6.166   6.675  0.4089 -0.1110 -0.1548
   71CHL1    H6 7670   3.339   6.074   6.636  0.0660 -0.9525  1.3533
   71CHL1    C7 7671   3.290   6.181   6.822 -0.4034  0.0062  0.5737
   71CHL1   H7A 7672   3.295   6.086   6.880 -0.2393 -0.9586 -0.9703
   71CHL1   H7B 7673   3.376   6.241   6.859 -1.1255  2.0077 -0.8413
   71CHL1    C8 7674   3.169   6.268   6.872 -0.2540  0.4405  0.1969
   71CHL1    H8 7675   3.073   6.214   6.855  0.4285 -0.7555  0.0017
   71CHL1   C14 7676   3.199   6.321   7.009 -0.0996 -1.1512  0.0696
   71CHL1   H14 7677   3.282   6.395   7.007 -2.1555  1.2886 -0.6155
   71CHL1   C15 7678   3.235   6.224   7.122  0.0145 -0.4075 -1.1162
   71CHL1  H15A 7679   3.178   6.129   7.107  0.9081 -1.2241  0.3754
   71CHL1  H15B 7680   3.343   6.198   7.116  0.4963  1.5837 -1.7607
   71CHL1   C16 7681   3.190   6.293   7.257  0.3155  0.3389  0.0616
   71CHL1  H16A 7682   3.116   6.243   7.323 -0.8901  2.4149  0.3832
   71CHL1  H16B 7683   3.278   6.315   7.321 -2.7695  4.3890  3.4825
   71CHL1   C17 7684   3.132   6.426   7.211  0.5716  0.1635  0.1247
   71CHL1   H17 7685   3.216   6.500   7.212  3.2108 -2.6046 -0.6037
   71CHL1   C13 7686   3.086   6.413   7.069 -0.0118  0.5258 -0.0591
   71CHL1   C18 7687   2.956   6.332   7.078 -0.2241 -0.1414 -0.8143
   71CHL1  H18A 7688   2.933   6.282   6.981 -0.5656 -3.9585  1.0596
   71CHL1  H18B 7689   2.980   6.240   7.135  0.2268  1.4918  1.7743
   71CHL1  H18C 7690   2.863   6.387   7.104  1.3606  1.9877  0.6485
   71CHL1   C12 7691   3.079   6.539   6.982  0.4251 -0.5295 -0.3112
   71CHL1  H12A 7692   2.997   6.606   7.017  0.9213  0.3521 -0.7911
   71CHL1  H12B 7693   3.175   6.594   6.984  2.0082 -2.9912 -2.1126
   71CHL1   C11 7694   3.046   6.492   6.839 -0.6391  0.1568  0.5885
   71CHL1  H11A 7695   2.948   6.442   6.832 -1.2116  1.4897 -2.2513
   71CHL1  H11B 7696   3.039   6.577   6.768 -0.7601  0.8730  1.4343
   71CHL1    C9 7697   3.156   6.393   6.780  0.9122 -0.2018  0.3396
   71CHL1    H9 7698   3.248   6.453   6.791  0.6502  0.0581  1.1960
   71CHL1   C10 7699   3.139   6.365   6.626 -0.4462  0.3176 -0.5451
   71CHL1   C19 7700   2.990   6.347   6.593 -0.6193  0.9718  0.2234
   71CHL1  H19A 7701   2.940   6.268   6.654 -0.3564  1.4679  1.1022
   71CHL1  H19B 7702   2.924   6.436   6.602 -1.4583  0.2368  1.6944
   71CHL1  H19C 7703   2.971   6.301   6.494  0.8905 -1.4405  0.9532
   71CHL1    C1 7704   3.185   6.490   6.534 -0.2377  0.5886 -0.4439
   71CHL1   H1A 7705   3.115   6.574   6.550 -1.9604 -0.2195 -3.1491
   71CHL1   H1B 7706   3.287   6.525   6.561 -0.6461  0.1203  1.8869
   71CHL1    C2 7707   3.191   6.458   6.382 -0.3541 -0.1364 -0.0599
   71CHL1   H2A 7708   3.240   6.544   6.331  1.0821  0.0038  1.4879
   71CHL1   H2B 7709   3.093   6.446   6.331  0.6583  1.1737 -2.5310
   71CHL1   C20 7710   3.030   6.491   7.312 -0.3518  0.6689 -0.3456
   71CHL1   H20 7711   2.954   6.414   7.336 -0.3988  1.1866  1.3389
   71CHL1   C21 7712   2.947   6.604   7.262  0.3641 -0.4260 -0.0210
   71CHL1  H21A 7713   3.012   6.681   7.214 -1.2599  0.5813 -0.6822
   71CHL1  H21B 7714   2.893   6.648   7.349  0.9968  0.3168  0.0150
   71CHL1  H21C 7715   2.874   6.576   7.184  0.0535 -0.6712  0.3579
   71CHL1   C22 7716   3.101   6.531   7.448 -0.0364  0.0804 -0.0027
   71CHL1  H22A 7717   3.167   6.445   7.471  0.5526 -0.7819 -4.2000
   71CHL1  H22B 7718   3.163   6.623   7.441 -2.1191  1.5460 -0.0381
   71CHL1   C23 7719   3.000   6.541   7.563  0.2139 -0.2959  0.2651
   71CHL1  H23A 7720   2.943   6.635   7.543  1.5395  0.5052  0.1150
   71CHL1  H23B 7721   2.920   6.464   7.562 -0.9028  0.8348 -0.0228
   71CHL1   C24 7722   3.056   6.562   7.701 -0.3769  0.6961 -0.7796
   71CHL1  H24A 7723   3.103   6.468   7.735 -2.0037  0.1816  0.1844
   71CHL1  H24B 7724   3.134   6.642   7.699  1.5152 -1.0648 -0.5409
   71CHL1   C25 7725   2.948   6.580   7.804  0.1069 -0.5772  0.5050
   71CHL1   H25 7726   2.867   6.508   7.780  0.0378 -0.7144  1.1365
   71CHL1   C26 7727   2.990   6.566   7.951 -0.0757  0.6379  0.9682
   71CHL1  H26A 7728   3.030   6.463   7.963  2.0546  1.1489 -1.0723
   71CHL1  H26B 7729   3.071   6.635   7.983  1.0296 -0.8310  1.4616
   71CHL1  H26C 7730   2.902   6.597   8.012  1.0611  1.7313  2.1236
   71CHL1   C27 7731   2.888   6.724   7.790 -0.3432  1.0438 -0.7116
   71CHL1  H27A 7732   2.850   6.735   7.686 -3.0877 -1.1771 -0.0465
   71CHL1  H27B 7733   2.802   6.741   7.858  1.1887  0.0642  1.5970
   71CHL1  H27C 7734   2.954   6.813   7.802 -0.2821  0.8408  0.5399
   72CHL1    C3 7735   2.708   4.932   6.454 -0.4647 -0.2740  0.0436
   72CHL1    H3 7736   2.805   4.980   6.479  0.3587 -1.8821  0.0659
   72CHL1    O3 7737   2.681   4.883   6.325 -0.2851 -0.5118  0.3866
   72CHL1   H3' 7738   2.750   4.817   6.315 -1.4747 -1.8841  0.8341
   72CHL1    C4 7739   2.695   4.809   6.540 -0.3218 -0.3750  0.1956
   72CHL1   H4A 7740   2.596   4.762   6.522  0.4312 -2.1521  0.4506
   72CHL1   H4B 7741   2.766   4.737   6.494 -0.0765 -0.5004  0.7632
   72CHL1    C5 7742   2.723   4.836   6.687 -0.2825 -0.7789 -0.7315
   72CHL1    C6 7743   2.823   4.776   6.761  0.5846  0.1932  0.8079
   72CHL1    H6 7744   2.871   4.698   6.701 -2.0100  0.6808 -2.2305
   72CHL1    C7 7745   2.854   4.792   6.903 -0.3888 -0.5946 -0.6872
   72CHL1   H7A 7746   2.878   4.695   6.951 -1.5291 -1.1925 -1.2863
   72CHL1   H7B 7747   2.947   4.852   6.913 -0.3794 -0.9923  3.0428
   72CHL1    C8 7748   2.742   4.868   6.981 -0.5063  0.2251  0.0952
   72CHL1    H8 7749   2.660   4.793   6.991 -1.3653  1.1016 -0.2393
   72CHL1   C14 7750   2.780   4.925   7.116 -0.4582 -0.5169 -0.2146
   72CHL1   H14 7751   2.853   5.009   7.108  0.0340 -0.8274  0.8169
   72CHL1   C15 7752   2.843   4.832   7.222  0.2342 -0.0481  0.2954
   72CHL1  H15A 7753   2.786   4.738   7.210 -1.0685  0.7484  0.1156
   72CHL1  H15B 7754   2.950   4.817   7.194  0.6772  2.1497  0.5622
   72CHL1   C16 7755   2.830   4.909   7.354 -0.5471 -0.1025 -0.4896
   72CHL1  H16A 7756   2.808   4.836   7.435  0.0367 -0.3003 -0.5014
   72CHL1  H16B 7757   2.929   4.951   7.382  0.9486 -3.0309 -0.9658
   72CHL1   C17 7758   2.736   5.024   7.330  0.3686 -0.1286 -0.3164
   72CHL1   H17 7759   2.808   5.106   7.308  2.4409 -2.3641 -2.3843
   72CHL1   C13 7760   2.669   5.000   7.194  0.2527 -0.6274 -0.3276
   72CHL1   C18 7761   2.540   4.911   7.210  0.7533  0.2602 -0.2575
   72CHL1  H18A 7762   2.521   4.856   7.116 -1.0745  0.5143 -0.0631
   72CHL1  H18B 7763   2.559   4.839   7.293  0.1858  0.3805 -0.0180
   72CHL1  H18C 7764   2.453   4.974   7.238  1.9003  2.7602 -1.9223
   72CHL1   C12 7765   2.637   5.122   7.103 -0.5959  0.0191 -0.0609
   72CHL1  H12A 7766   2.552   5.174   7.152 -1.4429  0.5319 -1.9920
   72CHL1  H12B 7767   2.726   5.188   7.093 -0.1504 -0.7037 -0.9760
   72CHL1   C11 7768   2.593   5.079   6.963  0.1385 -0.7151 -0.7261
   72CHL1  H11A 7769   2.494   5.036   6.988 -0.2741  1.6664  2.4202
   72CHL1  H11B 7770   2.582   5.169   6.898 -1.1809 -1.0993 -1.0643
   72CHL1    C9 7771   2.686   4.987   6.891  0.2595 -0.1806  0.0074
   72CHL1    H9 7772   2.780   5.046   6.876  0.6729 -0.9267 -0.3810
   72CHL1   C10 7773   2.630   4.939   6.753  0.5541 -0.3333  0.0112
   72CHL1   C19 7774   2.492   4.878   6.772 -0.4202 -0.3296  0.1443
   72CHL1  H19A 7775   2.458   4.830   6.678 -0.6193  0.5454 -0.2356
   72CHL1  H19B 7776   2.489   4.808   6.858  0.7964  0.6450  1.0085
   72CHL1  H19C 7777   2.421   4.961   6.791  1.3278  1.4503 -0.8406
   72CHL1    C1 7778   2.617   5.070   6.651 -0.4980  0.7043  0.0176
   72CHL1   H1A 7779   2.538   5.139   6.685  0.5392  1.6258  0.6217
   72CHL1   H1B 7780   2.714   5.125   6.657 -1.6409  3.2829 -2.5218
   72CHL1    C2 7781   2.595   5.030   6.500 -0.0489  0.7388  0.1392
   72CHL1   H2A 7782   2.606   5.116   6.430  0.9580  1.0474  0.6465
   72CHL1   H2B 7783   2.498   4.976   6.495  0.4964 -0.2809  0.3066
   72CHL1   C20 7784   2.650   5.075   7.448 -0.3978 -0.1902 -0.6946
   72CHL1   H20 7785   2.574   4.998   7.471 -0.6249  0.6577  1.6286
   72CHL1   C21 7786   2.570   5.208   7.425  0.0515  0.4643 -0.3356
   72CHL1  H21A 7787   2.646   5.287   7.407 -0.1769  0.7894  0.1045
   72CHL1  H21B 7788   2.507   5.234   7.513 -2.8523 -3.2360 -1.0747
   72CHL1  H21C 7789   2.494   5.204   7.345 -0.9830  0.6830  0.6020
   72CHL1   C22 7790   2.744   5.085   7.579  0.4939 -0.3896 -0.5052
   72CHL1  H22A 7791   2.794   4.987   7.598 -0.0819 -0.8036 -1.0497
   72CHL1  H22B 7792   2.828   5.152   7.555 -0.6618  1.4116  0.2573
   72CHL1   C23 7793   2.677   5.128   7.701 -0.0494 -0.1558 -0.2962
   72CHL1  H23A 7794   2.653   5.237   7.700  2.6274  0.5508  1.3092
   72CHL1  H23B 7795   2.589   5.061   7.702  0.1059 -0.4622  2.4946
   72CHL1   C24 7796   2.774   5.122   7.830 -0.5795 -0.4526  0.2625
   72CHL1  H24A 7797   2.877   5.151   7.801 -0.2336  1.3349  2.9372
   72CHL1  H24B 7798   2.732   5.207   7.888 -2.2022 -1.3740  0.5005
   72CHL1   C25 7799   2.765   4.996   7.914 -0.0412  0.9610 -0.8799
   72CHL1   H25 7800   2.660   4.969   7.937  1.0741 -0.5768  3.3902
   72CHL1   C26 7801   2.840   4.886   7.847  0.5847  0.1737  0.1332
   72CHL1  H26A 7802   2.839   4.792   7.906  2.7007 -0.5388 -0.8690
   72CHL1  H26B 7803   2.792   4.875   7.747  1.4329  2.6201 -0.6204
   72CHL1  H26C 7804   2.943   4.926   7.843  0.4214  0.5451 -0.6957
   72CHL1   C27 7805   2.810   5.016   8.060 -0.4714 -0.6735 -0.0048
   72CHL1  H27A 7806   2.916   5.047   8.061 -0.9719  1.2282 -0.2808
   72CHL1  H27B 7807   2.756   5.090   8.124 -0.1648 -1.2054  0.8943
   72CHL1  H27C 7808   2.796   4.917   8.107  0.9456 -0.9141 -0.0685
   73CHL1    C3 7809   3.738   0.382   6.747 -0.3173 -0.0269  0.3537
   73CHL1    H3 7810   3.631   0.388   6.719 -0.1506  1.1697 -0.1018
   73CHL1    O3 7811   3.813   0.371   6.626  0.3734  0.1612  0.4025
   73CHL1   H3' 7812   3.825   0.460   6.590 -0.4300  1.0473  2.1974
   73CHL1    C4 7813   3.792   0.511   6.818  0.2254  0.4871  0.4053
   73CHL1   H4A 7814   3.900   0.501   6.843  0.3273  1.4768  0.4088
   73CHL1   H4B 7815   3.790   0.590   6.740 -2.7655 -0.0806 -0.2187
   73CHL1    C5 7816   3.712   0.521   6.950  0.2567 -0.8003  0.1036
   73CHL1    C6 7817   3.636   0.629   6.976 -0.1447  0.1564  0.2932
   73CHL1    H6 7818   3.636   0.715   6.907  0.2042 -0.0476  0.0368
   73CHL1    C7 7819   3.567   0.661   7.104 -0.1470 -0.4787 -0.6313
   73CHL1   H7A 7820   3.579   0.770   7.124  5.5053 -0.9451  0.3222
   73CHL1   H7B 7821   3.460   0.634   7.095 -0.7346  0.6202  2.0705
   73CHL1    C8 7822   3.621   0.575   7.216  0.2614 -0.9554 -0.1487
   73CHL1    H8 7823   3.715   0.623   7.250  0.0583  0.9493 -2.0579
   73CHL1   C14 7824   3.538   0.575   7.341 -0.0162 -0.7067  0.8423
   73CHL1   H14 7825   3.442   0.537   7.301  0.4701 -1.0326 -0.0584
   73CHL1   C15 7826   3.491   0.715   7.388  0.5040  0.2514  0.9928
   73CHL1  H15A 7827   3.570   0.787   7.358 -0.5718  1.8247  1.7480
   73CHL1  H15B 7828   3.396   0.740   7.337 -1.2149 -1.9399  2.8886
   73CHL1   C16 7829   3.465   0.688   7.541 -0.2198  0.7233  0.1280
   73CHL1  H16A 7830   3.539   0.761   7.582 -0.1575  1.6872 -1.6009
   73CHL1  H16B 7831   3.374   0.727   7.591  0.3208  1.7415  0.3556
   73CHL1   C17 7832   3.487   0.532   7.567 -0.6264 -0.5389  1.2331
   73CHL1   H17 7833   3.385   0.494   7.541 -1.5003  2.1888  0.3772
   73CHL1   C13 7834   3.578   0.488   7.458 -0.1976 -0.2664 -0.1104
   73CHL1   C18 7835   3.720   0.533   7.510 -0.1452 -0.2691  0.0798
   73CHL1  H18A 7836   3.756   0.455   7.581  0.7751 -0.9978 -1.1376
   73CHL1  H18B 7837   3.797   0.531   7.430 -0.6322 -0.5982 -0.3886
   73CHL1  H18C 7838   3.720   0.631   7.561 -0.4585 -1.0780  1.6806
   73CHL1   C12 7839   3.578   0.345   7.408 -0.0239 -0.8128  0.3572
   73CHL1  H12A 7840   3.611   0.278   7.490  1.4951  0.8727  1.1757
   73CHL1  H12B 7841   3.485   0.310   7.359 -0.0398 -2.0428  1.2243
   73CHL1   C11 7842   3.672   0.339   7.289  0.0502  0.1922  0.0069
   73CHL1  H11A 7843   3.775   0.364   7.323 -0.2291  1.2948  0.0996
   73CHL1  H11B 7844   3.686   0.236   7.250 -0.4343  0.0197  0.2805
   73CHL1    C9 7845   3.636   0.431   7.174  0.1327  0.8811  0.3771
   73CHL1    H9 7846   3.532   0.398   7.154 -0.1216  0.9768  1.4539
   73CHL1   C10 7847   3.725   0.409   7.049 -0.2565  0.0567 -0.4681
   73CHL1   C19 7848   3.877   0.402   7.093 -0.5682  0.6158 -0.2987
   73CHL1  H19A 7849   3.945   0.367   7.013 -1.4462 -0.1766 -0.7220
   73CHL1  H19B 7850   3.923   0.493   7.137  0.1264  0.0949  0.0589
   73CHL1  H19C 7851   3.892   0.326   7.173 -2.1548  2.7754  2.2365
   73CHL1    C1 7852   3.684   0.282   6.972 -0.4031 -0.5765  0.4228
   73CHL1   H1A 7853   3.707   0.196   7.039  1.2176  0.2104  0.9185
   73CHL1   H1B 7854   3.574   0.281   6.955  0.0553 -1.4891 -3.4399
   73CHL1    C2 7855   3.759   0.255   6.840  0.6054 -0.2990 -0.4222
   73CHL1   H2A 7856   3.728   0.171   6.773  1.4835  1.2220 -2.8707
   73CHL1   H2B 7857   3.864   0.240   6.873  0.2705  0.7707  1.2001
   73CHL1   C20 7858   3.521   0.496   7.714  0.5493  0.2445 -0.4049
   73CHL1   H20 7859   3.626   0.508   7.745 -0.3285 -2.2542  4.5430
   73CHL1   C21 7860   3.509   0.338   7.733 -0.2673 -1.0162 -0.4348
   73CHL1  H21A 7861   3.458   0.278   7.654  1.6710 -1.2055 -1.5833
   73CHL1  H21B 7862   3.464   0.312   7.831  0.2769 -1.1260 -0.2136
   73CHL1  H21C 7863   3.614   0.303   7.743 -0.2358 -1.0221 -0.7874
   73CHL1   C22 7864   3.444   0.572   7.823 -0.5319 -0.7734 -0.3275
   73CHL1  H22A 7865   3.445   0.682   7.809 -1.5998 -0.7827 -0.5350
   73CHL1  H22B 7866   3.336   0.547   7.816 -1.4204  2.7043 -0.9927
   73CHL1   C23 7867   3.504   0.557   7.962  0.5422 -0.2748 -0.1966
   73CHL1  H23A 7868   3.480   0.453   7.996  0.5700 -0.9157 -2.0273
   73CHL1  H23B 7869   3.614   0.561   7.965  0.6078 -1.2191 -0.7459
   73CHL1   C24 7870   3.457   0.658   8.071 -0.7200  0.3238  0.4113
   73CHL1  H24A 7871   3.470   0.762   8.032 -1.4058 -0.0545 -0.9037
   73CHL1  H24B 7872   3.348   0.638   8.079 -1.0256  1.8000  0.2725
   73CHL1   C25 7873   3.522   0.651   8.214 -0.0953  0.0955 -0.4930
   73CHL1   H25 7874   3.633   0.650   8.202 -0.1408  1.1623 -1.1339
   73CHL1   C26 7875   3.484   0.775   8.298 -0.1393  0.2678  0.7629
   73CHL1  H26A 7876   3.542   0.769   8.393  0.8697 -1.6800  0.0826
   73CHL1  H26B 7877   3.495   0.870   8.242  0.4947 -0.9259 -1.2108
   73CHL1  H26C 7878   3.380   0.778   8.337 -0.3911  1.7938  0.0620
   73CHL1   C27 7879   3.496   0.516   8.291  0.1831  0.0659 -0.0830
   73CHL1  H27A 7880   3.512   0.426   8.228  0.4137  0.4424 -0.5751
   73CHL1  H27B 7881   3.556   0.505   8.383 -2.8449  0.7875  2.1230
   73CHL1  H27C 7882   3.394   0.522   8.335  0.1523  1.4230 -0.2827
   74CHL1    C3 7883   1.761   5.365   6.626 -0.0118 -0.3130  0.8519
   74CHL1    H3 7884   1.866   5.334   6.638 -0.8744 -3.9203  0.1835
   74CHL1    O3 7885   1.736   5.424   6.500 -0.5492  0.2748 -0.1152
   74CHL1   H3' 7886   1.642   5.444   6.502 -0.7849 -0.7281 -0.6528
   74CHL1    C4 7887   1.668   5.246   6.650 -0.0101  0.0559 -0.0862
   74CHL1   H4A 7888   1.561   5.273   6.644 -0.3305 -1.2642 -0.6363
   74CHL1   H4B 7889   1.686   5.175   6.567 -0.7507  1.4935 -1.5202
   74CHL1    C5 7890   1.694   5.202   6.793 -0.2604  0.2831 -0.3421
   74CHL1    C6 7891   1.726   5.073   6.821  0.0319  0.0260 -0.1100
   74CHL1    H6 7892   1.732   4.998   6.740  0.1916 -1.9857  1.6724
   74CHL1    C7 7893   1.751   5.011   6.956 -0.3711 -0.1689 -0.7175
   74CHL1   H7A 7894   1.710   4.908   6.957 -1.0680 -0.1709 -5.4290
   74CHL1   H7B 7895   1.861   5.005   6.971 -0.2856  0.4242 -1.0431
   74CHL1    C8 7896   1.691   5.103   7.068 -0.3150  0.2450  0.3871
   74CHL1    H8 7897   1.583   5.082   7.051 -0.1180 -0.8332  0.3902
   74CHL1   C14 7898   1.741   5.054   7.200  0.4681 -0.0353 -0.4085
   74CHL1   H14 7899   1.848   5.085   7.205  0.3089  0.5444 -0.5319
   74CHL1   C15 7900   1.721   4.906   7.228 -0.0556  0.3960 -0.1122
   74CHL1  H15A 7901   1.624   4.868   7.189 -0.5631 -0.3937  1.7904
   74CHL1  H15B 7902   1.796   4.839   7.182 -0.5765  0.3523 -0.9108
   74CHL1   C16 7903   1.721   4.890   7.384 -0.2003 -0.3455  0.4463
   74CHL1  H16A 7904   1.628   4.841   7.420 -0.0790 -1.0086 -0.1268
   74CHL1  H16B 7905   1.806   4.825   7.414 -0.1002 -0.5449 -0.2465
   74CHL1   C17 7906   1.736   5.040   7.434  0.2138  0.5343 -0.2789
   74CHL1   H17 7907   1.847   5.043   7.440  0.1757  2.3793 -0.0049
   74CHL1   C13 7908   1.678   5.128   7.319  0.9528  0.1857  0.7759
   74CHL1   C18 7909   1.525   5.111   7.323 -0.4378 -0.2321  0.2255
   74CHL1  H18A 7910   1.492   5.158   7.418  1.7478  2.2380 -0.1066
   74CHL1  H18B 7911   1.470   5.152   7.236 -2.8479  0.2609  1.8857
   74CHL1  H18C 7912   1.495   5.005   7.335  0.2593 -0.4482  0.1385
   74CHL1   C12 7913   1.722   5.279   7.299 -0.4490 -0.0170 -0.4267
   74CHL1  H12A 7914   1.692   5.344   7.385 -0.8304 -1.4479  0.5686
   74CHL1  H12B 7915   1.832   5.281   7.289 -0.5090  1.1250 -0.9721
   74CHL1   C11 7916   1.678   5.343   7.164 -0.2993  0.3421  0.3393
   74CHL1  H11A 7917   1.567   5.349   7.166 -0.3908  1.1661 -2.5795
   74CHL1  H11B 7918   1.715   5.448   7.159 -0.3056  0.4949  2.6008
   74CHL1    C9 7919   1.716   5.252   7.048  0.6241  0.9183  0.3619
   74CHL1    H9 7920   1.827   5.261   7.050  0.9281 -1.8665 -0.1760
   74CHL1   C10 7921   1.677   5.304   6.912  0.3459  0.1794  1.2745
   74CHL1   C19 7922   1.530   5.348   6.923  0.3182 -0.8561  0.6057
   74CHL1  H19A 7923   1.521   5.454   6.954 -0.2382 -1.0257  1.0440
   74CHL1  H19B 7924   1.480   5.341   6.824  2.5618  2.7635 -1.0085
   74CHL1  H19C 7925   1.465   5.282   6.984 -0.4655  0.7014  1.5084
   74CHL1    C1 7926   1.772   5.420   6.866 -0.5448 -1.1594 -0.1659
   74CHL1   H1A 7927   1.762   5.498   6.944 -1.5958  0.2378 -1.6197
   74CHL1   H1B 7928   1.877   5.383   6.871 -0.0759  0.1624 -0.0425
   74CHL1    C2 7929   1.727   5.472   6.729  0.0791  0.0384 -0.9361
   74CHL1   H2A 7930   1.787   5.563   6.709 -0.0224  0.0589 -1.1629
   74CHL1   H2B 7931   1.619   5.497   6.729  0.1414  0.3123 -1.1575
   74CHL1   C20 7932   1.682   5.056   7.580 -0.2236  1.1793 -0.4122
   74CHL1   H20 7933   1.572   5.043   7.575  0.0582 -1.6580 -0.5217
   74CHL1   C21 7934   1.725   5.198   7.640  0.1679  0.1447  0.6697
   74CHL1  H21A 7935   1.686   5.208   7.744  0.0565  0.2833  0.6146
   74CHL1  H21B 7936   1.667   5.275   7.585  0.4340  0.8511  1.3397
   74CHL1  H21C 7937   1.835   5.213   7.641  0.3463 -1.0383  1.2956
   74CHL1   C22 7938   1.734   4.944   7.671  0.4930  0.2568 -0.5430
   74CHL1  H22A 7939   1.657   4.865   7.659 -1.7182  2.0684  0.9035
   74CHL1  H22B 7940   1.829   4.888   7.654 -0.7251 -1.3891 -2.2989
   74CHL1   C23 7941   1.729   4.973   7.824 -0.0603  0.2121  0.6783
   74CHL1  H23A 7942   1.820   5.024   7.860  1.8790 -2.5283  0.0264
   74CHL1  H23B 7943   1.646   5.043   7.846  1.5989  2.7932 -0.7500
   74CHL1   C24 7944   1.703   4.849   7.906  0.6641 -0.2873  0.1860
   74CHL1  H24A 7945   1.603   4.806   7.881  1.5070 -2.2277  0.0020
   74CHL1  H24B 7946   1.783   4.777   7.879  0.6322 -2.3098  4.6896
   74CHL1   C25 7947   1.693   4.866   8.059 -0.4463 -0.5745 -0.6491
   74CHL1   H25 7948   1.614   4.941   8.084 -0.4974 -0.7017 -0.4207
   74CHL1   C26 7949   1.650   4.733   8.124  0.5800  0.7777  0.1330
   74CHL1  H26A 7950   1.550   4.697   8.091  1.4994  1.0371 -3.2930
   74CHL1  H26B 7951   1.727   4.656   8.100 -0.8696  0.3008 -3.6384
   74CHL1  H26C 7952   1.649   4.741   8.235  1.2957  0.0826  0.2000
   74CHL1   C27 7953   1.821   4.918   8.119  0.1434  0.3348 -0.3483
   74CHL1  H27A 7954   1.894   4.837   8.142 -0.6221 -0.4066 -0.4808
   74CHL1  H27B 7955   1.871   4.992   8.054 -1.5753  1.1352 -0.7958
   74CHL1  H27C 7956   1.814   4.974   8.214  2.2048 -0.8937  0.5997
   75CHL1    C3 7957   5.766   0.195   6.571 -0.0476 -0.6219 -0.1034
   75CHL1    H3 7958   5.724   0.095   6.593  0.1913 -0.4235  1.3510
   75CHL1    O3 7959   5.770   0.221   6.430 -0.1362 -0.4876  0.1320
   75CHL1   H3' 7960   5.811   0.304   6.405  0.0306 -0.5544  0.1829
   75CHL1    C4 7961   5.677   0.300   6.636  0.3887  0.7720  0.4006
   75CHL1   H4A 7962   5.712   0.403   6.609  0.7366  0.0748 -2.0895
   75CHL1   H4B 7963   5.574   0.292   6.595  0.1496 -1.4440  1.3335
   75CHL1    C5 7964   5.676   0.285   6.783 -0.1711 -0.7411  0.0292
   75CHL1    C6 7965   5.560   0.281   6.854  0.0609  0.2158  0.1048
   75CHL1    H6 7966   5.465   0.281   6.798 -0.0248  1.7910  0.1852
   75CHL1    C7 7967   5.549   0.281   7.005  0.6014  0.0300 -0.1183
   75CHL1   H7A 7968   5.485   0.367   7.033 -1.1958 -1.2562 -0.1369
   75CHL1   H7B 7969   5.481   0.201   7.042 -0.5410  0.2751 -1.5983
   75CHL1    C8 7970   5.685   0.311   7.075 -0.0807 -0.0563  0.3107
   75CHL1    H8 7971   5.712   0.417   7.089  1.2824 -0.7047  3.8107
   75CHL1   C14 7972   5.665   0.272   7.224  0.3634  0.5994 -0.4752
   75CHL1   H14 7973   5.645   0.164   7.236  0.2726  0.6584 -0.0926
   75CHL1   C15 7974   5.552   0.333   7.304 -0.0271 -0.4923 -0.1755
   75CHL1  H15A 7975   5.538   0.440   7.277  0.7255  0.0500  1.4584
   75CHL1  H15B 7976   5.461   0.274   7.282  0.0390 -0.9505  0.7350
   75CHL1   C16 7977   5.587   0.313   7.448 -0.5081  0.1443 -0.0074
   75CHL1  H16A 7978   5.579   0.409   7.503  3.5831  0.7259 -0.1640
   75CHL1  H16B 7979   5.524   0.235   7.497  1.1648 -0.6047  1.0390
   75CHL1   C17 7980   5.736   0.259   7.450 -0.0645 -0.0212  0.1635
   75CHL1   H17 7981   5.733   0.148   7.438  0.8792 -0.0564  0.1722
   75CHL1   C13 7982   5.792   0.299   7.309 -0.5881  0.1241  0.4993
   75CHL1   C18 7983   5.837   0.448   7.331 -0.0998 -0.1705  0.4749
   75CHL1  H18A 7984   5.766   0.502   7.396 -1.0227 -0.6961 -0.0682
   75CHL1  H18B 7985   5.940   0.459   7.370 -0.1451  2.4328  0.0148
   75CHL1  H18C 7986   5.847   0.495   7.231  0.1969 -1.4483 -0.1182
   75CHL1   C12 7987   5.901   0.212   7.245  0.8489 -0.7889 -0.0118
   75CHL1  H12A 7988   5.997   0.229   7.298  0.4206  0.8009  0.3153
   75CHL1  H12B 7989   5.892   0.101   7.251 -0.4214 -0.9589 -3.1996
   75CHL1   C11 7990   5.929   0.248   7.099 -0.2052  0.0316 -0.3033
   75CHL1  H11A 7991   5.973   0.349   7.094 -0.1348 -0.0520 -2.6281
   75CHL1  H11B 7992   6.020   0.194   7.067 -0.2634 -1.8255  2.3036
   75CHL1    C9 7993   5.802   0.238   7.004  0.2894  0.0170 -0.1158
   75CHL1    H9 7994   5.783   0.128   7.007  0.1766 -0.1783 -3.6892
   75CHL1   C10 7995   5.813   0.282   6.853  0.7222 -0.1313  0.8545
   75CHL1   C19 7996   5.887   0.420   6.851 -0.1662  0.3369 -0.6210
   75CHL1  H19A 7997   5.872   0.485   6.762  0.0857  1.3892  0.0805
   75CHL1  H19B 7998   5.855   0.480   6.939 -1.8143 -0.1235 -0.8613
   75CHL1  H19C 7999   5.995   0.399   6.862 -0.0875  0.9561 -0.1252
   75CHL1    C1 8000   5.911   0.183   6.785 -0.1590  0.2633 -0.3594
   75CHL1   H1A 8001   6.012   0.190   6.831 -0.5349 -1.3206  0.7805
   75CHL1   H1B 8002   5.868   0.081   6.794 -1.2784  0.7584  0.1370
   75CHL1    C2 8003   5.912   0.205   6.632 -0.2839 -0.2474  0.7826
   75CHL1   H2A 8004   5.965   0.122   6.580  0.0160  0.0058  0.6871
   75CHL1   H2B 8005   5.952   0.303   6.599 -1.3109 -0.0084  0.2135
   75CHL1   C20 8006   5.818   0.284   7.579  0.1667 -0.6475 -0.3481
   75CHL1   H20 8007   5.848   0.390   7.594 -0.2572 -0.4584 -0.8033
   75CHL1   C21 8008   5.959   0.216   7.571 -0.6943  0.4276  0.3568
   75CHL1  H21A 8009   5.941   0.107   7.554 -0.1298  0.9016 -5.3275
   75CHL1  H21B 8010   5.998   0.230   7.674  1.0238  1.4213 -0.4039
   75CHL1  H21C 8011   6.026   0.268   7.500 -0.1542  0.1837  0.6782
   75CHL1   C22 8012   5.744   0.232   7.708 -0.4525  0.3881  0.1793
   75CHL1  H22A 8013   5.672   0.150   7.690  0.0083 -0.3058  1.3689
   75CHL1  H22B 8014   5.818   0.198   7.784 -3.1809 -3.9381  1.2330
   75CHL1   C23 8015   5.652   0.327   7.783 -0.0526 -0.4202 -0.3423
   75CHL1  H23A 8016   5.695   0.429   7.766 -0.0040 -0.0443  1.8077
   75CHL1  H23B 8017   5.551   0.321   7.737  1.2175 -2.3585 -3.1954
   75CHL1   C24 8018   5.659   0.296   7.935 -0.0081 -0.1389  0.5258
   75CHL1  H24A 8019   5.658   0.185   7.933  0.4423 -0.1539 -1.0320
   75CHL1  H24B 8020   5.757   0.337   7.968 -0.2355  1.3272 -0.5218
   75CHL1   C25 8021   5.548   0.357   8.027  0.5219  0.1690  0.4449
   75CHL1   H25 8022   5.460   0.365   7.959  1.3775  0.9499 -0.5993
   75CHL1   C26 8023   5.521   0.257   8.141 -0.2691  0.1655 -0.7935
   75CHL1  H26A 8024   5.439   0.294   8.206 -2.2485  0.6888 -3.3830
   75CHL1  H26B 8025   5.507   0.153   8.105  1.7315 -1.2484  2.1510
   75CHL1  H26C 8026   5.614   0.257   8.200 -0.6805 -0.0455 -0.1381
   75CHL1   C27 8027   5.582   0.499   8.070  0.0003 -0.2628 -0.1065
   75CHL1  H27A 8028   5.625   0.556   7.984 -1.2661  0.8771 -0.0041
   75CHL1  H27B 8029   5.488   0.554   8.092  0.8140  1.0707  0.1549
   75CHL1  H27C 8030   5.652   0.500   8.156  1.0519  3.3370 -0.8409
   76CHL1    C3 8031   3.050   1.795   6.824  0.5561  0.0794 -0.2962
   76CHL1    H3 8032   2.940   1.784   6.822  0.4686  0.5570  0.9529
   76CHL1    O3 8033   3.086   1.795   6.687 -0.2758 -0.4883 -0.1613
   76CHL1   H3' 8034   3.132   1.714   6.664  0.4052  0.4307 -2.3241
   76CHL1    C4 8035   3.116   1.915   6.880 -0.4309 -0.5515 -0.1151
   76CHL1   H4A 8036   3.224   1.915   6.854 -0.6153 -0.7275 -0.9179
   76CHL1   H4B 8037   3.071   1.997   6.821  0.2493 -0.0871 -0.0077
   76CHL1    C5 8038   3.100   1.934   7.027  0.1186  0.1838 -0.0254
   76CHL1    C6 8039   3.045   2.048   7.078  0.9628  0.8777 -0.0581
   76CHL1    H6 8040   3.019   2.128   7.007 -0.7682  0.0556 -0.4079
   76CHL1    C7 8041   3.025   2.068   7.221 -0.0609 -0.7686  0.0145
   76CHL1   H7A 8042   3.072   2.164   7.250 -0.8963 -0.5398  0.6700
   76CHL1   H7B 8043   2.914   2.077   7.231 -0.0523  2.2037 -1.3958
   76CHL1    C8 8044   3.094   1.961   7.311 -0.1982  0.3016 -0.9286
   76CHL1    H8 8045   3.204   1.979   7.309  0.2713 -2.1916 -1.0008
   76CHL1   C14 8046   3.041   1.965   7.455  0.2381  0.3942 -0.5193
   76CHL1   H14 8047   2.937   1.927   7.446  0.3497  0.0825 -0.5138
   76CHL1   C15 8048   3.029   2.100   7.525  0.3579  0.1880 -0.5563
   76CHL1  H15A 8049   3.118   2.167   7.516 -0.3987  1.3511  0.3537
   76CHL1  H15B 8050   2.942   2.156   7.486  1.2669  1.6258 -0.5971
   76CHL1   C16 8051   3.015   2.062   7.673  0.0617 -0.2008 -0.0703
   76CHL1  H16A 8052   3.104   2.104   7.726 -1.2454  2.4037  0.2412
   76CHL1  H16B 8053   2.920   2.093   7.722 -0.7329 -0.4793 -1.4055
   76CHL1   C17 8054   3.040   1.910   7.680  0.5274  1.0543 -0.3036
   76CHL1   H17 8055   2.938   1.869   7.665  0.0172  2.5441 -1.1526
   76CHL1   C13 8056   3.108   1.871   7.550  0.4528 -0.6803 -0.0080
   76CHL1   C18 8057   3.257   1.906   7.568 -0.5029  0.1346  0.1406
   76CHL1  H18A 8058   3.318   1.876   7.480  0.8909 -3.8623  2.2140
   76CHL1  H18B 8059   3.277   2.010   7.601  1.5790  0.1373 -0.9410
   76CHL1  H18C 8060   3.299   1.839   7.646  1.9745  0.0486 -1.1493
   76CHL1   C12 8061   3.079   1.732   7.495  0.0257 -0.3684  0.5227
   76CHL1  H12A 8062   3.134   1.660   7.560  0.9398  2.6665  3.3810
   76CHL1  H12B 8063   2.973   1.701   7.506 -0.0022 -0.9264 -1.0306
   76CHL1   C11 8064   3.116   1.712   7.346  0.5766  0.3613 -0.5382
   76CHL1  H11A 8065   3.227   1.708   7.343  0.5691 -1.8189  0.3576
   76CHL1  H11B 8066   3.075   1.612   7.318  0.4921 -0.0823  1.0711
   76CHL1    C9 8067   3.075   1.816   7.248 -0.1423  0.2368  0.1489
   76CHL1    H9 8068   2.967   1.808   7.226  0.3580 -0.3871 -2.2627
   76CHL1   C10 8069   3.140   1.800   7.109 -0.2802 -0.2869 -0.4563
   76CHL1   C19 8070   3.290   1.802   7.113  0.0334 -0.2053 -0.7283
   76CHL1  H19A 8071   3.337   1.708   7.149 -0.8325 -1.0282 -1.6731
   76CHL1  H19B 8072   3.326   1.815   7.008  0.5531 -0.9136 -0.6434
   76CHL1  H19C 8073   3.319   1.888   7.177 -0.9262  1.1344 -2.0065
   76CHL1    C1 8074   3.097   1.673   7.039  0.6203  0.4862  1.0995
   76CHL1   H1A 8075   3.161   1.590   7.079  0.5831  0.1762  0.5242
   76CHL1   H1B 8076   2.989   1.655   7.056  0.8888 -0.4923  1.8907
   76CHL1    C2 8077   3.115   1.667   6.882 -0.2008  0.6690  0.2126
   76CHL1   H2A 8078   3.063   1.580   6.838 -0.1694  1.3896 -1.3075
   76CHL1   H2B 8079   3.223   1.661   6.856 -0.6641  0.6892 -1.8242
   76CHL1   C20 8080   3.099   1.863   7.813 -0.0644 -0.0694 -0.5692
   76CHL1   H20 8081   3.192   1.921   7.829 -0.7201  0.9530 -0.3204
   76CHL1   C21 8082   3.114   1.710   7.824 -0.4356 -0.7718  0.2162
   76CHL1  H21A 8083   3.020   1.657   7.800 -0.2948 -1.7450  1.6532
   76CHL1  H21B 8084   3.152   1.679   7.924 -1.0489  0.5985  0.9046
   76CHL1  H21C 8085   3.199   1.676   7.761 -0.1181  1.9285 -0.9770
   76CHL1   C22 8086   3.000   1.911   7.929 -0.2530  0.1174  0.0637
   76CHL1  H22A 8087   3.002   2.022   7.934 -0.9986  0.2016 -1.1678
   76CHL1  H22B 8088   2.902   1.876   7.891 -0.1098  0.1956 -0.3900
   76CHL1   C23 8089   3.035   1.863   8.076 -0.0026 -0.1729  0.3553
   76CHL1  H23A 8090   3.041   1.752   8.081  3.0874 -0.1182 -0.1618
   76CHL1  H23B 8091   3.139   1.894   8.100  0.0645  0.3623 -0.5927
   76CHL1   C24 8092   2.936   1.918   8.183  0.0472  0.1488 -0.0393
   76CHL1  H24A 8093   2.961   2.024   8.204  1.5784 -0.3872  1.0458
   76CHL1  H24B 8094   2.832   1.920   8.144  0.3145  1.0199 -0.7377
   76CHL1   C25 8095   2.935   1.838   8.312 -0.2355  0.5118  0.1269
   76CHL1   H25 8096   2.898   1.738   8.281  1.6641  0.3207 -1.7917
   76CHL1   C26 8097   3.078   1.807   8.371  0.5312 -0.2984  0.2711
   76CHL1  H26A 8098   3.073   1.739   8.460  1.6630  0.7415  1.1649
   76CHL1  H26B 8099   3.142   1.751   8.301 -0.1246 -2.5551  1.3665
   76CHL1  H26C 8100   3.138   1.898   8.392  0.9875 -0.2364 -1.2147
   76CHL1   C27 8101   2.839   1.900   8.412  0.1882  0.0348  0.5942
   76CHL1  H27A 8102   2.744   1.919   8.359 -1.3257 -2.6375  2.1211
   76CHL1  H27B 8103   2.829   1.823   8.492 -1.4037  1.8129  2.2085
   76CHL1  H27C 8104   2.875   1.995   8.457 -3.1429  2.6358 -1.7540
   77CHL1    C3 8105   4.992   6.731   6.839 -0.7997  0.0801 -0.6171
   77CHL1    H3 8106   4.955   6.836   6.839 -0.3633  0.3358  2.3315
   77CHL1    O3 8107   5.003   6.678   6.705 -0.3730  0.3532 -0.0765
   77CHL1   H3' 8108   5.041   6.590   6.703  0.6613  0.7941 -0.8849
   77CHL1    C4 8109   5.134   6.733   6.895  0.1588 -0.7335  0.3831
   77CHL1   H4A 8110   5.181   6.634   6.879 -1.2187 -1.3381 -0.0268
   77CHL1   H4B 8111   5.181   6.814   6.835  0.0920 -1.0980 -0.1697
   77CHL1    C5 8112   5.139   6.770   7.043  0.2092 -0.2304  0.1247
   77CHL1    C6 8113   5.218   6.868   7.082  0.6746 -0.2742  0.0430
   77CHL1    H6 8114   5.274   6.925   7.006 -0.6985 -0.7976 -1.4226
   77CHL1    C7 8115   5.221   6.918   7.227 -0.5918 -0.4220 -0.1314
   77CHL1   H7A 8116   5.323   6.955   7.252 -0.5201  0.0735 -1.1247
   77CHL1   H7B 8117   5.164   7.012   7.218  2.5174  1.4841 -1.4821
   77CHL1    C8 8118   5.163   6.819   7.330 -0.6763 -0.1612  0.4460
   77CHL1    H8 8119   5.231   6.735   7.356 -0.1294 -0.2342 -1.1048
   77CHL1   C14 8120   5.144   6.896   7.456 -0.4446  0.1183  0.5768
   77CHL1   H14 8121   5.079   6.982   7.427  2.2076  2.1815  0.3111
   77CHL1   C15 8122   5.272   6.944   7.503  0.0543  0.6853  0.7362
   77CHL1  H15A 8123   5.347   6.862   7.501 -0.4979  0.1372 -2.3732
   77CHL1  H15B 8124   5.311   7.028   7.441  2.8169 -0.4211  0.8462
   77CHL1   C16 8125   5.245   6.982   7.649  0.8615  0.1833  0.4307
   77CHL1  H16A 8126   5.329   6.944   7.712  2.3621  0.9906 -0.9891
   77CHL1  H16B 8127   5.250   7.092   7.661  0.3611  0.1332  1.1454
   77CHL1   C17 8128   5.100   6.922   7.673 -0.0782  0.6289 -0.2651
   77CHL1   H17 8129   5.023   7.000   7.654  0.9031  1.2876 -1.7125
   77CHL1   C13 8130   5.079   6.821   7.567  0.3802 -0.2542 -0.6868
   77CHL1   C18 8131   5.161   6.696   7.610 -0.4745 -0.4276 -0.1939
   77CHL1  H18A 8132   5.165   6.637   7.516  0.0162  0.5864 -0.8288
   77CHL1  H18B 8133   5.267   6.719   7.633 -0.6339  0.9647 -0.7355
   77CHL1  H18C 8134   5.121   6.646   7.700  0.2612  1.7847  1.4428
   77CHL1   C12 8135   4.939   6.775   7.514  0.8889  0.5014  0.0225
   77CHL1  H12A 8136   4.885   6.715   7.592 -0.1966  0.7664 -0.5062
   77CHL1  H12B 8137   4.883   6.869   7.496 -1.2342 -0.5430  0.7146
   77CHL1   C11 8138   4.945   6.703   7.382 -0.0411  0.8736  0.4722
   77CHL1  H11A 8139   4.993   6.605   7.404  0.1552  0.0680 -2.9854
   77CHL1  H11B 8140   4.840   6.691   7.348  0.9595  0.5530 -2.8387
   77CHL1    C9 8141   5.028   6.775   7.277 -0.0870  0.8345  0.4405
   77CHL1    H9 8142   4.968   6.866   7.255 -2.8832 -0.9271  0.4069
   77CHL1   C10 8143   5.044   6.697   7.139  1.4540  0.5454 -1.4036
   77CHL1   C19 8144   5.107   6.558   7.175 -0.5431 -0.5544  0.2739
   77CHL1  H19A 8145   5.136   6.509   7.079  0.0175 -1.1870  0.7569
   77CHL1  H19B 8146   5.202   6.568   7.232 -0.1478 -2.0310 -0.0691
   77CHL1  H19C 8147   5.038   6.494   7.234 -2.5078  2.4512  1.4817
   77CHL1    C1 8148   4.902   6.691   7.072  0.6492  0.2450 -0.2090
   77CHL1   H1A 8149   4.835   6.625   7.131  1.6953  1.1109  2.0511
   77CHL1   H1B 8150   4.847   6.788   7.083  1.5956  0.6464  1.1632
   77CHL1    C2 8151   4.899   6.642   6.927  0.3744  0.1819  0.0764
   77CHL1   H2A 8152   4.799   6.652   6.880  0.0277  0.9419  0.9381
   77CHL1   H2B 8153   4.923   6.534   6.922  0.4956  0.2681 -1.9130
   77CHL1   C20 8154   5.088   6.880   7.823  0.1337 -1.0666 -0.5311
   77CHL1   H20 8155   5.174   6.812   7.843  0.8118 -0.1488 -0.2586
   77CHL1   C21 8156   4.955   6.818   7.848  0.1598  0.1709  0.4427
   77CHL1  H21A 8157   4.878   6.858   7.779  0.4952  0.4296  0.2103
   77CHL1  H21B 8158   4.918   6.827   7.953 -1.2117 -0.7963  0.0678
   77CHL1  H21C 8159   4.970   6.709   7.832 -1.3388  0.1103 -0.7810
   77CHL1   C22 8160   5.107   7.003   7.913  0.3937  0.4068 -0.1910
   77CHL1  H22A 8161   5.201   7.060   7.893  0.7521  0.5294  1.6804
   77CHL1  H22B 8162   5.026   7.078   7.901  1.9014  2.0288 -0.5856
   77CHL1   C23 8163   5.124   6.948   8.064 -0.4336 -0.6556 -0.4694
   77CHL1  H23A 8164   5.076   6.848   8.069 -0.7958 -0.7225 -3.6439
   77CHL1  H23B 8165   5.235   6.938   8.070 -0.3765  0.5508  1.3806
   77CHL1   C24 8166   5.084   7.035   8.187 -0.5089 -0.8511  0.2622
   77CHL1  H24A 8167   5.129   7.135   8.168 -0.9407 -1.0885 -2.2685
   77CHL1  H24B 8168   4.974   7.044   8.183 -0.5016 -0.4658  0.7657
   77CHL1   C25 8169   5.139   6.990   8.325 -0.4614 -0.6428  0.3777
   77CHL1   H25 8170   5.249   7.003   8.326 -0.3747 -0.7731 -1.8317
   77CHL1   C26 8171   5.084   7.078   8.441  0.2353 -0.1068  0.4786
   77CHL1  H26A 8172   5.133   7.076   8.541  0.3189  1.7077  0.5136
   77CHL1  H26B 8173   5.087   7.185   8.412 -0.1497 -0.1451  0.2900
   77CHL1  H26C 8174   4.976   7.053   8.446 -0.0132  0.5852 -0.8647
   77CHL1   C27 8175   5.112   6.840   8.346 -0.0013 -0.9692  0.2579
   77CHL1  H27A 8176   5.160   6.776   8.269  1.7675  1.1543 -0.5100
   77CHL1  H27B 8177   5.150   6.807   8.445 -0.5435 -0.3785  0.6729
   77CHL1  H27C 8178   5.001   6.831   8.336  0.0056  0.3202 -1.4223
   78CHL1    C3 8179   5.984   3.050   6.618 -0.7171  0.2774 -0.4301
   78CHL1    H3 8180   6.039   3.133   6.669 -2.5187  1.3868 -0.2262
   78CHL1    O3 8181   5.981   3.074   6.482 -1.0680 -0.4552  0.2179
   78CHL1   H3' 8182   5.921   3.006   6.450 -1.5763 -2.3161  4.4333
   78CHL1    C4 8183   6.046   2.911   6.650 -0.0748 -0.0409 -0.2604
   78CHL1   H4A 8184   5.993   2.841   6.583 -0.7094  0.8217 -0.6814
   78CHL1   H4B 8185   6.151   2.935   6.623  0.1303 -1.1330 -0.4758
   78CHL1    C5 8186   6.026   2.859   6.794  0.1973  0.0917  0.6663
   78CHL1    C6 8187   6.128   2.798   6.861  0.3524 -0.9885 -0.2427
   78CHL1    H6 8188   6.222   2.763   6.816 -0.5938 -3.6184 -0.3739
   78CHL1    C7 8189   6.128   2.758   7.006  0.0489 -0.4831 -0.2805
   78CHL1   H7A 8190   6.164   2.654   7.020 -1.1135 -1.1083 -1.6076
   78CHL1   H7B 8191   6.185   2.837   7.058  0.2676 -0.2188 -0.9140
   78CHL1    C8 8192   5.992   2.785   7.077  1.2268  0.1740 -0.0755
   78CHL1    H8 8193   5.929   2.697   7.053  0.8842  0.2529  0.5171
   78CHL1   C14 8194   6.017   2.799   7.228 -0.2476  0.2257  0.1265
   78CHL1   H14 8195   6.073   2.891   7.255  0.6381 -0.7812  1.9875
   78CHL1   C15 8196   6.103   2.691   7.298 -0.0577 -0.4848 -0.2033
   78CHL1  H15A 8197   6.080   2.589   7.263  0.2109 -0.8365  0.6228
   78CHL1  H15B 8198   6.214   2.706   7.296 -0.1127  0.1497  0.7482
   78CHL1   C16 8199   6.054   2.694   7.450 -0.2774 -0.8263 -0.6161
   78CHL1  H16A 8200   6.022   2.590   7.472  0.8710 -1.1500 -0.3689
   78CHL1  H16B 8201   6.143   2.717   7.513 -1.3121 -0.3879  0.7296
   78CHL1   C17 8202   5.938   2.797   7.457  0.2467  0.0045 -0.1443
   78CHL1   H17 8203   5.966   2.901   7.481 -1.2856  0.8595 -1.8482
   78CHL1   C13 8204   5.893   2.808   7.306  0.2611 -0.2867  0.0750
   78CHL1   C18 8205   5.812   2.681   7.276 -0.1555 -0.4767  0.5481
   78CHL1  H18A 8206   5.719   2.687   7.335  0.6799  0.5993  1.8225
   78CHL1  H18B 8207   5.785   2.680   7.168  0.6782  1.5412  0.2573
   78CHL1  H18C 8208   5.861   2.584   7.301 -0.0720  0.1264  2.9358
   78CHL1   C12 8209   5.822   2.936   7.254  0.1323 -0.0241 -0.4405
   78CHL1  H12A 8210   5.728   2.961   7.307  0.0082 -2.2036  0.4858
   78CHL1  H12B 8211   5.898   3.014   7.275 -0.4287  0.3832  0.1026
   78CHL1   C11 8212   5.800   2.938   7.106 -0.0059 -0.0322 -0.1625
   78CHL1  H11A 8213   5.707   2.879   7.092  1.3660 -2.0044 -1.4480
   78CHL1  H11B 8214   5.765   3.041   7.085  0.8867 -0.1283 -2.5086
   78CHL1    C9 8215   5.922   2.907   7.024 -0.2655 -0.0886  0.3094
   78CHL1    H9 8216   5.995   2.990   7.031  0.3991 -0.7378  1.3798
   78CHL1   C10 8217   5.896   2.901   6.867  0.1388  0.2704 -0.3465
   78CHL1   C19 8218   5.783   2.795   6.855  0.5969 -0.5692  0.2096
   78CHL1  H19A 8219   5.807   2.691   6.886  2.5520 -0.0381  0.6733
   78CHL1  H19B 8220   5.693   2.830   6.909  0.5095 -1.3467  0.5815
   78CHL1  H19C 8221   5.762   2.797   6.746  0.9179 -0.4005  0.1487
   78CHL1    C1 8222   5.841   3.040   6.826 -0.2401  0.1907 -0.1631
   78CHL1   H1A 8223   5.736   3.048   6.861 -0.1287  0.7275  0.0673
   78CHL1   H1B 8224   5.903   3.121   6.870 -2.1647  0.9151  1.3867
   78CHL1    C2 8225   5.841   3.052   6.677 -0.3982  0.5740  0.3373
   78CHL1   H2A 8226   5.790   3.148   6.653 -0.0475  0.7242  0.1742
   78CHL1   H2B 8227   5.777   2.982   6.620 -1.1031  2.3693 -1.1812
   78CHL1   C20 8228   5.833   2.757   7.567 -0.2509  0.3986  0.2323
   78CHL1   H20 8229   5.785   2.662   7.532  2.0283 -1.4000  1.6584
   78CHL1   C21 8230   5.731   2.862   7.588 -0.3717  0.2657  0.2864
   78CHL1  H21A 8231   5.783   2.947   7.638 -0.6954  0.5043  0.2196
   78CHL1  H21B 8232   5.650   2.835   7.659  1.7676  2.3059  3.8290
   78CHL1  H21C 8233   5.685   2.894   7.493 -0.2198 -1.4441 -0.3873
   78CHL1   C22 8234   5.902   2.704   7.705  0.3801  0.5580 -0.8473
   78CHL1  H22A 8235   5.965   2.615   7.685  0.9959  0.7637  0.1381
   78CHL1  H22B 8236   5.969   2.783   7.746  0.8726 -0.2198 -0.1188
   78CHL1   C23 8237   5.807   2.670   7.821  0.0616  0.3191  0.0828
   78CHL1  H23A 8238   5.755   2.759   7.863  0.4064  1.1525 -1.1787
   78CHL1  H23B 8239   5.730   2.595   7.793  1.2525 -0.8723 -0.0776
   78CHL1   C24 8240   5.887   2.591   7.933 -0.2181 -0.5650 -0.4188
   78CHL1  H24A 8241   5.919   2.497   7.884 -1.4868 -0.5787 -1.2828
   78CHL1  H24B 8242   5.979   2.651   7.946  0.3568 -1.1168 -1.7313
   78CHL1   C25 8243   5.809   2.575   8.062 -0.1736 -0.4768 -0.3051
   78CHL1   H25 8244   5.789   2.677   8.101  2.2400  0.3195 -0.9300
   78CHL1   C26 8245   5.678   2.504   8.040  0.0266 -0.4433  0.2118
   78CHL1  H26A 8246   5.628   2.479   8.135  1.1290  0.5465  1.0861
   78CHL1  H26B 8247   5.609   2.572   7.984  0.7441 -0.0882 -0.2635
   78CHL1  H26C 8248   5.690   2.405   7.993 -2.0686 -1.7007  2.1380
   78CHL1   C27 8249   5.887   2.505   8.164 -0.2157 -0.6703  0.7920
   78CHL1  H27A 8250   5.834   2.507   8.262  1.2839  3.2916  1.6954
   78CHL1  H27B 8251   5.912   2.401   8.134  1.3238 -0.2395  0.4982
   78CHL1  H27C 8252   5.981   2.561   8.179  0.1183 -0.2603 -2.1918
   79CHL1    C3 8253   5.009   1.417   6.792 -0.5768 -0.2444  0.3992
   79CHL1    H3 8254   4.965   1.518   6.808 -3.7353 -1.5678  0.9963
   79CHL1    O3 8255   5.028   1.389   6.654 -0.5198  0.0547  0.1611
   79CHL1   H3' 8256   4.942   1.402   6.615 -0.3781  0.1068 -0.1381
   79CHL1    C4 8257   5.136   1.409   6.866  0.1482 -0.1677  0.9912
   79CHL1   H4A 8258   5.190   1.313   6.854  0.6407  0.3413 -1.3722
   79CHL1   H4B 8259   5.203   1.482   6.816 -1.6336  1.9783  1.5562
   79CHL1    C5 8260   5.124   1.438   7.012  0.3955 -0.1290  0.5122
   79CHL1    C6 8261   5.206   1.526   7.072  0.0893 -0.1945 -0.1806
   79CHL1    H6 8262   5.277   1.589   7.017 -1.5283  0.3488 -1.7494
   79CHL1    C7 8263   5.188   1.549   7.223  0.0758 -0.0024 -0.0671
   79CHL1   H7A 8264   5.289   1.574   7.262 -0.0625  2.0430 -0.8921
   79CHL1   H7B 8265   5.136   1.646   7.242 -1.5366 -0.9934  0.8584
   79CHL1    C8 8266   5.120   1.440   7.305  0.2638  0.4148  0.6442
   79CHL1    H8 8267   5.197   1.365   7.334  0.5393 -0.0150 -1.0573
   79CHL1   C14 8268   5.058   1.502   7.429 -0.1217  0.6637 -0.5265
   79CHL1   H14 8269   4.988   1.575   7.384 -1.1375  1.1583  1.7175
   79CHL1   C15 8270   5.148   1.586   7.516  0.5156  0.4069 -0.4574
   79CHL1  H15A 8271   5.243   1.531   7.532  0.8335  0.5815 -1.6743
   79CHL1  H15B 8272   5.183   1.682   7.473  0.5395  0.0426 -1.2650
   79CHL1   C16 8273   5.069   1.597   7.648  0.0858  0.2616  0.2080
   79CHL1  H16A 8274   5.131   1.566   7.735 -0.1798  0.4812  0.4791
   79CHL1  H16B 8275   5.029   1.700   7.664 -1.3746 -0.0795 -1.0451
   79CHL1   C17 8276   4.945   1.497   7.638  0.5815  0.0746  0.0944
   79CHL1   H17 8277   4.867   1.567   7.601  3.6114  3.3858 -0.6160
   79CHL1   C13 8278   4.979   1.398   7.519 -0.1091  0.6130 -0.2503
   79CHL1   C18 8279   5.081   1.293   7.568  0.0532  0.5245 -0.6570
   79CHL1  H18A 8280   5.019   1.216   7.617 -0.5256  1.0167 -0.6054
   79CHL1  H18B 8281   5.134   1.236   7.488  1.6165 -2.3424  2.1789
   79CHL1  H18C 8282   5.164   1.344   7.623 -2.0023  1.1734  2.0932
   79CHL1   C12 8283   4.860   1.341   7.431  0.4531 -0.3340  0.5480
   79CHL1  H12A 8284   4.789   1.280   7.491  1.0350 -0.7604  0.8074
   79CHL1  H12B 8285   4.802   1.433   7.405 -0.2285 -0.6243  1.0186
   79CHL1   C11 8286   4.922   1.280   7.304 -0.3844 -0.4875 -0.6975
   79CHL1  H11A 8287   4.979   1.195   7.347  1.5223  0.8071 -0.5616
   79CHL1  H11B 8288   4.839   1.229   7.250  0.9355 -1.7420 -1.6041
   79CHL1    C9 8289   4.997   1.385   7.223 -0.2395 -0.1315 -0.7135
   79CHL1    H9 8290   4.921   1.466   7.221 -0.3444 -0.2297 -0.7166
   79CHL1   C10 8291   5.022   1.342   7.080 -0.2648 -0.2688  0.4004
   79CHL1   C19 8292   5.080   1.201   7.078 -0.1017 -0.4732  0.1107
   79CHL1  H19A 8293   5.175   1.199   7.135 -0.2503  0.1419  0.3867
   79CHL1  H19B 8294   5.009   1.130   7.127 -0.8914  1.6063  2.1669
   79CHL1  H19C 8295   5.105   1.165   6.976  0.1594 -0.2602  0.0980
   79CHL1    C1 8296   4.885   1.350   7.001  0.5584  0.6325  0.7449
   79CHL1   H1A 8297   4.805   1.286   7.044 -1.8752  1.8528 -1.6106
   79CHL1   H1B 8298   4.845   1.451   7.023 -0.8155 -0.1324  1.9432
   79CHL1    C2 8299   4.900   1.322   6.844 -0.3279  0.2611  0.2382
   79CHL1   H2A 8300   4.808   1.360   6.794  1.6665  2.6919 -1.8810
   79CHL1   H2B 8301   4.921   1.216   6.822 -1.3534  0.0419  0.2882
   79CHL1   C20 8302   4.909   1.444   7.775 -0.1355 -0.8247 -0.3796
   79CHL1   H20 8303   4.976   1.361   7.806 -1.0176 -1.2809  0.3584
   79CHL1   C21 8304   4.775   1.374   7.764  0.2324  0.5338  0.7102
   79CHL1  H21A 8305   4.769   1.291   7.691 -0.3599  1.4608 -0.3388
   79CHL1  H21B 8306   4.690   1.443   7.743 -0.2056 -0.6730 -1.8060
   79CHL1  H21C 8307   4.744   1.340   7.865  0.8521  0.6584  0.9465
   79CHL1   C22 8308   4.909   1.546   7.891 -0.6337  0.9326 -0.2450
   79CHL1  H22A 8309   4.998   1.613   7.895  0.4459 -0.4456 -0.1548
   79CHL1  H22B 8310   4.821   1.608   7.867 -0.4695  0.5036 -2.1029
   79CHL1   C23 8311   4.904   1.488   8.035 -0.7119  0.1832 -0.5374
   79CHL1  H23A 8312   4.811   1.428   8.042 -0.6319  0.2049  1.0011
   79CHL1  H23B 8313   4.984   1.412   8.049 -2.0319 -1.7987 -2.8591
   79CHL1   C24 8314   4.908   1.590   8.149 -0.5263  0.4493  0.2385
   79CHL1  H24A 8315   5.006   1.642   8.149  0.1838 -0.7011  3.0513
   79CHL1  H24B 8316   4.830   1.663   8.119 -0.9049 -0.1974 -0.3835
   79CHL1   C25 8317   4.888   1.532   8.286 -0.8662  0.2104  0.1212
   79CHL1   H25 8318   4.787   1.487   8.287 -1.4142  1.3977  0.6158
   79CHL1   C26 8319   4.990   1.422   8.332 -0.1122 -0.1378 -0.0829
   79CHL1  H26A 8320   5.028   1.359   8.248 -0.0682 -1.6794  1.0363
   79CHL1  H26B 8321   5.074   1.474   8.381 -0.0660  1.9127 -2.1626
   79CHL1  H26C 8322   4.940   1.358   8.408  0.3665  0.8797  1.1099
   79CHL1   C27 8323   4.894   1.640   8.392  0.0212  0.4555  0.3403
   79CHL1  H27A 8324   4.859   1.607   8.492  1.9690  1.5944  1.4554
   79CHL1  H27B 8325   4.996   1.681   8.405  0.3104  0.0719 -0.5998
   79CHL1  H27C 8326   4.822   1.719   8.359 -1.5566 -1.5299 -1.2811
   80CHL1    C3 8327   2.047   5.738   6.633 -0.6715  0.7955  0.5336
   80CHL1    H3 8328   1.944   5.704   6.653  0.2071 -1.7511  1.0704
   80CHL1    O3 8329   2.056   5.748   6.492 -0.2216  0.1757  0.4544
   80CHL1   H3' 8330   2.024   5.836   6.469  0.8510  0.4296 -0.0909
   80CHL1    C4 8331   2.055   5.880   6.701  0.6134  0.3593  0.3639
   80CHL1   H4A 8332   2.150   5.928   6.670  0.2506  0.9303  0.1173
   80CHL1   H4B 8333   1.974   5.936   6.651  0.4154 -2.7943 -3.2760
   80CHL1    C5 8334   2.038   5.880   6.850  0.0676 -0.3115  0.0968
   80CHL1    C6 8335   1.943   5.956   6.908  0.1443 -0.0173 -0.9570
   80CHL1    H6 8336   1.884   6.024   6.845 -0.6013  0.1324 -0.1110
   80CHL1    C7 8337   1.937   5.959   7.058 -0.1737 -0.0794  0.7625
   80CHL1   H7A 8338   1.934   6.063   7.096 -2.0127 -0.4484  1.7960
   80CHL1   H7B 8339   1.839   5.911   7.082 -1.3621  2.2674  0.8924
   80CHL1    C8 8340   2.040   5.884   7.141  0.1824  0.0800  0.0880
   80CHL1    H8 8341   2.129   5.951   7.140  1.0150 -0.9154  2.1110
   80CHL1   C14 8342   1.988   5.845   7.279  0.8619 -0.4377 -0.5126
   80CHL1   H14 8343   1.894   5.789   7.260  1.7482 -1.4081 -2.3333
   80CHL1   C15 8344   1.951   5.957   7.378 -0.1636 -0.3470  0.0796
   80CHL1  H15A 8345   2.037   6.022   7.404 -1.5071  0.0606  4.3782
   80CHL1  H15B 8346   1.862   6.013   7.342  0.5115  0.6337 -0.1102
   80CHL1   C16 8347   1.925   5.885   7.514  0.4141 -0.0428 -0.2419
   80CHL1  H16A 8348   1.980   5.936   7.596  0.2840 -1.5710  0.8338
   80CHL1  H16B 8349   1.820   5.875   7.551  0.8066  1.5104  1.4436
   80CHL1   C17 8350   1.980   5.739   7.494 -0.3340 -0.3920  1.0044
   80CHL1   H17 8351   1.895   5.676   7.461  0.6618 -0.2290 -2.2005
   80CHL1   C13 8352   2.072   5.747   7.372 -0.3674 -0.7778  0.5167
   80CHL1   C18 8353   2.201   5.815   7.402  1.0494  0.1236  0.0870
   80CHL1  H18A 8354   2.267   5.739   7.450  0.3041 -0.4571  0.2175
   80CHL1  H18B 8355   2.247   5.851   7.308 -2.0024  0.5811 -1.3505
   80CHL1  H18C 8356   2.196   5.902   7.471  2.9263  0.6983 -0.4373
   80CHL1   C12 8357   2.077   5.618   7.281 -0.0395 -1.0611  0.3250
   80CHL1  H12A 8358   2.122   5.534   7.338 -2.3075 -2.8414 -0.3825
   80CHL1  H12B 8359   1.974   5.584   7.257 -0.2018 -0.8371  0.7018
   80CHL1   C11 8360   2.154   5.651   7.153 -0.2742 -0.5142  0.8518
   80CHL1  H11A 8361   2.254   5.697   7.168 -0.2232 -0.0623 -0.6967
   80CHL1  H11B 8362   2.182   5.557   7.102 -0.0696  0.2522 -0.4961
   80CHL1    C9 8363   2.075   5.749   7.062  0.2284  0.3148 -0.6967
   80CHL1    H9 8364   1.972   5.708   7.053  1.5062 -3.0553 -1.5281
   80CHL1   C10 8365   2.121   5.773   6.916 -0.2388 -0.0234 -0.1886
   80CHL1   C19 8366   2.270   5.818   6.933 -0.2088  0.1075 -0.0723
   80CHL1  H19A 8367   2.273   5.911   6.994  1.0271 -0.7222  1.1879
   80CHL1  H19B 8368   2.327   5.731   6.973  0.4518  0.5249 -0.0905
   80CHL1  H19C 8369   2.307   5.839   6.830  0.0527 -0.0496 -0.0109
   80CHL1    C1 8370   2.117   5.635   6.842 -0.1258 -0.2828 -0.1646
   80CHL1   H1A 8371   2.199   5.575   6.888 -0.4643  1.1062  2.4397
   80CHL1   H1B 8372   2.024   5.578   6.860  0.0896 -0.9355 -1.0411
   80CHL1    C2 8373   2.144   5.642   6.693 -0.6055 -0.2989 -0.2035
   80CHL1   H2A 8374   2.142   5.547   6.635  0.1414 -0.3158 -0.2162
   80CHL1   H2B 8375   2.244   5.686   6.675 -0.3843 -0.6075  0.2442
   80CHL1   C20 8376   2.047   5.690   7.613 -0.1572 -0.0103  0.1324
   80CHL1   H20 8377   2.135   5.755   7.633 -0.2856  1.0853 -2.4478
   80CHL1   C21 8378   2.094   5.545   7.589  0.8371 -0.3688 -0.7377
   80CHL1  H21A 8379   2.108   5.484   7.681 -1.8931 -1.5231 -0.9906
   80CHL1  H21B 8380   2.193   5.534   7.539  0.8122  1.0829 -1.1669
   80CHL1  H21C 8381   2.009   5.491   7.542  0.2180  2.0551 -2.6580
   80CHL1   C22 8382   1.958   5.686   7.735  0.5337 -0.0047  1.4283
   80CHL1  H22A 8383   2.016   5.651   7.823  0.7054 -1.4524  0.7640
   80CHL1  H22B 8384   1.924   5.789   7.760 -1.6194 -0.4739  0.6215
   80CHL1   C23 8385   1.832   5.603   7.716 -0.1867  0.0937 -0.2509
   80CHL1  H23A 8386   1.771   5.615   7.623  0.7302  1.0226 -0.7467
   80CHL1  H23B 8387   1.866   5.497   7.712 -0.7079 -0.2613  2.7721
   80CHL1   C24 8388   1.728   5.603   7.834 -0.7450 -0.8936 -0.0291
   80CHL1  H24A 8389   1.687   5.704   7.858 -1.6431 -1.2135 -0.1831
   80CHL1  H24B 8390   1.637   5.543   7.811 -0.4229 -1.5553  0.4166
   80CHL1   C25 8391   1.785   5.556   7.970  0.0084 -1.0036 -0.1017
   80CHL1   H25 8392   1.862   5.629   8.004  0.7410 -1.2532 -1.1843
   80CHL1   C26 8393   1.680   5.552   8.076 -0.0965  0.0597  0.2968
   80CHL1  H26A 8394   1.648   5.656   8.100  1.3307  0.2085  1.7720
   80CHL1  H26B 8395   1.589   5.491   8.057 -0.3909  0.7027 -0.4432
   80CHL1  H26C 8396   1.722   5.529   8.176  1.4622  1.0037 -0.1078
   80CHL1   C27 8397   1.843   5.417   7.966 -0.1226  0.2844 -0.4697
   80CHL1  H27A 8398   1.936   5.414   7.906  0.1118  0.2242 -0.1113
   80CHL1  H27B 8399   1.859   5.382   8.070 -1.7842  0.6467 -0.0482
   80CHL1  H27C 8400   1.780   5.338   7.920  0.9146 -1.9125  1.6612
   81CHL1    C3 8401   6.343   6.079   6.379  0.4340  0.2581  0.5666
   81CHL1    H3 8402   6.358   6.187   6.399  0.7612  0.3011  0.1164
   81CHL1    O3 8403   6.369   6.058   6.246 -0.8275  0.2202  0.3911
   81CHL1   H3' 8404   6.446   6.111   6.228 -0.4702 -0.6634 -0.8545
   81CHL1    C4 8405   6.440   5.998   6.461 -0.1011 -0.1292 -0.1979
   81CHL1   H4A 8406   6.439   5.893   6.425 -0.5936 -0.1545 -0.1121
   81CHL1   H4B 8407   6.546   6.026   6.446 -0.1547  0.4117  0.4054
   81CHL1    C5 8408   6.410   5.997   6.610  0.0566 -0.2294  0.3021
   81CHL1    C6 8409   6.507   6.017   6.702  0.4185  0.6741  0.3905
   81CHL1    H6 8410   6.607   6.031   6.660  0.2272 -0.2487 -0.4320
   81CHL1    C7 8411   6.491   6.013   6.848 -0.2529 -0.8145  0.1256
   81CHL1   H7A 8412   6.571   5.954   6.898 -0.2188  0.3556  1.5500
   81CHL1   H7B 8413   6.494   6.120   6.876  1.3901 -1.0692  1.0944
   81CHL1    C8 8414   6.347   5.971   6.889  0.7290  0.3651 -0.1789
   81CHL1    H8 8415   6.348   5.861   6.877  5.7317  0.1636 -0.1268
   81CHL1   C14 8416   6.323   6.003   7.038  0.1534 -0.1004 -0.0777
   81CHL1   H14 8417   6.316   6.113   7.036  0.2402 -0.0169  1.8558
   81CHL1   C15 8418   6.435   5.964   7.132 -0.0041  0.4065 -0.6086
   81CHL1  H15A 8419   6.469   5.862   7.102  0.7237  0.5008 -0.1290
   81CHL1  H15B 8420   6.521   6.033   7.140  0.9227 -0.7538 -0.3344
   81CHL1   C16 8421   6.362   5.962   7.267 -0.6494 -0.5472 -0.1282
   81CHL1  H16A 8422   6.371   5.863   7.316 -0.2826  0.0979  1.1620
   81CHL1  H16B 8423   6.395   6.046   7.331 -1.1678  0.4627 -1.1496
   81CHL1   C17 8424   6.212   5.995   7.241  0.3128 -1.1015  0.1132
   81CHL1   H17 8425   6.203   6.105   7.238  0.4343 -1.0514  1.1231
   81CHL1   C13 8426   6.192   5.955   7.095 -0.2319  0.0727  0.1402
   81CHL1   C18 8427   6.197   5.803   7.081  0.8579  0.7312 -0.1108
   81CHL1  H18A 8428   6.192   5.778   6.972  1.1329  0.3403 -0.0378
   81CHL1  H18B 8429   6.291   5.754   7.114  1.7512  0.3424 -2.9179
   81CHL1  H18C 8430   6.103   5.759   7.120  1.6773 -1.1271 -0.1469
   81CHL1   C12 8431   6.072   6.023   7.003 -0.5545  0.2197 -1.1285
   81CHL1  H12A 8432   5.975   5.980   7.036  0.2958 -1.8931 -1.2547
   81CHL1  H12B 8433   6.063   6.132   7.023 -2.7826 -0.4271  2.2319
   81CHL1   C11 8434   6.093   5.996   6.853 -0.5071  0.4173 -0.2323
   81CHL1  H11A 8435   6.061   5.890   6.844  4.3879 -1.2088 -1.2047
   81CHL1  H11B 8436   6.018   6.052   6.792  2.4679  3.1056 -1.7762
   81CHL1    C9 8437   6.237   6.031   6.795  0.4158  0.4192  0.2658
   81CHL1    H9 8438   6.254   6.140   6.806  0.2125  0.3690  1.1861
   81CHL1   C10 8439   6.261   5.980   6.648 -0.3244 -1.3378 -0.3714
   81CHL1   C19 8440   6.235   5.827   6.631  0.3910  0.1314  0.1220
   81CHL1  H19A 8441   6.263   5.793   6.529 -1.4260 -1.9669  0.2516
   81CHL1  H19B 8442   6.295   5.764   6.701  2.0227  3.1890  1.6682
   81CHL1  H19C 8443   6.125   5.818   6.643  0.2194  0.7811 -0.8457
   81CHL1    C1 8444   6.162   6.054   6.554  0.3659 -0.2626  0.5434
   81CHL1   H1A 8445   6.060   6.016   6.579  0.4658  0.4351  2.1684
   81CHL1   H1B 8446   6.166   6.163   6.576  1.4287 -0.2639  0.3972
   81CHL1    C2 8447   6.186   6.046   6.402 -0.7920 -0.3980 -0.9236
   81CHL1   H2A 8448   6.118   6.097   6.330 -0.9948 -0.1601 -0.5641
   81CHL1   H2B 8449   6.169   5.938   6.385 -0.6382 -1.0021  2.1781
   81CHL1   C20 8450   6.123   5.949   7.355 -0.3883 -0.1810 -0.2475
   81CHL1   H20 8451   6.135   5.843   7.386 -1.0818  0.1121  1.1087
   81CHL1   C21 8452   5.976   5.957   7.311 -0.1049  0.6603  0.0256
   81CHL1  H21A 8453   5.914   5.929   7.398  0.5814  2.9497  1.3441
   81CHL1  H21B 8454   5.951   5.896   7.221  0.6957  2.3821 -1.4372
   81CHL1  H21C 8455   5.946   6.059   7.278  0.5825  0.6324 -0.7119
   81CHL1   C22 8456   6.134   6.028   7.492 -0.3117  0.2467 -0.0313
   81CHL1  H22A 8457   6.237   6.071   7.498 -0.0480 -0.2935 -0.5756
   81CHL1  H22B 8458   6.067   6.114   7.474  1.6477  1.3420 -2.8624
   81CHL1   C23 8459   6.103   5.928   7.617 -0.0137 -0.1709  0.0688
   81CHL1  H23A 8460   5.996   5.905   7.596 -0.0723 -1.7087  1.8288
   81CHL1  H23B 8461   6.169   5.840   7.603  0.1864  0.2456 -2.0797
   81CHL1   C24 8462   6.126   6.004   7.746 -0.1288 -0.1539  0.3327
   81CHL1  H24A 8463   6.234   6.029   7.747 -0.4638  1.6581 -1.6461
   81CHL1  H24B 8464   6.076   6.104   7.746  1.4931  0.7551  2.5219
   81CHL1   C25 8465   6.095   5.929   7.877 -0.1176  0.2279 -0.0154
   81CHL1   H25 8466   6.141   5.830   7.855  0.0595  0.1616  0.6556
   81CHL1   C26 8467   6.156   5.990   8.001  1.0945  0.3382 -0.9939
   81CHL1  H26A 8468   6.113   6.091   8.012 -0.7841 -0.5175 -0.0276
   81CHL1  H26B 8469   6.129   5.924   8.087  2.6685 -0.5600 -1.1345
   81CHL1  H26C 8470   6.267   5.996   7.989  1.2082 -1.9703 -1.5716
   81CHL1   C27 8471   5.949   5.900   7.892 -0.2744 -0.2270 -0.4122
   81CHL1  H27A 8472   5.922   5.847   7.799  0.9698 -0.9725 -0.3630
   81CHL1  H27B 8473   5.918   5.840   7.980 -0.6450 -3.0533 -2.3612
   81CHL1  H27C 8474   5.898   5.995   7.922  0.2610 -0.9447  3.2598
   82CHL1    C3 8475   0.976   6.705   6.526  0.3555  0.0206 -0.3791
   82CHL1    H3 8476   1.080   6.689   6.561 -0.0038 -1.8785 -0.0752
   82CHL1    O3 8477   0.983   6.726   6.388  0.1036 -0.1397 -0.8328
   82CHL1   H3' 8478   0.909   6.783   6.364 -0.5424 -0.9894 -0.9185
   82CHL1    C4 8479   0.877   6.596   6.561 -0.6491 -0.1000  0.4383
   82CHL1   H4A 8480   0.776   6.624   6.525 -1.1814 -1.4938  0.8018
   82CHL1   H4B 8481   0.914   6.504   6.511  0.2980 -0.1682  1.2157
   82CHL1    C5 8482   0.879   6.577   6.713 -0.2989 -0.2234 -0.3197
   82CHL1    C6 8483   0.908   6.458   6.769  0.1702  0.1776 -0.0998
   82CHL1    H6 8484   0.926   6.369   6.707 -1.9349  0.2964 -0.9523
   82CHL1    C7 8485   0.895   6.432   6.917 -0.4340 -1.2766 -0.1431
   82CHL1   H7A 8486   0.839   6.337   6.935 -0.4094 -1.8316 -2.7223
   82CHL1   H7B 8487   0.997   6.425   6.962 -0.0828  0.7491 -0.5387
   82CHL1    C8 8488   0.816   6.544   6.994 -0.1425  0.2291 -0.7411
   82CHL1    H8 8489   0.709   6.535   6.965  0.3624  1.5851 -3.3305
   82CHL1   C14 8490   0.844   6.537   7.145 -0.4023  0.3528 -1.0184
   82CHL1   H14 8491   0.953   6.553   7.158 -0.7984  1.9811  0.6904
   82CHL1   C15 8492   0.817   6.410   7.223 -0.1544 -0.5658 -0.8285
   82CHL1  H15A 8493   0.721   6.366   7.188 -0.9877  0.0079  0.6790
   82CHL1  H15B 8494   0.897   6.336   7.203  1.0732  0.6523 -0.5781
   82CHL1   C16 8495   0.813   6.456   7.375 -0.1656  0.2690  0.0970
   82CHL1  H16A 8496   0.714   6.430   7.419 -0.1849 -0.1157 -0.1759
   82CHL1  H16B 8497   0.886   6.394   7.432 -1.9755  0.2820  2.6200
   82CHL1   C17 8498   0.840   6.606   7.372 -0.4105 -0.0036  0.2309
   82CHL1   H17 8499   0.948   6.631   7.374 -0.8641  2.2559 -0.7475
   82CHL1   C13 8500   0.787   6.648   7.231 -0.4585  0.1589  0.1343
   82CHL1   C18 8501   0.632   6.638   7.229  0.0842 -0.3249 -0.4966
   82CHL1  H18A 8502   0.591   6.633   7.126 -0.0005 -2.8009 -0.4119
   82CHL1  H18B 8503   0.585   6.555   7.287 -3.0924  0.9639 -1.0035
   82CHL1  H18C 8504   0.596   6.736   7.266 -2.1034 -0.9562 -0.8159
   82CHL1   C12 8505   0.843   6.786   7.173 -0.3518 -0.2271  0.1619
   82CHL1  H12A 8506   0.797   6.868   7.233 -0.5965  0.1181 -0.4968
   82CHL1  H12B 8507   0.952   6.777   7.194 -0.3888 -0.6463  0.1952
   82CHL1   C11 8508   0.811   6.797   7.024 -0.0132 -0.0942 -0.6617
   82CHL1  H11A 8509   0.701   6.794   7.012  0.1708 -1.8964 -2.4391
   82CHL1  H11B 8510   0.851   6.891   6.979  0.0902  0.1538 -0.0652
   82CHL1    C9 8511   0.862   6.682   6.938 -1.0998 -0.7189 -0.1948
   82CHL1    H9 8512   0.972   6.691   6.944 -1.3095  2.4389  0.6127
   82CHL1   C10 8513   0.836   6.710   6.787  0.6181  0.3378 -0.1881
   82CHL1   C19 8514   0.685   6.733   6.757  0.4076 -0.1897  0.2902
   82CHL1  H19A 8515   0.624   6.662   6.816  0.7730 -0.8498 -0.1079
   82CHL1  H19B 8516   0.652   6.828   6.804  0.0531 -0.8674  1.4519
   82CHL1  H19C 8517   0.670   6.751   6.648  1.6385  2.4550  0.4652
   82CHL1    C1 8518   0.898   6.836   6.739  1.2783 -0.0272 -0.0688
   82CHL1   H1A 8519   0.842   6.927   6.769 -1.7783 -1.9795  0.6940
   82CHL1   H1B 8520   0.996   6.850   6.788  1.1558 -0.2979  0.2602
   82CHL1    C2 8521   0.925   6.843   6.581  0.2361 -0.5532 -0.4048
   82CHL1   H2A 8522   0.991   6.933   6.575 -2.2290  1.5704  1.8388
   82CHL1   H2B 8523   0.824   6.858   6.537  0.2687 -0.5629 -0.4823
   82CHL1   C20 8524   0.773   6.679   7.494 -0.5276  0.1565 -0.7144
   82CHL1   H20 8525   0.663   6.667   7.484 -0.4068  0.3356 -2.6810
   82CHL1   C21 8526   0.798   6.834   7.508  0.0560  0.2169 -0.1988
   82CHL1  H21A 8527   0.757   6.888   7.419 -0.3527  0.1754 -0.0382
   82CHL1  H21B 8528   0.905   6.860   7.493  0.0207 -0.5758 -2.2121
   82CHL1  H21C 8529   0.749   6.891   7.589 -1.6591 -0.4173 -0.7389
   82CHL1   C22 8530   0.806   6.596   7.621 -0.0357  0.9815  0.0207
   82CHL1  H22A 8531   0.749   6.500   7.613 -0.0894  0.9480  0.7254
   82CHL1  H22B 8532   0.914   6.572   7.611 -0.1991  0.6472 -1.0431
   82CHL1   C23 8533   0.772   6.650   7.760 -0.7873  0.5952 -0.3612
   82CHL1  H23A 8534   0.838   6.739   7.769  0.7776 -0.5035 -0.5389
   82CHL1  H23B 8535   0.665   6.679   7.770 -0.9663  0.0692 -0.7066
   82CHL1   C24 8536   0.819   6.556   7.872 -0.0244 -0.0809  0.1667
   82CHL1  H24A 8537   0.738   6.481   7.881 -0.8946  0.6712 -1.0904
   82CHL1  H24B 8538   0.915   6.514   7.837  0.2185  2.5661 -2.8407
   82CHL1   C25 8539   0.841   6.622   8.015 -0.2946  0.1379  0.0945
   82CHL1   H25 8540   0.927   6.687   7.987  1.5349 -1.5991  1.3139
   82CHL1   C26 8541   0.725   6.694   8.063  0.1924  0.4611  0.0305
   82CHL1  H26A 8542   0.651   6.612   8.080  2.1208 -1.0512  1.6515
   82CHL1  H26B 8543   0.749   6.745   8.158 -0.7526  1.2881 -0.1575
   82CHL1  H26C 8544   0.697   6.781   8.000  0.0604  0.1728 -0.3151
   82CHL1   C27 8545   0.888   6.517   8.113 -0.6853 -0.2748  0.2574
   82CHL1  H27A 8546   0.914   6.561   8.212 -0.3335  1.3828 -0.5297
   82CHL1  H27B 8547   0.807   6.443   8.128 -0.1956 -0.6140  1.3192
   82CHL1  H27C 8548   0.971   6.459   8.069  0.4654  1.1918  0.4115
   83CHL1    C3 8549   3.929   1.068   6.714  0.1018  0.2628  0.4155
   83CHL1    H3 8550   3.909   1.169   6.756 -0.1844  0.4980 -0.2701
   83CHL1    O3 8551   3.925   1.064   6.569 -0.0846  0.2122 -0.1982
   83CHL1   H3' 8552   3.913   0.970   6.552  0.4885 -0.2305  1.6299
   83CHL1    C4 8553   4.067   1.018   6.764 -0.0593 -0.2054  0.3653
   83CHL1   H4A 8554   4.098   0.928   6.707  0.6407  0.9737 -1.1981
   83CHL1   H4B 8555   4.138   1.096   6.730 -1.8573  0.7850 -1.3299
   83CHL1    C5 8556   4.086   1.003   6.915 -0.4194 -0.0930 -0.1218
   83CHL1    C6 8557   4.185   1.054   6.981 -0.0901 -0.7314 -0.0696
   83CHL1    H6 8558   4.256   1.118   6.926  1.6383 -3.3223 -1.0502
   83CHL1    C7 8559   4.213   1.044   7.133  0.2390 -0.1986  1.0622
   83CHL1   H7A 8560   4.310   0.993   7.152  1.2027  0.1360 -2.3947
   83CHL1   H7B 8561   4.202   1.140   7.189 -3.3965 -0.3811  0.9050
   83CHL1    C8 8562   4.110   0.950   7.201 -0.1016  0.1325  0.5019
   83CHL1    H8 8563   4.137   0.843   7.185 -2.0409 -0.2528 -0.5847
   83CHL1   C14 8564   4.104   0.991   7.351 -1.3025 -0.6856 -0.3181
   83CHL1   H14 8565   4.066   1.096   7.351 -0.6457 -0.3908 -2.2147
   83CHL1   C15 8566   4.231   1.007   7.423 -0.1165  0.3165 -0.1695
   83CHL1  H15A 8567   4.294   0.921   7.393  0.1636  0.4013  0.1763
   83CHL1  H15B 8568   4.290   1.096   7.393  1.8814 -0.9689 -0.2252
   83CHL1   C16 8569   4.195   1.010   7.575 -0.2182  0.8616  0.3896
   83CHL1  H16A 8570   4.252   0.930   7.627 -0.9660 -1.8898 -2.6916
   83CHL1  H16B 8571   4.225   1.108   7.619  1.5804  0.1535  0.8064
   83CHL1   C17 8572   4.039   0.985   7.577  0.5331 -0.5593  0.0961
   83CHL1   H17 8573   3.997   1.087   7.571  0.3024 -0.4961  2.1794
   83CHL1   C13 8574   4.011   0.912   7.435  0.5047  0.4744 -0.2117
   83CHL1   C18 8575   4.062   0.765   7.434  0.2742 -0.0806  0.4440
   83CHL1  H18A 8576   4.083   0.728   7.332  1.2197 -2.3874  1.3800
   83CHL1  H18B 8577   4.158   0.755   7.491  2.0809  1.9806 -2.0254
   83CHL1  H18C 8578   3.982   0.697   7.471 -2.2134  2.2779 -0.3100
   83CHL1   C12 8579   3.867   0.915   7.366  0.0770  0.1603 -0.3882
   83CHL1  H12A 8580   3.813   0.836   7.423  1.8586 -1.1132 -0.3719
   83CHL1  H12B 8581   3.811   1.010   7.381 -1.4417 -0.7331 -0.1855
   83CHL1   C11 8582   3.869   0.877   7.214 -0.2916  0.4407  0.2782
   83CHL1  H11A 8583   3.892   0.768   7.208  0.7211  0.6646 -0.2491
   83CHL1  H11B 8584   3.768   0.894   7.170 -0.2407 -0.6906 -0.3260
   83CHL1    C9 8585   3.967   0.959   7.135  0.1344  0.0892  0.4632
   83CHL1    H9 8586   3.935   1.064   7.148  1.4538  0.5308  0.2280
   83CHL1   C10 8587   3.973   0.929   6.982 -0.0617 -0.4351 -0.4543
   83CHL1   C19 8588   3.990   0.782   6.961 -0.0328 -0.5897  0.3309
   83CHL1  H19A 8589   3.906   0.723   7.006 -1.7941  2.2219  0.9801
   83CHL1  H19B 8590   3.999   0.747   6.856  1.2950 -1.0740  0.5915
   83CHL1  H19C 8591   4.083   0.754   7.014  0.3499  2.1218  1.1994
   83CHL1    C1 8592   3.831   0.963   6.923  0.1559  0.2205  0.5832
   83CHL1   H1A 8593   3.752   0.896   6.964  0.8268  0.0313  1.5910
   83CHL1   H1B 8594   3.801   1.066   6.951 -0.7664  0.2202 -0.3261
   83CHL1    C2 8595   3.829   0.964   6.771  0.1128  0.0288  0.2620
   83CHL1   H2A 8596   3.725   0.986   6.737  0.8912  0.5515 -1.9482
   83CHL1   H2B 8597   3.859   0.863   6.736  0.6714 -0.4529  2.0418
   83CHL1   C20 8598   3.985   0.920   7.695 -0.1933  0.2036 -0.5087
   83CHL1   H20 8599   4.006   0.811   7.703 -2.8657 -0.2417  2.6001
   83CHL1   C21 8600   3.831   0.930   7.699  0.1245 -0.5824  0.8663
   83CHL1  H21A 8601   3.786   0.859   7.627 -1.7863 -0.9010  2.2602
   83CHL1  H21B 8602   3.809   1.039   7.689 -2.2642 -0.8060  2.5688
   83CHL1  H21C 8603   3.788   0.896   7.796 -0.0895 -1.1079  0.5905
   83CHL1   C22 8604   4.049   0.986   7.820 -0.6624  0.2450  0.5501
   83CHL1  H22A 8605   4.159   0.983   7.804 -0.9448  0.2845 -1.8868
   83CHL1  H22B 8606   4.018   1.092   7.826  1.4298  1.1944 -2.6238
   83CHL1   C23 8607   4.024   0.917   7.953  0.3766 -0.0665  0.4298
   83CHL1  H23A 8608   3.915   0.910   7.972  0.2559 -1.6408 -0.6387
   83CHL1  H23B 8609   4.050   0.809   7.949 -1.2502 -0.4780  0.0210
   83CHL1   C24 8610   4.106   0.978   8.066 -0.7111 -0.0948 -0.6049
   83CHL1  H24A 8611   4.216   0.963   8.057 -0.5077 -0.2873  1.6205
   83CHL1  H24B 8612   4.083   1.087   8.070  0.0695  0.0294  1.9349
   83CHL1   C25 8613   4.058   0.928   8.198  0.2978 -0.3809 -0.4295
   83CHL1   H25 8614   3.947   0.927   8.197  0.2889 -0.7692  0.2530
   83CHL1   C26 8615   4.110   0.789   8.224 -0.3068 -0.3067  0.7178
   83CHL1  H26A 8616   4.220   0.799   8.216 -0.0522 -2.6115  0.8227
   83CHL1  H26B 8617   4.079   0.757   8.326  2.3956 -0.5207  1.5596
   83CHL1  H26C 8618   4.073   0.717   8.149 -1.1187  0.1170  0.7064
   83CHL1   C27 8619   4.105   1.013   8.322 -0.1127 -0.1607  0.0975
   83CHL1  H27A 8620   4.214   0.996   8.336  0.2231 -0.7988 -2.6821
   83CHL1  H27B 8621   4.070   1.119   8.332 -0.7567 -0.4220  0.7126
   83CHL1  H27C 8622   4.050   0.971   8.408  0.1806 -0.4272  0.1565
   84CHL1    C3 8623   2.231   4.040   6.261  1.1251  0.6555  0.1221
   84CHL1    H3 8624   2.212   3.930   6.265  0.8719  0.6771 -0.4394
   84CHL1    O3 8625   2.245   4.070   6.124 -0.0293  0.2650 -0.5917
   84CHL1   H3' 8626   2.236   4.164   6.110 -2.0989  0.3572  1.0030
   84CHL1    C4 8627   2.108   4.116   6.307  0.1763  0.0471  0.1809
   84CHL1   H4A 8628   2.119   4.226   6.296  2.8537 -0.2216 -0.6740
   84CHL1   H4B 8629   2.022   4.083   6.245 -1.5980 -0.7712  2.9215
   84CHL1    C5 8630   2.078   4.088   6.452  0.6766 -0.1093  0.7609
   84CHL1    C6 8631   1.958   4.036   6.489  0.4830  0.1656  0.5673
   84CHL1    H6 8632   1.890   4.017   6.405  1.3174 -1.5779  0.2370
   84CHL1    C7 8633   1.919   3.994   6.628 -0.1412 -0.0068 -0.0327
   84CHL1   H7A 8634   1.816   4.031   6.648  0.2700  0.4051  1.3982
   84CHL1   H7B 8635   1.934   3.884   6.637  1.3753  0.2089  0.3411
   84CHL1    C8 8636   2.012   4.064   6.734  0.1988 -0.2120 -0.0402
   84CHL1    H8 8637   1.992   4.173   6.739 -1.7801 -0.4825 -1.0272
   84CHL1   C14 8638   1.989   3.999   6.862 -0.1190 -0.1325  0.4685
   84CHL1   H14 8639   2.011   3.890   6.857 -1.5619 -0.3694 -1.7857
   84CHL1   C15 8640   1.852   4.013   6.924 -0.7508 -0.2670  0.3035
   84CHL1  H15A 8641   1.814   4.117   6.918 -0.2863  0.0861  2.5714
   84CHL1  H15B 8642   1.773   3.952   6.874 -1.4385  2.0721 -1.6240
   84CHL1   C16 8643   1.870   3.982   7.067  1.2855 -1.0132 -0.3869
   84CHL1  H16A 8644   1.835   4.065   7.133  1.2120 -1.8451  0.6511
   84CHL1  H16B 8645   1.832   3.887   7.109  2.1403 -0.5872  1.4394
   84CHL1   C17 8646   2.024   3.982   7.091  0.2953  0.2753 -0.1165
   84CHL1   H17 8647   2.043   3.872   7.084  0.3672  0.3958 -2.3456
   84CHL1   C13 8648   2.091   4.053   6.971  0.3085 -0.2321 -0.3951
   84CHL1   C18 8649   2.090   4.208   6.987  0.5453  0.0289  0.6358
   84CHL1  H18A 8650   1.993   4.247   7.022 -1.0590 -2.2196 -1.0146
   84CHL1  H18B 8651   2.172   4.236   7.057 -0.4967 -1.9676  2.7450
   84CHL1  H18C 8652   2.115   4.257   6.890 -0.2776  0.5782  0.6881
   84CHL1   C12 8653   2.228   4.002   6.929  0.7226  0.5317  0.1664
   84CHL1  H12A 8654   2.305   4.030   7.004  0.4685 -0.2563  0.7380
   84CHL1  H12B 8655   2.226   3.891   6.924 -0.7142  0.5483 -4.1086
   84CHL1   C11 8656   2.270   4.057   6.792  0.3513 -0.2854 -0.5593
   84CHL1  H11A 8657   2.293   4.164   6.809  2.1474 -0.7578  0.1515
   84CHL1  H11B 8658   2.363   4.009   6.755  1.4389  1.7277 -0.5846
   84CHL1    C9 8659   2.155   4.042   6.685 -0.0129 -1.4623  0.2348
   84CHL1    H9 8660   2.160   3.933   6.666  0.7283 -1.5346  0.8139
   84CHL1   C10 8661   2.198   4.116   6.555  0.7025 -0.1606  0.2230
   84CHL1   C19 8662   2.202   4.276   6.574 -0.5533 -0.8107 -0.5154
   84CHL1  H19A 8663   2.210   4.322   6.473  0.7227  0.7112  0.2430
   84CHL1  H19B 8664   2.113   4.316   6.626 -0.5747 -0.8010 -0.5585
   84CHL1  H19C 8665   2.290   4.313   6.631  1.3537 -2.7078 -2.0384
   84CHL1    C1 8666   2.328   4.048   6.505 -0.1900 -0.2867 -0.2358
   84CHL1   H1A 8667   2.420   4.079   6.560  0.6194  0.7592 -2.0962
   84CHL1   H1B 8668   2.316   3.939   6.525  2.7712 -0.5615  0.5867
   84CHL1    C2 8669   2.357   4.075   6.353  0.0533  0.2012  0.3758
   84CHL1   H2A 8670   2.449   4.022   6.320 -1.0777 -0.5211 -1.8581
   84CHL1   H2B 8671   2.377   4.182   6.332 -0.0812  0.3771  1.1319
   84CHL1   C20 8672   2.077   4.027   7.235  0.8279  0.3046  0.3959
   84CHL1   H20 8673   2.069   4.137   7.246  2.1565  0.3589  1.0541
   84CHL1   C21 8674   2.226   3.988   7.260  0.7576 -0.3059  0.3970
   84CHL1  H21A 8675   2.290   4.049   7.193  1.5613 -2.6028 -1.0606
   84CHL1  H21B 8676   2.257   3.884   7.238 -0.3288 -0.8466  1.3077
   84CHL1  H21C 8677   2.257   4.006   7.365 -0.7493 -0.9405  0.9737
   84CHL1   C22 8678   1.994   3.971   7.349  0.1751  0.0823 -0.2691
   84CHL1  H22A 8679   1.887   3.996   7.340 -0.3983 -1.0720  2.5638
   84CHL1  H22B 8680   1.995   3.860   7.351 -1.4697 -0.0881 -3.1065
   84CHL1   C23 8681   2.038   4.012   7.491  0.1613 -0.0591 -0.3771
   84CHL1  H23A 8682   2.137   3.965   7.513 -0.9825 -3.8339 -2.3834
   84CHL1  H23B 8683   2.039   4.122   7.501  0.3242 -0.0602 -0.3700
   84CHL1   C24 8684   1.941   3.948   7.593  0.3347  0.2573 -0.1154
   84CHL1  H24A 8685   1.839   3.987   7.573  1.3413  3.8980  1.0286
   84CHL1  H24B 8686   1.939   3.837   7.587  0.3511  0.2792 -0.5906
   84CHL1   C25 8687   1.966   3.975   7.738  0.1702  0.0575  0.5216
   84CHL1   H25 8688   1.962   4.085   7.754 -2.7549  0.3228 -1.3914
   84CHL1   C26 8689   1.866   3.898   7.825 -0.2090 -0.2115  0.3621
   84CHL1  H26A 8690   1.764   3.922   7.786  0.6649 -1.0302 -2.6194
   84CHL1  H26B 8691   1.863   3.789   7.808 -1.4415  0.0186 -1.1200
   84CHL1  H26C 8692   1.880   3.929   7.931  2.7067 -1.6331  0.4652
   84CHL1   C27 8693   2.107   3.931   7.780  0.1126 -0.4700  0.4085
   84CHL1  H27A 8694   2.126   3.952   7.887  1.2338 -0.2107  0.1735
   84CHL1  H27B 8695   2.124   3.826   7.746 -0.2080  0.3174 -2.4896
   84CHL1  H27C 8696   2.182   3.992   7.725 -0.3296 -0.2371  0.0483
   85CHL1    C3 8697   6.136   6.566   6.638  0.2169  0.5257  0.1969
   85CHL1    H3 8698   6.037   6.514   6.639  0.1515  0.5659 -1.3785
   85CHL1    O3 8699   6.166   6.611   6.507  0.2060  0.0227  0.2388
   85CHL1   H3' 8700   6.192   6.703   6.520  0.6488  0.3583 -2.3848
   85CHL1    C4 8701   6.130   6.688   6.729 -0.0745  0.0658 -0.1889
   85CHL1   H4A 8702   6.222   6.749   6.723  0.8405 -1.2353  0.2569
   85CHL1   H4B 8703   6.053   6.758   6.690  0.0596  0.7169  0.6939
   85CHL1    C5 8704   6.113   6.658   6.877  0.2744 -0.3917 -0.5623
   85CHL1    C6 8705   6.011   6.694   6.954 -0.0257 -1.0860  0.1811
   85CHL1    H6 8706   5.924   6.743   6.906 -0.7101 -0.2496  2.1497
   85CHL1    C7 8707   5.993   6.675   7.098 -0.6165 -0.2598 -0.5710
   85CHL1   H7A 8708   5.978   6.772   7.149 -0.0720  0.3897 -1.6222
   85CHL1   H7B 8709   5.914   6.601   7.128  0.9350 -1.3942  0.9490
   85CHL1    C8 8710   6.127   6.620   7.166 -0.4590 -0.0333  0.0658
   85CHL1    H8 8711   6.182   6.716   7.178  2.5957 -1.3050 -2.4462
   85CHL1   C14 8712   6.098   6.563   7.304 -0.7912 -0.1496  0.1158
   85CHL1   H14 8713   6.027   6.480   7.285 -1.9835  0.6306  1.0144
   85CHL1   C15 8714   6.020   6.661   7.395 -0.0938  0.8294  1.0477
   85CHL1  H15A 8715   6.057   6.766   7.393  1.3272  0.3440  0.2921
   85CHL1  H15B 8716   5.911   6.650   7.376 -0.0237 -1.5488  1.6682
   85CHL1   C16 8717   6.039   6.584   7.531 -0.5058 -1.0475  0.6740
   85CHL1  H16A 8718   6.055   6.670   7.599  4.6354 -0.6265 -0.6781
   85CHL1  H16B 8719   5.953   6.523   7.565  1.5672 -2.9070  2.9190
   85CHL1   C17 8720   6.158   6.471   7.514 -1.1212 -0.3307 -0.2171
   85CHL1   H17 8721   6.098   6.380   7.493 -1.3266 -0.0269 -0.9820
   85CHL1   C13 8722   6.223   6.511   7.380 -0.7112 -0.4421  0.0179
   85CHL1   C18 8723   6.317   6.630   7.405  0.3435  0.0146  0.3195
   85CHL1  H18A 8724   6.359   6.666   7.309 -2.1688 -2.7969 -2.0337
   85CHL1  H18B 8725   6.257   6.711   7.450 -0.8969  0.3837 -1.8491
   85CHL1  H18C 8726   6.397   6.601   7.477 -1.9778  1.7898  3.8723
   85CHL1   C12 8727   6.297   6.410   7.295 -0.5930  0.0863  0.9052
   85CHL1  H12A 8728   6.400   6.403   7.337  0.5186 -1.4766 -1.8473
   85CHL1  H12B 8729   6.250   6.310   7.291  0.9209 -0.6815  1.6636
   85CHL1   C11 8730   6.323   6.457   7.147 -0.0616 -0.7074  0.0431
   85CHL1  H11A 8731   6.414   6.521   7.153 -0.4485 -0.2615  2.3737
   85CHL1  H11B 8732   6.354   6.365   7.093 -0.2765 -1.1684  0.6924
   85CHL1    C9 8733   6.202   6.522   7.077  0.1737 -0.5255 -0.0006
   85CHL1    H9 8734   6.139   6.433   7.055  1.5148 -1.2741 -1.0067
   85CHL1   C10 8735   6.227   6.573   6.928 -0.5288 -0.5541 -0.0604
   85CHL1   C19 8736   6.358   6.657   6.931  0.1611  0.0249 -0.2298
   85CHL1  H19A 8737   6.396   6.695   6.834  1.5966 -0.8893 -0.0595
   85CHL1  H19B 8738   6.338   6.740   7.002 -1.5229 -0.6270  0.1190
   85CHL1  H19C 8739   6.444   6.599   6.970 -0.8575 -1.9206 -0.7357
   85CHL1    C1 8740   6.246   6.450   6.832  0.4873 -0.2241  0.4990
   85CHL1   H1A 8741   6.334   6.389   6.861  1.7247  0.7778 -0.9686
   85CHL1   H1B 8742   6.160   6.381   6.847  0.7705 -1.1323 -1.6370
   85CHL1    C2 8743   6.250   6.482   6.679  0.4046  0.1668 -0.5745
   85CHL1   H2A 8744   6.257   6.390   6.618 -0.2448 -2.3371  2.8486
   85CHL1   H2B 8745   6.347   6.532   6.659  1.0582 -1.5276 -1.8082
   85CHL1   C20 8746   6.247   6.449   7.645  0.3152 -0.1907  0.3137
   85CHL1   H20 8747   6.273   6.550   7.682 -2.9396  1.9651 -2.6247
   85CHL1   C21 8748   6.370   6.361   7.616 -0.0260  0.2298  0.0482
   85CHL1  H21A 8749   6.438   6.336   7.701  0.5368  0.2261 -0.3948
   85CHL1  H21B 8750   6.433   6.409   7.538  0.2302 -3.6653 -2.3806
   85CHL1  H21C 8751   6.348   6.259   7.578  1.2366  0.6848 -2.0811
   85CHL1   C22 8752   6.159   6.385   7.759 -0.2793 -0.4536 -0.1524
   85CHL1  H22A 8753   6.079   6.461   7.770  1.1693  1.1018 -0.0727
   85CHL1  H22B 8754   6.115   6.287   7.729  1.6826 -1.3837 -0.1340
   85CHL1   C23 8755   6.235   6.357   7.892 -0.4372 -0.1034  0.1871
   85CHL1  H23A 8756   6.270   6.252   7.884 -0.6028 -0.0701 -1.3749
   85CHL1  H23B 8757   6.330   6.416   7.891 -0.3028 -0.2942  0.9448
   85CHL1   C24 8758   6.168   6.394   8.019 -0.4255 -0.0703  0.0907
   85CHL1  H24A 8759   6.127   6.496   8.007 -1.0330 -0.2602  0.4717
   85CHL1  H24B 8760   6.081   6.329   8.043 -1.6113  0.3251 -2.7902
   85CHL1   C25 8761   6.269   6.410   8.134 -0.1864 -1.0514  0.6937
   85CHL1   H25 8762   6.356   6.468   8.097 -1.3062  0.0685 -0.2910
   85CHL1   C26 8763   6.211   6.494   8.244  0.1176 -0.0580 -0.6057
   85CHL1  H26A 8764   6.124   6.444   8.293 -0.0459  0.8831  0.0913
   85CHL1  H26B 8765   6.286   6.514   8.323 -1.1927  0.8865  0.4558
   85CHL1  H26C 8766   6.177   6.590   8.200 -0.0182  0.4789  0.6166
   85CHL1   C27 8767   6.334   6.273   8.160 -0.2055 -0.0960 -0.4733
   85CHL1  H27A 8768   6.263   6.201   8.206  0.1888 -0.2001 -0.0134
   85CHL1  H27B 8769   6.382   6.234   8.068  0.2516  0.2909 -0.4033
   85CHL1  H27C 8770   6.407   6.291   8.242  1.7675  1.5715 -2.4753
   86CHL1    C3 8771   1.456   6.438   6.524  1.1951 -0.3930  0.7840
   86CHL1    H3 8772   1.520   6.528   6.539  3.1404 -1.1709 -2.0650
   86CHL1    O3 8773   1.451   6.405   6.387 -0.3132 -0.4589  0.1208
   86CHL1   H3' 8774   1.432   6.479   6.328 -0.0065 -0.5104 -0.0477
   86CHL1    C4 8775   1.506   6.317   6.608  0.7613  0.4804  0.3865
   86CHL1   H4A 8776   1.453   6.222   6.584  0.5924  1.2748 -2.7526
   86CHL1   H4B 8777   1.604   6.288   6.565  0.9238 -2.7222  2.5428
   86CHL1    C5 8778   1.508   6.342   6.759 -0.4003 -0.4503  0.1974
   86CHL1    C6 8779   1.621   6.342   6.835  0.2179  0.5095  0.4663
   86CHL1    H6 8780   1.719   6.325   6.789 -0.8604 -0.6561 -1.5386
   86CHL1    C7 8781   1.612   6.342   6.981  1.0439 -0.2528  0.2674
   86CHL1   H7A 8782   1.672   6.254   7.014  2.9993  0.9567  0.1400
   86CHL1   H7B 8783   1.660   6.433   7.024  0.4041  0.2839 -0.1482
   86CHL1    C8 8784   1.467   6.330   7.035  0.2745 -0.4312 -0.0553
   86CHL1    H8 8785   1.436   6.224   7.049  0.4968 -0.3685  1.0531
   86CHL1   C14 8786   1.473   6.372   7.184  0.6003 -0.6594 -0.5055
   86CHL1   H14 8787   1.514   6.475   7.191  1.2988 -1.0264  1.3564
   86CHL1   C15 8788   1.565   6.288   7.272  0.9265  0.5029 -0.0498
   86CHL1  H15A 8789   1.559   6.178   7.260  1.5203  0.3176  1.1888
   86CHL1  H15B 8790   1.669   6.321   7.254  0.6437  0.6112 -1.6754
   86CHL1   C16 8791   1.517   6.318   7.414  0.4771 -0.3678 -0.3261
   86CHL1  H16A 8792   1.474   6.228   7.463 -0.2930  1.0345  1.6835
   86CHL1  H16B 8793   1.600   6.356   7.477 -0.2612  3.4901 -1.4548
   86CHL1   C17 8794   1.391   6.421   7.395 -0.4827  0.0048  0.5741
   86CHL1   H17 8795   1.427   6.526   7.396  1.4145 -0.6099  1.7188
   86CHL1   C13 8796   1.338   6.394   7.252 -0.5580  0.5358  0.3671
   86CHL1   C18 8797   1.259   6.261   7.252  0.0891 -0.0501 -0.7222
   86CHL1  H18A 8798   1.316   6.179   7.302 -0.5064  0.7665  1.3740
   86CHL1  H18B 8799   1.168   6.285   7.310  1.0561 -2.1660  1.8553
   86CHL1  H18C 8800   1.231   6.228   7.150 -0.4054  4.0934 -2.1074
   86CHL1   C12 8801   1.253   6.502   7.179  0.1787 -0.2580 -0.0331
   86CHL1  H12A 8802   1.151   6.511   7.223  0.7262  0.9537  1.0564
   86CHL1  H12B 8803   1.295   6.604   7.169  0.8558 -0.7487 -3.2934
   86CHL1   C11 8804   1.245   6.468   7.028  0.5702 -0.0614  0.0656
   86CHL1  H11A 8805   1.184   6.375   7.027  0.5610 -0.0507 -0.4102
   86CHL1  H11B 8806   1.186   6.551   6.983  1.4207  0.0891 -0.8106
   86CHL1    C9 8807   1.376   6.428   6.953 -0.6290  0.2343 -0.1833
   86CHL1    H9 8808   1.435   6.522   6.943  1.9742 -1.3939 -1.1434
   86CHL1   C10 8809   1.368   6.378   6.816  0.0236  0.1439  0.0414
   86CHL1   C19 8810   1.281   6.248   6.808 -0.6072  0.1511  0.2103
   86CHL1  H19A 8811   1.175   6.269   6.834 -0.1096  0.6615  1.9875
   86CHL1  H19B 8812   1.289   6.198   6.710  1.5927  1.4100 -0.3325
   86CHL1  H19C 8813   1.304   6.167   6.881 -0.7551  0.9815  1.2144
   86CHL1    C1 8814   1.302   6.485   6.728 -0.1577 -0.1628 -0.1439
   86CHL1   H1A 8815   1.195   6.491   6.758  0.0985 -0.5178  0.8866
   86CHL1   H1B 8816   1.359   6.578   6.747  1.3093  0.0063 -4.2965
   86CHL1    C2 8817   1.309   6.471   6.574  0.3317  0.4598 -0.3330
   86CHL1   H2A 8818   1.262   6.554   6.516 -2.1890 -0.5902  0.0801
   86CHL1   H2B 8819   1.252   6.378   6.556  0.0263  0.5839 -0.0141
   86CHL1   C20 8820   1.293   6.418   7.513 -0.3227  0.3991  0.1079
   86CHL1   H20 8821   1.264   6.313   7.536 -0.1158  0.9821  3.5290
   86CHL1   C21 8822   1.171   6.501   7.489  0.0714 -0.5588  0.4461
   86CHL1  H21A 8823   1.105   6.461   7.408 -0.3020  0.7527  0.0793
   86CHL1  H21B 8824   1.202   6.602   7.456 -1.0550 -0.9131 -1.9386
   86CHL1  H21C 8825   1.109   6.512   7.580 -1.0881 -0.3861 -0.3490
   86CHL1   C22 8826   1.368   6.476   7.637 -0.2035  0.0227  0.3100
   86CHL1  H22A 8827   1.468   6.428   7.652  0.3932  0.9359 -0.6588
   86CHL1  H22B 8828   1.382   6.584   7.619 -0.8407  0.0894  0.2130
   86CHL1   C23 8829   1.299   6.459   7.773  0.1927  0.3017 -0.0056
   86CHL1  H23A 8830   1.202   6.514   7.774  0.6196  1.0886  1.8753
   86CHL1  H23B 8831   1.288   6.350   7.789  1.3329  0.1460 -0.1881
   86CHL1   C24 8832   1.375   6.517   7.896 -0.4507  0.2233  0.1489
   86CHL1  H24A 8833   1.480   6.481   7.899 -0.3524  0.5391  0.5872
   86CHL1  H24B 8834   1.380   6.627   7.883  1.2867 -0.1246 -3.0902
   86CHL1   C25 8835   1.307   6.489   8.028 -0.4436  0.0858 -0.6248
   86CHL1   H25 8836   1.198   6.509   8.021 -0.3437  1.3177  0.7630
   86CHL1   C26 8837   1.338   6.344   8.055 -0.1467  0.0417 -0.0283
   86CHL1  H26A 8838   1.298   6.320   8.156 -1.2216  3.3846  0.4670
   86CHL1  H26B 8839   1.299   6.278   7.974 -0.5363  1.3877 -0.9787
   86CHL1  H26C 8840   1.448   6.330   8.064 -0.0674  0.8354  0.3071
   86CHL1   C27 8841   1.365   6.591   8.128  0.1972 -0.6394 -0.2430
   86CHL1  H27A 8842   1.308   6.578   8.222 -0.8162  0.9229 -0.6179
   86CHL1  H27B 8843   1.471   6.566   8.151  1.5297  3.1378 -1.4799
   86CHL1  H27C 8844   1.359   6.692   8.083 -0.7241 -0.5265  0.1240
   87CHL1    C3 8845   2.712   4.277   6.683  0.3593 -0.1816  0.4601
   87CHL1    H3 8846   2.808   4.237   6.723 -0.8781 -2.2230  1.5254
   87CHL1    O3 8847   2.694   4.274   6.544 -0.1388  0.0010  1.1224
   87CHL1   H3' 8848   2.607   4.308   6.525 -0.0993 -1.0061 -1.1873
   87CHL1    C4 8849   2.604   4.199   6.746  0.5650  1.0133 -0.4060
   87CHL1   H4A 8850   2.501   4.220   6.710  0.2232  0.3937  0.2169
   87CHL1   H4B 8851   2.614   4.092   6.717  1.0299  0.8783  0.2396
   87CHL1    C5 8852   2.604   4.213   6.896  0.1940 -0.1016 -0.5605
   87CHL1    C6 8853   2.633   4.103   6.968  0.5827 -0.4542  0.2387
   87CHL1    H6 8854   2.643   4.008   6.912  0.3212 -0.4381  0.1647
   87CHL1    C7 8855   2.648   4.103   7.117  1.0066  0.1338  0.0477
   87CHL1   H7A 8856   2.624   4.008   7.169  2.5267  0.3728  1.2557
   87CHL1   H7B 8857   2.755   4.108   7.146  0.2292  0.7139  3.1265
   87CHL1    C8 8858   2.577   4.225   7.181 -0.0695  0.3412  0.0725
   87CHL1    H8 8859   2.467   4.213   7.174 -0.1172  0.9536 -0.2642
   87CHL1   C14 8860   2.612   4.228   7.334 -0.7532 -0.1653  0.0907
   87CHL1   H14 8861   2.720   4.250   7.335 -1.0663  2.1520 -2.7915
   87CHL1   C15 8862   2.588   4.107   7.423 -0.1963  0.1302  0.0590
   87CHL1  H15A 8863   2.483   4.075   7.412 -1.1350  1.8003  2.9124
   87CHL1  H15B 8864   2.668   4.035   7.396 -1.3627 -0.6207 -1.5095
   87CHL1   C16 8865   2.590   4.160   7.564  0.0458 -0.0559 -0.3679
   87CHL1  H16A 8866   2.492   4.129   7.606 -0.7077  1.9306 -0.5594
   87CHL1  H16B 8867   2.677   4.121   7.623  0.7371  1.9516  0.0038
   87CHL1   C17 8868   2.588   4.319   7.554 -0.7642  0.9642  0.2619
   87CHL1   H17 8869   2.694   4.351   7.565 -0.6720  1.0629 -0.7910
   87CHL1   C13 8870   2.549   4.344   7.402  0.9711  0.2796  0.0986
   87CHL1   C18 8871   2.395   4.343   7.394  0.3578  0.5001 -0.1567
   87CHL1  H18A 8872   2.355   4.430   7.450 -0.8878 -0.9578  1.3202
   87CHL1  H18B 8873   2.356   4.346   7.290  1.5289  1.5359 -0.5768
   87CHL1  H18C 8874   2.342   4.259   7.445  0.2489  0.4571 -0.3387
   87CHL1   C12 8875   2.595   4.479   7.333 -0.2604 -0.0347 -1.1699
   87CHL1  H12A 8876   2.541   4.565   7.380 -0.6452 -0.8131 -0.1573
   87CHL1  H12B 8877   2.704   4.483   7.353 -0.8798  0.6143  2.9589
   87CHL1   C11 8878   2.564   4.478   7.184 -0.4491 -0.6544  0.0096
   87CHL1  H11A 8879   2.458   4.495   7.155 -0.6449  1.7907  1.8350
   87CHL1  H11B 8880   2.611   4.568   7.141 -0.9300 -0.4429 -0.0829
   87CHL1    C9 8881   2.615   4.353   7.108 -0.4928 -0.5886  0.1691
   87CHL1    H9 8882   2.726   4.350   7.112 -0.5178 -0.6050  1.9526
   87CHL1   C10 8883   2.587   4.347   6.957 -0.5057 -0.1283 -0.3063
   87CHL1   C19 8884   2.445   4.398   6.920  0.0154  0.0352  0.3265
   87CHL1  H19A 8885   2.413   4.387   6.814 -1.2959  0.5851  0.6552
   87CHL1  H19B 8886   2.375   4.350   6.991  0.7756  0.8632  1.6658
   87CHL1  H19C 8887   2.425   4.506   6.939 -0.2851 -0.0138  0.2869
   87CHL1    C1 8888   2.697   4.432   6.886  0.9576  0.1309 -0.3037
   87CHL1   H1A 8889   2.682   4.535   6.925  0.5365 -0.0397 -0.0094
   87CHL1   H1B 8890   2.800   4.403   6.917  0.3792 -2.9223 -0.9186
   87CHL1    C2 8891   2.697   4.423   6.735  0.0999  0.2054  0.0505
   87CHL1   H2A 8892   2.778   4.484   6.691 -0.1754 -0.3568 -1.2985
   87CHL1   H2B 8893   2.607   4.465   6.684 -0.1172 -0.6168 -0.2581
   87CHL1   C20 8894   2.520   4.381   7.679  0.1673  0.3945 -0.1562
   87CHL1   H20 8895   2.421   4.332   7.690  0.4409 -0.0701  0.2341
   87CHL1   C21 8896   2.497   4.533   7.658 -0.2110  1.0274  0.0327
   87CHL1  H21A 8897   2.592   4.581   7.627 -0.4926  0.4669 -1.7994
   87CHL1  H21B 8898   2.453   4.588   7.744 -0.7180 -1.7275  1.6414
   87CHL1  H21C 8899   2.429   4.561   7.575 -1.5428 -0.0284  0.7240
   87CHL1   C22 8900   2.590   4.356   7.816  0.2843 -0.1190 -0.6164
   87CHL1  H22A 8901   2.621   4.251   7.833 -1.2953 -0.8584 -2.0110
   87CHL1  H22B 8902   2.672   4.432   7.819  0.2356 -0.0686 -0.5625
   87CHL1   C23 8903   2.494   4.398   7.925 -0.4124 -1.0544 -0.2821
   87CHL1  H23A 8904   2.559   4.399   8.015  1.1674  0.1254 -1.3802
   87CHL1  H23B 8905   2.455   4.501   7.913 -1.1153 -1.2708  0.0909
   87CHL1   C24 8906   2.379   4.306   7.947  0.1218  0.4447 -0.1464
   87CHL1  H24A 8907   2.316   4.291   7.857 -0.7423  0.7321  0.3942
   87CHL1  H24B 8908   2.405   4.204   7.982  0.4436 -0.1253 -1.9435
   87CHL1   C25 8909   2.285   4.359   8.059  0.8623  0.5771  0.0966
   87CHL1   H25 8910   2.230   4.443   8.012 -0.0319  0.3023  0.6253
   87CHL1   C26 8911   2.197   4.238   8.094 -0.0027 -0.2054  0.0149
   87CHL1  H26A 8912   2.261   4.157   8.133  2.5990  0.9801 -1.5500
   87CHL1  H26B 8913   2.125   4.270   8.173 -0.2397  0.0484 -0.2981
   87CHL1  H26C 8914   2.145   4.208   8.000 -1.7137 -0.3042  0.9418
   87CHL1   C27 8915   2.363   4.400   8.179 -0.1490 -0.2960 -0.3867
   87CHL1  H27A 8916   2.437   4.322   8.204 -1.2085 -1.4784 -0.8355
   87CHL1  H27B 8917   2.422   4.492   8.157 -1.4580  0.8514  0.6500
   87CHL1  H27C 8918   2.303   4.415   8.272  1.3803  1.5002  0.3749
   88CHL1    C3 8919   0.664   2.946   6.655  0.2511  0.4829 -1.2783
   88CHL1    H3 8920   0.591   2.864   6.671 -0.2943  0.8662 -1.7540
   88CHL1    O3 8921   0.675   2.968   6.521 -0.3447 -0.2706 -0.0310
   88CHL1   H3' 8922   0.596   3.013   6.491  0.7939  0.4547 -2.1701
   88CHL1    C4 8923   0.623   3.076   6.726  0.2815 -0.0523 -0.0498
   88CHL1   H4A 8924   0.699   3.149   6.690 -0.5612  1.4568  1.1210
   88CHL1   H4B 8925   0.521   3.101   6.691 -0.2993  0.3828  1.8253
   88CHL1    C5 8926   0.615   3.070   6.881 -0.1683  0.2233  0.7271
   88CHL1    C6 8927   0.500   3.090   6.945 -0.3247 -0.1085 -0.2255
   88CHL1    H6 8928   0.406   3.119   6.897  0.0658 -1.8754 -2.2171
   88CHL1    C7 8929   0.483   3.080   7.094 -0.2134  0.9325 -1.4187
   88CHL1   H7A 8930   0.431   3.171   7.130  0.9986  0.7599  1.0466
   88CHL1   H7B 8931   0.423   2.989   7.116 -0.2450  1.0803 -0.8665
   88CHL1    C8 8932   0.621   3.075   7.165  0.2527 -0.6751  0.1587
   88CHL1    H8 8933   0.662   3.178   7.162  0.8301 -0.8257  1.6797
   88CHL1   C14 8934   0.606   3.040   7.310 -0.0827  0.4129  0.5160
   88CHL1   H14 8935   0.570   2.935   7.306  2.8613 -0.6572 -1.5902
   88CHL1   C15 8936   0.498   3.110   7.399 -0.6682  0.3782  0.8606
   88CHL1  H15A 8937   0.513   3.218   7.375 -0.4245  0.4295  1.2469
   88CHL1  H15B 8938   0.397   3.074   7.370 -0.4984  1.8517 -1.9618
   88CHL1   C16 8939   0.540   3.078   7.542  0.2747 -0.1150 -0.2899
   88CHL1  H16A 8940   0.553   3.178   7.589 -0.5753  0.3482 -1.0064
   88CHL1  H16B 8941   0.467   3.017   7.598  1.0221  0.0586  0.9058
   88CHL1   C17 8942   0.678   3.000   7.541 -0.3743  0.1578  0.6736
   88CHL1   H17 8943   0.637   2.897   7.543 -2.5789  0.9864  0.8599
   88CHL1   C13 8944   0.738   3.026   7.393 -0.0143 -0.3982  0.4097
   88CHL1   C18 8945   0.810   3.162   7.391  0.0587  0.1493 -0.3923
   88CHL1  H18A 8946   0.824   3.186   7.284  0.0466  0.6444 -0.2837
   88CHL1  H18B 8947   0.743   3.243   7.426  0.9099  1.0066 -0.7234
   88CHL1  H18C 8948   0.907   3.169   7.445  0.3012  0.1088 -0.8211
   88CHL1   C12 8949   0.826   2.914   7.326  0.4783 -0.0003 -0.3123
   88CHL1  H12A 8950   0.925   2.903   7.374 -0.1916 -1.5400  0.7962
   88CHL1  H12B 8951   0.785   2.813   7.347  0.1232  0.3556  0.7866
   88CHL1   C11 8952   0.845   2.943   7.178 -0.0722  0.8070  0.2907
   88CHL1  H11A 8953   0.922   3.023   7.179  0.6855  0.0846  0.1658
   88CHL1  H11B 8954   0.879   2.849   7.131  3.8536  2.9476 -1.6367
   88CHL1    C9 8955   0.714   2.973   7.100 -0.8385 -0.0928  0.4454
   88CHL1    H9 8956   0.661   2.875   7.102 -0.9438 -0.0934 -1.0281
   88CHL1   C10 8957   0.737   3.012   6.950  0.1864  0.1528  0.4417
   88CHL1   C19 8958   0.857   3.109   6.938 -0.1380 -0.6496 -0.0841
   88CHL1  H19A 8959   0.953   3.059   6.965  0.3333  1.3258  2.2284
   88CHL1  H19B 8960   0.864   3.148   6.834  0.6253 -1.7041 -0.4462
   88CHL1  H19C 8961   0.843   3.192   7.010 -0.2108 -2.5189  2.1425
   88CHL1    C1 8962   0.784   2.887   6.868  0.7100 -0.5244  0.6929
   88CHL1   H1A 8963   0.882   2.855   6.907  1.6055  0.1260 -0.9189
   88CHL1   H1B 8964   0.709   2.806   6.883  0.1915 -0.0347  0.8093
   88CHL1    C2 8965   0.800   2.903   6.713 -0.2988 -0.3835  0.1521
   88CHL1   H2A 8966   0.831   2.810   6.660 -1.0348 -0.7076  0.2823
   88CHL1   H2B 8967   0.886   2.971   6.691 -1.4242  1.3493  0.9191
   88CHL1   C20 8968   0.776   3.020   7.658  0.4854  0.1406  0.3855
   88CHL1   H20 8969   0.848   3.101   7.634  1.4607 -0.9324 -0.3966
   88CHL1   C21 8970   0.870   2.889   7.665 -0.4509  0.5444  0.1631
   88CHL1  H21A 8971   0.946   2.881   7.585 -1.1613 -2.5507 -0.3131
   88CHL1  H21B 8972   0.820   2.790   7.658  2.6520 -1.2915  1.6427
   88CHL1  H21C 8973   0.920   2.889   7.764  0.2034 -4.4810  0.0901
   88CHL1   C22 8974   0.696   3.043   7.792 -0.8170  0.0013 -0.3341
   88CHL1  H22A 8975   0.765   3.061   7.876 -1.9492 -0.3478  0.6960
   88CHL1  H22B 8976   0.631   3.134   7.785 -1.5166 -0.1870  2.5851
   88CHL1   C23 8977   0.608   2.926   7.837 -0.1735  0.0706  0.3626
   88CHL1  H23A 8978   0.518   2.937   7.772 -0.7643 -0.5483  1.0568
   88CHL1  H23B 8979   0.653   2.826   7.818  1.7641  1.3496 -2.4307
   88CHL1   C24 8980   0.568   2.947   7.986  0.5554  0.1122 -0.0156
   88CHL1  H24A 8981   0.504   2.863   8.022  0.1609  0.9680  1.3458
   88CHL1  H24B 8982   0.662   2.953   8.045 -1.0250  0.6054  2.6274
   88CHL1   C25 8983   0.501   3.083   8.010 -0.0046 -0.6529  0.3820
   88CHL1   H25 8984   0.572   3.167   7.996 -0.6559 -0.3169 -1.0827
   88CHL1   C26 8985   0.369   3.106   7.929  0.7874 -0.8322 -0.5364
   88CHL1  H26A 8986   0.327   3.198   7.975  0.2091 -1.7975  0.9623
   88CHL1  H26B 8987   0.404   3.126   7.826  1.0349  3.5384  0.2224
   88CHL1  H26C 8988   0.297   3.021   7.935  4.4669 -4.1289  1.2777
   88CHL1   C27 8989   0.471   3.096   8.159  0.1494  0.4182 -0.3276
   88CHL1  H27A 8990   0.431   3.000   8.196 -1.1795  0.7040 -0.9631
   88CHL1  H27B 8991   0.565   3.113   8.216 -0.7864  1.2694  1.0471
   88CHL1  H27C 8992   0.403   3.182   8.181  0.2938  0.7328 -1.0784
   89CHL1    C3 8993   1.764   4.552   6.483 -0.3999  0.5610  0.2068
   89CHL1    H3 8994   1.752   4.459   6.424 -0.3799  0.4120  0.4393
   89CHL1    O3 8995   1.837   4.644   6.402 -0.0797  0.6138 -0.1467
   89CHL1   H3' 8996   1.844   4.725   6.453 -0.9963 -0.0763  1.1162
   89CHL1    C4 8997   1.638   4.623   6.535 -0.2650  0.7372  1.3217
   89CHL1   H4A 8998   1.650   4.727   6.573 -2.6854  1.4192  0.4320
   89CHL1   H4B 8999   1.573   4.645   6.447 -1.4114  2.4317  2.5145
   89CHL1    C5 9000   1.567   4.541   6.644 -0.5399  0.8197 -0.3466
   89CHL1    C6 9001   1.440   4.497   6.641  0.5137 -0.5252 -0.1005
   89CHL1    H6 9002   1.382   4.517   6.550  0.8235 -1.7577 -0.5878
   89CHL1    C7 9003   1.369   4.431   6.752 -0.0286  0.0998  0.3159
   89CHL1   H7A 9004   1.278   4.490   6.776  0.6983  2.3105 -1.9392
   89CHL1   H7B 9005   1.329   4.332   6.722 -2.8080  0.8383  1.2335
   89CHL1    C8 9006   1.443   4.432   6.886 -0.0680  0.1358  0.2377
   89CHL1    H8 9007   1.437   4.534   6.929  1.4249  0.8303 -1.0620
   89CHL1   C14 9008   1.380   4.335   6.978  0.0304 -0.3622 -0.5984
   89CHL1   H14 9009   1.399   4.232   6.941  1.0506 -0.9038  1.3086
   89CHL1   C15 9010   1.225   4.329   6.996  0.3964 -0.2572  0.6744
   89CHL1  H15A 9011   1.196   4.434   7.017  0.7875 -0.2503  1.2107
   89CHL1  H15B 9012   1.172   4.301   6.903  1.5023  0.6462 -0.2629
   89CHL1   C16 9013   1.210   4.256   7.128  0.2332  0.2467  0.7608
   89CHL1  H16A 9014   1.167   4.326   7.202 -0.3312  1.6835 -0.8787
   89CHL1  H16B 9015   1.154   4.162   7.106  0.1985  0.6256 -0.8760
   89CHL1   C17 9016   1.352   4.217   7.176 -0.1927 -0.7885  0.6887
   89CHL1   H17 9017   1.370   4.122   7.121 -0.7320  0.3207 -1.5344
   89CHL1   C13 9018   1.443   4.326   7.120  0.7281  0.2853  0.6602
   89CHL1   C18 9019   1.423   4.458   7.191 -0.5431 -0.4643 -0.1427
   89CHL1  H18A 9020   1.489   4.464   7.280 -0.9464  1.4506  0.0764
   89CHL1  H18B 9021   1.466   4.544   7.134  1.4592  0.1129  2.0955
   89CHL1  H18C 9022   1.318   4.480   7.218 -0.5759 -1.0704  0.2266
   89CHL1   C12 9023   1.587   4.290   7.095 -0.1364  0.1627  0.2257
   89CHL1  H12A 9024   1.643   4.273   7.190 -1.3847  0.5947  1.0623
   89CHL1  H12B 9025   1.588   4.190   7.046  2.1490  1.0285 -1.7165
   89CHL1   C11 9026   1.664   4.382   6.999  0.7146  0.5639 -0.2741
   89CHL1  H11A 9027   1.679   4.476   7.056 -2.0293  0.4239  0.8376
   89CHL1  H11B 9028   1.760   4.332   6.973  0.5407 -0.4122  0.8801
   89CHL1    C9 9029   1.591   4.410   6.868  0.1062  0.0032 -0.6150
   89CHL1    H9 9030   1.594   4.307   6.825  0.4530 -0.2391 -0.0405
   89CHL1   C10 9031   1.664   4.504   6.757  0.3970  0.4353 -0.0737
   89CHL1   C19 9032   1.701   4.628   6.825 -0.0566  0.1471  0.3118
   89CHL1  H19A 9033   1.742   4.701   6.752  0.5305  1.5225  1.9654
   89CHL1  H19B 9034   1.620   4.677   6.883 -0.6752 -1.5285  0.9243
   89CHL1  H19C 9035   1.785   4.615   6.896  1.0394  2.0899 -0.5500
   89CHL1    C1 9036   1.787   4.422   6.703  0.1853 -0.1255  0.7764
   89CHL1   H1A 9037   1.864   4.406   6.781  1.6768 -0.0678 -0.6424
   89CHL1   H1B 9038   1.754   4.325   6.658  0.7693 -0.0770  0.2402
   89CHL1    C2 9039   1.863   4.507   6.591  0.1726 -0.2253 -0.1921
   89CHL1   H2A 9040   1.951   4.448   6.559  1.9231  1.6456  0.9221
   89CHL1   H2B 9041   1.906   4.596   6.642  0.8055  0.1731 -1.3996
   89CHL1   C20 9042   1.355   4.189   7.332  0.5687  0.2299  0.2828
   89CHL1   H20 9043   1.336   4.284   7.387 -1.3032 -0.4870  0.9565
   89CHL1   C21 9044   1.492   4.136   7.379  0.1231  0.4851  0.2716
   89CHL1  H21A 9045   1.494   4.125   7.490 -0.6063 -1.2066  0.1372
   89CHL1  H21B 9046   1.578   4.207   7.369 -0.0486  0.9348  1.7273
   89CHL1  H21C 9047   1.530   4.039   7.341  0.4758  0.9759 -0.6618
   89CHL1   C22 9048   1.246   4.089   7.368  0.6445  0.1032 -0.5906
   89CHL1  H22A 9049   1.146   4.133   7.347  0.7975  1.4609  1.2448
   89CHL1  H22B 9050   1.252   3.993   7.313  0.1481 -1.1706  1.4652
   89CHL1   C23 9051   1.242   4.054   7.515 -1.0887  0.0224 -0.6681
   89CHL1  H23A 9052   1.180   3.965   7.537  2.2550 -2.2948  0.0971
   89CHL1  H23B 9053   1.338   4.007   7.546 -1.8160 -0.3856  1.1051
   89CHL1   C24 9054   1.212   4.161   7.623 -0.1149 -0.3167  1.1775
   89CHL1  H24A 9055   1.285   4.245   7.630 -0.1697 -0.0799 -0.6196
   89CHL1  H24B 9056   1.115   4.204   7.592  0.2310 -1.3443 -1.5439
   89CHL1   C25 9057   1.184   4.109   7.772 -0.4037  0.7180  0.4829
   89CHL1   H25 9058   1.115   4.023   7.760  0.2758  0.3679 -1.2068
   89CHL1   C26 9059   1.320   4.062   7.832  0.9236  0.9107  0.7101
   89CHL1  H26A 9060   1.304   4.045   7.940  2.0815  0.2229  0.7926
   89CHL1  H26B 9061   1.353   3.970   7.779  0.0410  1.1085 -0.2267
   89CHL1  H26C 9062   1.409   4.128   7.832  0.8376  1.0294  1.0178
   89CHL1   C27 9063   1.136   4.214   7.870  0.5913 -0.3960 -0.7009
   89CHL1  H27A 9064   1.051   4.260   7.814  1.5283  1.2169 -0.8449
   89CHL1  H27B 9065   1.112   4.162   7.965  2.5804  1.2944  0.7932
   89CHL1  H27C 9066   1.215   4.288   7.891  0.6973  0.0178 -2.3926
   90CHL1    C3 9067   3.421   1.350   6.979 -0.6567 -0.1815 -0.1349
   90CHL1    H3 9068   3.321   1.397   6.983  0.1416  1.5707  0.3090
   90CHL1    O3 9069   3.488   1.387   6.860  0.0302  0.2405 -0.5343
   90CHL1   H3' 9070   3.501   1.480   6.876  2.8669 -0.4812  2.3541
   90CHL1    C4 9071   3.507   1.416   7.095  0.5208 -1.0640 -0.0104
   90CHL1   H4A 9072   3.609   1.382   7.065 -0.2093 -1.0752 -2.7762
   90CHL1   H4B 9073   3.515   1.526   7.084 -0.9396 -0.8864  0.5491
   90CHL1    C5 9074   3.458   1.377   7.233 -0.0984  0.1963 -0.2227
   90CHL1    C6 9075   3.437   1.469   7.330  0.6338 -1.1890  0.6914
   90CHL1    H6 9076   3.453   1.575   7.308  0.5794 -1.2557  0.3286
   90CHL1    C7 9077   3.390   1.436   7.470  0.6837  0.3713  0.4595
   90CHL1   H7A 9078   3.448   1.489   7.549 -1.1714  2.2302  0.6758
   90CHL1   H7B 9079   3.290   1.481   7.486  0.9220  0.4046  1.9429
   90CHL1    C8 9080   3.385   1.284   7.498 -0.5247 -0.4641  0.0721
   90CHL1    H8 9081   3.494   1.268   7.515 -0.1534  0.0777 -1.5880
   90CHL1   C14 9082   3.313   1.257   7.629  1.3079 -0.4989  0.2602
   90CHL1   H14 9083   3.205   1.272   7.609  1.3763 -1.6452 -1.1436
   90CHL1   C15 9084   3.337   1.348   7.752 -0.1706  0.0995  0.3104
   90CHL1  H15A 9085   3.447   1.359   7.756 -0.3814  2.1822  1.9929
   90CHL1  H15B 9086   3.298   1.450   7.732  0.5471  0.3222  0.0239
   90CHL1   C16 9087   3.276   1.272   7.865 -0.2763 -0.4048  0.1155
   90CHL1  H16A 9088   3.346   1.260   7.951  2.1295 -0.4698 -1.7174
   90CHL1  H16B 9089   3.184   1.327   7.894  1.3247  1.2684  2.3752
   90CHL1   C17 9090   3.235   1.135   7.811  0.3133  1.1219 -0.0524
   90CHL1   H17 9091   3.125   1.138   7.791  0.1348 -0.9869  0.3880
   90CHL1   C13 9092   3.313   1.113   7.682 -1.2495 -0.1037  0.7054
   90CHL1   C18 9093   3.465   1.082   7.717  0.4111  0.3123  0.5186
   90CHL1  H18A 9094   3.463   0.981   7.764  0.4826  0.4745  0.8647
   90CHL1  H18B 9095   3.528   1.079   7.625  0.7980  3.8655  0.5609
   90CHL1  H18C 9096   3.503   1.160   7.785  1.0646  1.4132 -1.0571
   90CHL1   C12 9097   3.265   1.015   7.565  0.7252  1.1487 -0.0238
   90CHL1  H12A 9098   3.277   0.909   7.597  0.3572  1.3108  0.6711
   90CHL1  H12B 9099   3.155   1.023   7.548  0.4467 -2.2499 -0.4699
   90CHL1   C11 9100   3.342   1.037   7.427 -0.1985  0.2581 -0.3912
   90CHL1  H11A 9101   3.443   0.995   7.446 -0.9328 -1.1910  0.4650
   90CHL1  H11B 9102   3.295   0.968   7.354  1.2595 -0.8137 -0.3738
   90CHL1    C9 9103   3.351   1.190   7.381 -0.3858  0.8162  0.1130
   90CHL1    H9 9104   3.244   1.214   7.361 -1.3136 -2.7472  0.0913
   90CHL1   C10 9105   3.434   1.219   7.252  0.1251  0.6276 -0.9422
   90CHL1   C19 9106   3.574   1.147   7.253 -0.8324 -0.0684 -0.0044
   90CHL1  H19A 9107   3.561   1.037   7.250 -0.8067 -0.0894  0.4978
   90CHL1  H19B 9108   3.627   1.173   7.159  0.1137 -2.0017 -0.0567
   90CHL1  H19C 9109   3.642   1.181   7.335  2.4656 -2.7226 -1.3821
   90CHL1    C1 9110   3.354   1.168   7.136 -0.0705  0.1547  0.4581
   90CHL1   H1A 9111   3.325   1.062   7.150  0.6555  0.2048  2.8161
   90CHL1   H1B 9112   3.255   1.217   7.141 -1.0608 -1.7173 -0.1147
   90CHL1    C2 9113   3.417   1.198   7.002  0.0276 -0.0643  0.6131
   90CHL1   H2A 9114   3.344   1.170   6.924  2.9007  2.3476 -3.3191
   90CHL1   H2B 9115   3.507   1.134   6.991 -0.9885 -2.3736  4.0661
   90CHL1   C20 9116   3.261   1.024   7.921  0.4891 -0.4626 -0.5984
   90CHL1   H20 9117   3.366   1.033   7.959  0.1615 -2.7532  1.0612
   90CHL1   C21 9118   3.225   0.888   7.859 -0.0358 -0.0933 -0.7720
   90CHL1  H21A 9119   3.128   0.878   7.806 -1.3958  1.2219  1.3257
   90CHL1  H21B 9120   3.216   0.819   7.946  2.3416 -2.7571 -2.4600
   90CHL1  H21C 9121   3.311   0.847   7.802  0.2036 -0.2669 -0.2947
   90CHL1   C22 9122   3.170   1.049   8.056 -0.0381  0.3589 -0.0130
   90CHL1  H22A 9123   3.178   1.159   8.069  1.4097  0.2760 -0.0632
   90CHL1  H22B 9124   3.066   1.024   8.027 -0.2520  2.2195 -0.9657
   90CHL1   C23 9125   3.215   0.985   8.182  0.3983 -0.9927 -0.8472
   90CHL1  H23A 9126   3.222   0.875   8.172  1.3060 -1.0479  0.2319
   90CHL1  H23B 9127   3.313   1.026   8.214 -0.5273  2.9966 -2.5007
   90CHL1   C24 9128   3.112   1.014   8.295  0.5434  0.9845 -0.4304
   90CHL1  H24A 9129   3.097   1.124   8.300  1.2187  1.0810 -0.4438
   90CHL1  H24B 9130   3.019   0.967   8.257  0.6396  1.3625 -1.1531
   90CHL1   C25 9131   3.162   0.972   8.437  0.5057 -0.3877  0.2287
   90CHL1   H25 9132   3.224   0.880   8.428  4.3021  2.1064 -2.0224
   90CHL1   C26 9133   3.247   1.081   8.490  0.0150  1.0754  0.4118
   90CHL1  H26A 9134   3.187   1.172   8.512 -0.1162  1.2612 -0.6560
   90CHL1  H26B 9135   3.299   1.054   8.584  1.7005 -1.0043 -1.0248
   90CHL1  H26C 9136   3.335   1.102   8.426  0.0037  1.2749  0.4615
   90CHL1   C27 9137   3.038   0.955   8.526  0.1252  0.2745 -0.0281
   90CHL1  H27A 9138   2.967   0.876   8.493  0.0253  0.2086  0.3370
   90CHL1  H27B 9139   3.061   0.931   8.632  1.5674  1.0617 -0.1387
   90CHL1  H27C 9140   2.975   1.047   8.524  1.8213  1.5236  1.2590
   91CHL1    C3 9141   3.342   2.370   6.640  0.4336  0.1409 -0.2292
   91CHL1    H3 9142   3.450   2.358   6.619  0.3937 -0.2581 -0.2037
   91CHL1    O3 9143   3.284   2.363   6.512 -0.2090 -0.4813 -0.0431
   91CHL1   H3' 9144   3.190   2.356   6.530 -0.0887 -2.5472  0.0017
   91CHL1    C4 9145   3.291   2.258   6.729 -1.0092 -0.1618  0.9776
   91CHL1   H4A 9146   3.180   2.262   6.723 -0.9861 -1.1467 -2.8724
   91CHL1   H4B 9147   3.321   2.167   6.673 -2.2406  0.5604 -0.9949
   91CHL1    C5 9148   3.348   2.263   6.867 -0.4630  0.4011 -0.1388
   91CHL1    C6 9149   3.410   2.160   6.916 -0.4946  0.8033 -0.1407
   91CHL1    H6 9150   3.429   2.066   6.862 -3.2645  0.2981 -0.4042
   91CHL1    C7 9151   3.446   2.146   7.066 -0.6204  0.2567  0.2542
   91CHL1   H7A 9152   3.404   2.052   7.108 -1.9178  1.8547  2.7522
   91CHL1   H7B 9153   3.557   2.147   7.077 -0.5821  0.7597 -0.1304
   91CHL1    C8 9154   3.400   2.268   7.157  0.2390 -0.0225  0.6127
   91CHL1    H8 9155   3.294   2.257   7.188 -0.4373 -0.2830 -1.5993
   91CHL1   C14 9156   3.489   2.287   7.283 -0.5421 -0.6276  0.2108
   91CHL1   H14 9157   3.592   2.292   7.243 -0.5353  0.6655  0.3625
   91CHL1   C15 9158   3.496   2.166   7.377 -0.3772 -0.8011 -0.3231
   91CHL1  H15A 9159   3.398   2.122   7.407 -1.3594  3.1214  3.0729
   91CHL1  H15B 9160   3.566   2.092   7.333 -0.5851 -0.7867 -0.6891
   91CHL1   C16 9161   3.554   2.220   7.511 -0.1559 -0.2515  1.7723
   91CHL1  H16A 9162   3.490   2.192   7.598  0.2955 -1.0752  1.8536
   91CHL1  H16B 9163   3.659   2.194   7.535  0.6223  2.2094  1.2117
   91CHL1   C17 9164   3.553   2.377   7.493 -0.3254  0.1937 -0.9626
   91CHL1   H17 9165   3.655   2.407   7.459 -0.2574  0.8792 -0.1627
   91CHL1   C13 9166   3.458   2.402   7.375 -0.5876 -0.1896 -0.1048
   91CHL1   C18 9167   3.321   2.389   7.435 -0.6386 -0.6744 -0.2630
   91CHL1  H18A 9168   3.297   2.298   7.495  0.5020  1.3904  3.7371
   91CHL1  H18B 9169   3.298   2.478   7.499  0.8297  0.1928 -0.8801
   91CHL1  H18C 9170   3.243   2.393   7.357 -0.6995 -0.2545 -0.1851
   91CHL1   C12 9171   3.488   2.529   7.292  0.3893  0.1304 -0.5402
   91CHL1  H12A 9172   3.458   2.627   7.337 -3.2668 -0.8129 -0.5520
   91CHL1  H12B 9173   3.595   2.537   7.263  0.4345 -0.1363 -0.4429
   91CHL1   C11 9174   3.396   2.519   7.166 -0.2752  0.0990  0.2946
   91CHL1  H11A 9175   3.290   2.533   7.198  0.0434  1.3214  0.8889
   91CHL1  H11B 9176   3.428   2.605   7.103  2.1920  0.0697  1.3944
   91CHL1    C9 9177   3.415   2.392   7.076  0.2354 -0.5604  0.2104
   91CHL1    H9 9178   3.521   2.396   7.043 -0.2937 -0.8106 -1.6217
   91CHL1   C10 9179   3.329   2.394   6.946  0.3523  0.4242 -0.2294
   91CHL1   C19 9180   3.176   2.403   6.976  0.5141  0.2635 -0.8710
   91CHL1  H19A 9181   3.149   2.496   7.031  0.7038 -0.7484  0.9834
   91CHL1  H19B 9182   3.117   2.407   6.881  2.2767 -0.4897 -2.0453
   91CHL1  H19C 9183   3.129   2.325   7.039  0.9099 -1.2929 -2.4358
   91CHL1    C1 9184   3.373   2.511   6.855  0.0695  0.7900  0.6174
   91CHL1   H1A 9185   3.337   2.611   6.887 -1.1773  0.8523 -0.8504
   91CHL1   H1B 9186   3.483   2.512   6.847  0.0321  0.8543  0.0406
   91CHL1    C2 9187   3.315   2.505   6.710  0.3166 -0.2844  0.8422
   91CHL1   H2A 9188   3.357   2.595   6.661 -1.0707 -0.6796 -1.1722
   91CHL1   H2B 9189   3.207   2.522   6.695  0.3319 -0.5110  0.4539
   91CHL1   C20 9190   3.539   2.440   7.634  0.5328 -0.1170  0.9652
   91CHL1   H20 9191   3.442   2.413   7.681  0.7017  1.0538  2.0530
   91CHL1   C21 9192   3.552   2.594   7.609 -0.2748  0.1946  0.4105
   91CHL1  H21A 9193   3.537   2.654   7.701  1.6415  1.8813 -0.2963
   91CHL1  H21B 9194   3.471   2.628   7.541 -1.2627 -1.8676  0.4946
   91CHL1  H21C 9195   3.651   2.613   7.561  0.0462 -0.2717  0.8723
   91CHL1   C22 9196   3.646   2.404   7.735 -0.1225 -0.0258 -0.2826
   91CHL1  H22A 9197   3.651   2.294   7.744  1.6705  0.1635  1.9756
   91CHL1  H22B 9198   3.741   2.443   7.693 -1.3882  0.0795 -3.3096
   91CHL1   C23 9199   3.624   2.457   7.882  0.1568  0.1453 -0.4089
   91CHL1  H23A 9200   3.587   2.561   7.876 -0.7453 -0.2549 -4.1584
   91CHL1  H23B 9201   3.547   2.384   7.914  1.6749 -2.9417 -3.1554
   91CHL1   C24 9202   3.741   2.448   7.977 -0.2400  0.0774 -0.0934
   91CHL1  H24A 9203   3.789   2.348   7.982  0.5596  0.4204 -0.5962
   91CHL1  H24B 9204   3.823   2.510   7.934 -1.3517  0.5517 -1.5903
   91CHL1   C25 9205   3.718   2.484   8.126 -0.4418 -1.2128 -0.2654
   91CHL1   H25 9206   3.650   2.570   8.114  1.4867  0.1980 -1.7849
   91CHL1   C26 9207   3.640   2.379   8.211  0.0444 -0.1377 -0.4524
   91CHL1  H26A 9208   3.550   2.352   8.151 -1.5773 -1.8652  2.4907
   91CHL1  H26B 9209   3.692   2.282   8.229 -0.9818 -0.6048  0.1070
   91CHL1  H26C 9210   3.595   2.413   8.307 -1.4329 -1.4408 -0.6303
   91CHL1   C27 9211   3.845   2.516   8.203  0.2164 -0.4429  0.2636
   91CHL1  H27A 9212   3.909   2.428   8.225  0.9743  0.2818  1.0403
   91CHL1  H27B 9213   3.914   2.585   8.150  0.9396  0.1230  1.8742
   91CHL1  H27C 9214   3.831   2.567   8.301  1.8082 -0.5974  0.6043
   92CHL1    C3 9215   5.266   2.587   9.692  0.1777 -0.0132 -0.2780
   92CHL1    H3 9216   5.269   2.677   9.626  0.8711  0.6701  0.6639
   92CHL1    O3 9217   5.257   2.619   9.832 -0.8842 -0.2053 -0.1375
   92CHL1   H3' 9218   5.236   2.529   9.861  1.3486 -1.6437 -2.6156
   92CHL1    C4 9219   5.132   2.517   9.645 -0.0518 -0.2991  0.2770
   92CHL1   H4A 9220   5.112   2.427   9.707  1.1055 -0.3057  0.6575
   92CHL1   H4B 9221   5.052   2.591   9.666  0.3035 -0.3059  1.7300
   92CHL1    C5 9222   5.135   2.484   9.496 -0.3990 -0.6491 -0.9565
   92CHL1    C6 9223   5.043   2.535   9.414  0.0949  0.1612  0.4257
   92CHL1    H6 9224   4.964   2.595   9.461  0.0760 -0.0552  0.6724
   92CHL1    C7 9225   5.041   2.504   9.269 -1.0605 -0.4370 -0.1657
   92CHL1   H7A 9226   4.941   2.477   9.230 -0.1510  1.0074 -3.9627
   92CHL1   H7B 9227   5.064   2.601   9.220 -0.0632 -0.2389  0.6583
   92CHL1    C8 9228   5.140   2.397   9.224  0.2454  0.4349  0.3017
   92CHL1    H8 9229   5.088   2.301   9.241 -1.1751  1.0860 -0.2275
   92CHL1   C14 9230   5.158   2.411   9.075 -0.4558 -0.1057  0.4723
   92CHL1   H14 9231   5.202   2.513   9.066 -0.0433 -0.2131  1.1773
   92CHL1   C15 9232   5.029   2.424   8.991  0.6892 -0.3526 -0.1527
   92CHL1  H15A 9233   4.947   2.358   9.027 -1.6363  1.0434 -2.5274
   92CHL1  H15B 9234   4.993   2.529   8.990  2.7836  0.5082 -3.7811
   92CHL1   C16 9235   5.079   2.390   8.849  0.5085 -0.1058  0.5774
   92CHL1  H16A 9236   5.030   2.298   8.810 -0.4324 -0.4681  2.4702
   92CHL1  H16B 9237   5.085   2.484   8.791  0.6015 -0.0107  0.7401
   92CHL1   C17 9238   5.232   2.348   8.864  0.3214 -0.5179 -0.3971
   92CHL1   H17 9239   5.298   2.437   8.854  0.0274 -0.5077 -3.0504
   92CHL1   C13 9240   5.252   2.313   9.013  0.3115  0.1370 -0.0517
   92CHL1   C18 9241   5.189   2.166   9.024  0.3052  0.0033 -0.2236
   92CHL1  H18A 9242   5.081   2.155   9.001  0.2558 -1.9777  0.8132
   92CHL1  H18B 9243   5.240   2.094   8.957 -0.6741 -0.8894 -0.0303
   92CHL1  H18C 9244   5.183   2.117   9.123  0.8476 -1.0654 -0.7071
   92CHL1   C12 9245   5.388   2.319   9.083 -0.4010  0.0807  0.3810
   92CHL1  H12A 9246   5.453   2.236   9.047 -1.8466  0.2079 -2.9110
   92CHL1  H12B 9247   5.435   2.414   9.049 -1.7799  1.1948  1.4963
   92CHL1   C11 9248   5.384   2.315   9.240  0.4925 -0.7715  0.0241
   92CHL1  H11A 9249   5.373   2.207   9.263 -2.9868 -0.5396 -0.0675
   92CHL1  H11B 9250   5.483   2.351   9.274 -0.1960  1.8048 -0.4553
   92CHL1    C9 9251   5.270   2.411   9.295 -0.5849  0.2351  0.6292
   92CHL1    H9 9252   5.309   2.511   9.270 -1.2420  1.2684  3.3258
   92CHL1   C10 9253   5.259   2.400   9.450  0.8069 -0.3129 -0.0511
   92CHL1   C19 9254   5.251   2.259   9.500 -0.0347  0.0334  0.1534
   92CHL1  H19A 9255   5.243   2.261   9.611  2.7152  0.8349  0.4141
   92CHL1  H19B 9256   5.165   2.207   9.453  2.4088 -1.7109 -2.7799
   92CHL1  H19C 9257   5.346   2.205   9.478  1.1654  2.1526 -0.1283
   92CHL1    C1 9258   5.382   2.463   9.506  0.6041  0.5257 -0.3122
   92CHL1   H1A 9259   5.473   2.401   9.491 -0.7610 -1.8239  0.6092
   92CHL1   H1B 9260   5.402   2.561   9.456  0.3243  0.4771 -0.5199
   92CHL1    C2 9261   5.384   2.496   9.654  0.5211  0.4035 -0.1603
   92CHL1   H2A 9262   5.478   2.553   9.673  0.7585  0.2322 -0.8007
   92CHL1   H2B 9263   5.396   2.410   9.723  0.1069  1.7391  1.6739
   92CHL1   C20 9264   5.275   2.254   8.752  0.8322 -0.9124  0.5199
   92CHL1   H20 9265   5.229   2.154   8.768 -0.2592 -0.4242  0.5383
   92CHL1   C21 9266   5.426   2.234   8.743  0.4641  0.3713 -0.6161
   92CHL1  H21A 9267   5.482   2.330   8.747 -2.1580  1.9341  0.9224
   92CHL1  H21B 9268   5.451   2.194   8.642  1.1655 -1.9871  0.4128
   92CHL1  H21C 9269   5.469   2.163   8.818  0.1865 -0.9759 -1.6841
   92CHL1   C22 9270   5.225   2.304   8.609  0.5065  1.0742 -0.4370
   92CHL1  H22A 9271   5.253   2.225   8.536 -2.1017 -3.4960  2.9675
   92CHL1  H22B 9272   5.115   2.312   8.612  0.4955  1.1429 -0.8850
   92CHL1   C23 9273   5.283   2.440   8.546  0.1161 -0.6292  0.2073
   92CHL1  H23A 9274   5.279   2.515   8.627 -2.0707 -2.3134  1.7849
   92CHL1  H23B 9275   5.391   2.432   8.520 -0.1246  0.6366 -1.3671
   92CHL1   C24 9276   5.197   2.487   8.431 -0.4330 -0.0780  0.5603
   92CHL1  H24A 9277   5.192   2.399   8.363  1.5108  0.5822 -0.5460
   92CHL1  H24B 9278   5.097   2.519   8.466  0.4241  1.7175  1.5064
   92CHL1   C25 9279   5.257   2.614   8.354 -0.0074  0.0775 -0.1080
   92CHL1   H25 9280   5.365   2.602   8.331  0.3834  2.1949  0.3795
   92CHL1   C26 9281   5.190   2.626   8.210 -1.0769 -0.3731 -0.0165
   92CHL1  H26A 9282   5.187   2.520   8.176  0.2611 -1.3188  2.5459
   92CHL1  H26B 9283   5.087   2.664   8.220 -0.9439  0.0542 -0.2482
   92CHL1  H26C 9284   5.244   2.692   8.138 -2.3065  1.9732  1.1402
   92CHL1   C27 9285   5.245   2.737   8.431  0.3464 -0.6019 -0.2976
   92CHL1  H27A 9286   5.142   2.766   8.460 -0.1127  0.1456 -2.4244
   92CHL1  H27B 9287   5.306   2.742   8.523 -1.2683  3.5515  0.8026
   92CHL1  H27C 9288   5.280   2.828   8.376 -1.1571  0.4353  0.3830
   93CHL1    C3 9289   5.409   0.772   6.620 -0.6848  0.0986  0.3567
   93CHL1    H3 9290   5.302   0.746   6.629 -0.4609 -0.9185  0.1896
   93CHL1    O3 9291   5.437   0.757   6.482 -0.0315 -1.0099 -0.6620
   93CHL1   H3' 9292   5.397   0.829   6.433 -1.6913 -1.5043 -0.0975
   93CHL1    C4 9293   5.452   0.913   6.676 -0.5807  0.6837 -0.6379
   93CHL1   H4A 9294   5.547   0.930   6.621 -1.9316  1.4040 -2.8996
   93CHL1   H4B 9295   5.382   0.989   6.634  0.4182  0.9155 -1.9313
   93CHL1    C5 9296   5.462   0.925   6.826  0.0125  0.2696  0.5914
   93CHL1    C6 9297   5.396   1.025   6.890  0.3940 -0.8715 -0.3338
   93CHL1    H6 9298   5.336   1.101   6.837 -0.9175 -1.1104  0.7754
   93CHL1    C7 9299   5.395   1.052   7.041 -0.0107 -0.1204  0.4729
   93CHL1   H7A 9300   5.409   1.160   7.062 -1.6293  0.6526 -1.9481
   93CHL1   H7B 9301   5.296   1.017   7.079 -0.2292  0.4490  0.4317
   93CHL1    C8 9302   5.493   0.958   7.113 -0.1906  0.4310 -0.7105
   93CHL1    H8 9303   5.589   1.010   7.093  0.7016 -1.1525 -0.6436
   93CHL1   C14 9304   5.475   0.953   7.268  0.5982 -0.2293  1.0939
   93CHL1   H14 9305   5.378   0.903   7.286 -0.4163  1.2333 -0.0552
   93CHL1   C15 9306   5.458   1.086   7.341 -0.5768 -0.2729 -0.3324
   93CHL1  H15A 9307   5.534   1.153   7.296  1.9769 -1.2205  2.2876
   93CHL1  H15B 9308   5.359   1.136   7.351 -0.3105  0.0864  0.5204
   93CHL1   C16 9309   5.502   1.051   7.488  0.6874 -0.0683  0.0203
   93CHL1  H16A 9310   5.574   1.126   7.527 -0.1445  0.7352  0.0275
   93CHL1  H16B 9311   5.409   1.054   7.549  0.7120 -0.6062  0.0974
   93CHL1   C17 9312   5.553   0.900   7.483 -0.0941 -0.1670  0.2190
   93CHL1   H17 9313   5.463   0.844   7.517 -1.2171  1.7253  0.4949
   93CHL1   C13 9314   5.582   0.869   7.336  0.1001  0.3155 -0.2258
   93CHL1   C18 9315   5.723   0.921   7.300  0.5002 -0.0081 -0.4178
   93CHL1  H18A 9316   5.729   0.947   7.192 -1.9457  1.5549 -0.2540
   93CHL1  H18B 9317   5.737   1.010   7.365  1.8168  1.3419 -2.4275
   93CHL1  H18C 9318   5.807   0.854   7.328 -0.5714 -0.9340  0.7180
   93CHL1   C12 9319   5.560   0.722   7.282  0.0759  0.1164 -0.2851
   93CHL1  H12A 9320   5.621   0.654   7.346  0.3631 -1.7459 -2.3857
   93CHL1  H12B 9321   5.456   0.692   7.304 -0.0018  0.8677  0.4200
   93CHL1   C11 9322   5.577   0.714   7.135 -0.2966 -0.2940  0.6113
   93CHL1  H11A 9323   5.685   0.727   7.115 -0.1696  0.7152  1.8170
   93CHL1  H11B 9324   5.543   0.612   7.108  0.1748 -1.1107  2.9313
   93CHL1    C9 9325   5.493   0.819   7.052 -0.2221  0.5063 -0.0939
   93CHL1    H9 9326   5.390   0.780   7.065  0.6194 -1.6218  0.5602
   93CHL1   C10 9327   5.532   0.816   6.903  0.5907  0.3340  1.3198
   93CHL1   C19 9328   5.683   0.829   6.877  0.1103 -0.0370  0.4784
   93CHL1  H19A 9329   5.727   0.916   6.931  0.5239 -1.4518  2.5737
   93CHL1  H19B 9330   5.733   0.738   6.918  1.9630  1.5285  1.8633
   93CHL1  H19C 9331   5.711   0.837   6.770  0.5978  0.5541  0.6461
   93CHL1    C1 9332   5.490   0.673   6.847  0.4931 -0.1330 -0.1007
   93CHL1   H1A 9333   5.561   0.602   6.894 -1.0265 -1.1773  0.6695
   93CHL1   H1B 9334   5.387   0.648   6.881  0.4056 -2.0330 -1.5900
   93CHL1    C2 9335   5.493   0.664   6.689  0.4132 -0.5930  0.5552
   93CHL1   H2A 9336   5.462   0.567   6.644 -0.2303 -0.1632  0.0510
   93CHL1   H2B 9337   5.598   0.680   6.657 -0.8762  4.4750 -2.0811
   93CHL1   C20 9338   5.658   0.870   7.591 -0.1760 -0.4802  0.1949
   93CHL1   H20 9339   5.752   0.920   7.561 -1.7597  2.9348  0.4542
   93CHL1   C21 9340   5.686   0.706   7.594  1.1430  0.0363  0.3391
   93CHL1  H21A 9341   5.746   0.680   7.684 -2.0722 -0.0700  2.6081
   93CHL1  H21B 9342   5.751   0.678   7.508  0.5902 -3.0283  0.8038
   93CHL1  H21C 9343   5.586   0.659   7.590  0.9421  0.5483 -0.8740
   93CHL1   C22 9344   5.612   0.905   7.741  0.1158 -0.2550  1.3321
   93CHL1  H22A 9345   5.570   1.008   7.728 -1.2312 -1.1688 -3.3899
   93CHL1  H22B 9346   5.522   0.851   7.779 -1.5533  1.4712  0.0663
   93CHL1   C23 9347   5.715   0.890   7.850 -0.1712 -0.9286  0.1549
   93CHL1  H23A 9348   5.739   0.782   7.859  0.5863 -0.8548 -0.8616
   93CHL1  H23B 9349   5.805   0.945   7.815  0.4929 -1.3260  1.1804
   93CHL1   C24 9350   5.667   0.947   7.980 -0.8398  0.1547 -0.2446
   93CHL1  H24A 9351   5.648   1.054   7.957 -1.7630  0.4437  1.6625
   93CHL1  H24B 9352   5.572   0.901   8.016  0.5986 -0.8456  2.6134
   93CHL1   C25 9353   5.776   0.932   8.099  0.1354  1.2275 -0.1171
   93CHL1   H25 9354   5.876   0.960   8.057  1.1804  1.6045  2.4144
   93CHL1   C26 9355   5.730   1.021   8.210  0.2199  0.1429 -0.1014
   93CHL1  H26A 9356   5.795   1.014   8.300 -0.3030  2.7706  0.5617
   93CHL1  H26B 9357   5.732   1.129   8.186  0.4117 -0.1995 -1.8068
   93CHL1  H26C 9358   5.628   0.985   8.236 -0.1442  1.4731  0.3650
   93CHL1   C27 9359   5.786   0.790   8.146  0.0946  0.3042 -0.2868
   93CHL1  H27A 9360   5.852   0.776   8.234  0.5259 -0.5966 -0.7355
   93CHL1  H27B 9361   5.686   0.750   8.171  0.9783 -0.8944  1.4870
   93CHL1  H27C 9362   5.828   0.725   8.066 -0.5259 -0.1778 -0.2300
   94CHL1    C3 9363   1.035   4.078   6.425 -0.6837 -0.4028 -0.3645
   94CHL1    H3 9364   0.928   4.078   6.395 -0.4088  0.1064 -1.3844
   94CHL1    O3 9365   1.111   4.136   6.323  0.1198  0.1476  0.1179
   94CHL1   H3' 9366   1.049   4.206   6.303  0.2884  0.9423  2.1048
   94CHL1    C4 9367   1.069   4.156   6.558 -0.6549  0.8974  0.2520
   94CHL1   H4A 9368   1.180   4.168   6.564 -0.9083  3.9913  0.4881
   94CHL1   H4B 9369   1.035   4.261   6.546 -0.2432  0.9131 -0.8938
   94CHL1    C5 9370   1.014   4.097   6.688 -1.0226  0.1779  0.1146
   94CHL1    C6 9371   0.938   4.168   6.767  0.2465 -0.5373  0.4539
   94CHL1    H6 9372   0.908   4.272   6.749  1.6552 -0.0578  0.7988
   94CHL1    C7 9373   0.875   4.114   6.896 -0.4190  0.4799 -0.0361
   94CHL1   H7A 9374   0.863   4.189   6.977 -1.0852  0.7896 -0.4182
   94CHL1   H7B 9375   0.774   4.086   6.860  1.5963 -0.5236 -5.8890
   94CHL1    C8 9376   0.943   3.984   6.942 -0.1021  0.0860  0.1772
   94CHL1    H8 9377   1.048   4.011   6.968 -0.0253  0.2230 -0.2781
   94CHL1   C14 9378   0.871   3.911   7.055  0.3454  0.1793  0.2369
   94CHL1   H14 9379   0.769   3.897   7.013  0.5286 -1.2243  0.2184
   94CHL1   C15 9380   0.856   3.988   7.185 -0.5683  0.2113 -0.5933
   94CHL1  H15A 9381   0.953   4.040   7.197 -0.2536  0.0849 -2.3244
   94CHL1  H15B 9382   0.768   4.055   7.169 -0.5059  0.0550 -1.6362
   94CHL1   C16 9383   0.819   3.875   7.287  0.8253 -0.3998  0.4009
   94CHL1  H16A 9384   0.900   3.882   7.364  0.9321  1.7719  0.1536
   94CHL1  H16B 9385   0.721   3.870   7.339  0.1772 -1.0355 -0.8643
   94CHL1   C17 9386   0.836   3.743   7.219 -0.0018  0.6119 -0.3458
   94CHL1   H17 9387   0.736   3.720   7.176  1.5272 -1.7825 -2.9080
   94CHL1   C13 9388   0.926   3.775   7.092  0.0869  0.0863 -0.3037
   94CHL1   C18 9389   1.078   3.778   7.146  0.5310  0.3617  0.3073
   94CHL1  H18A 9390   1.081   3.830   7.245  0.3109 -1.6219  1.4017
   94CHL1  H18B 9391   1.125   3.678   7.144  3.7338  1.7353  0.9180
   94CHL1  H18C 9392   1.144   3.835   7.077  0.3476 -1.0295 -1.0538
   94CHL1   C12 9393   0.924   3.685   6.971  0.1458 -0.0808  0.8152
   94CHL1  H12A 9394   0.972   3.588   6.998  0.2792  0.6217  3.3925
   94CHL1  H12B 9395   0.816   3.671   6.949  0.4279  1.5059 -1.9782
   94CHL1   C11 9396   0.997   3.744   6.856  0.4709  0.1568 -0.4396
   94CHL1  H11A 9397   1.103   3.730   6.887  0.6726  2.7961  0.2978
   94CHL1  H11B 9398   0.979   3.673   6.773 -0.4361 -0.9275  0.6470
   94CHL1    C9 9399   0.954   3.891   6.822  0.0358  0.4060 -0.1689
   94CHL1    H9 9400   0.852   3.881   6.780 -0.0752  1.5728 -0.1827
   94CHL1   C10 9401   1.043   3.949   6.705  0.0676 -0.5199 -0.6352
   94CHL1   C19 9402   1.184   3.929   6.759 -0.3294  0.0490 -0.1339
   94CHL1  H19A 9403   1.203   3.819   6.755 -0.8359 -0.0651  0.4352
   94CHL1  H19B 9404   1.265   3.962   6.691 -0.3560  0.3432 -0.0211
   94CHL1  H19C 9405   1.202   3.969   6.861 -1.1174  1.8041 -0.6547
   94CHL1    C1 9406   1.004   3.879   6.569 -0.0194 -0.1702  0.5090
   94CHL1   H1A 9407   1.039   3.774   6.569  1.7303  0.3754  0.6189
   94CHL1   H1B 9408   0.893   3.882   6.567 -0.0183 -0.2245  0.3822
   94CHL1    C2 9409   1.070   3.934   6.442  0.4398  0.5049  0.9075
   94CHL1   H2A 9410   1.028   3.877   6.357 -2.0120  2.3075  0.7900
   94CHL1   H2B 9411   1.179   3.914   6.451  0.6534  1.0830 -0.1707
   94CHL1   C20 9412   0.859   3.616   7.306 -0.2286  0.5270  0.4125
   94CHL1   H20 9413   0.967   3.614   7.332 -0.4591  2.3565  1.6767
   94CHL1   C21 9414   0.830   3.483   7.235 -0.5815 -0.6496 -0.2351
   94CHL1  H21A 9415   0.898   3.401   7.266 -0.3901 -1.2631 -2.1314
   94CHL1  H21B 9416   0.853   3.491   7.126  1.1649 -2.6218 -0.0868
   94CHL1  H21C 9417   0.723   3.454   7.242 -1.0821  1.3012  0.7120
   94CHL1   C22 9418   0.786   3.614   7.443  0.4327  0.3746 -0.4508
   94CHL1  H22A 9419   0.799   3.706   7.503 -0.3521  0.5935 -0.5985
   94CHL1  H22B 9420   0.678   3.599   7.418  0.6202 -3.1240  0.2705
   94CHL1   C23 9421   0.818   3.509   7.551  0.0400  0.8587  0.5002
   94CHL1  H23A 9422   0.824   3.409   7.503  2.2484  0.4181  1.5858
   94CHL1  H23B 9423   0.923   3.531   7.580  0.5204 -2.6017  1.9462
   94CHL1   C24 9424   0.722   3.503   7.671 -0.2495  0.0458 -0.0771
   94CHL1  H24A 9425   0.714   3.600   7.724  2.8632 -1.0216  2.6884
   94CHL1  H24B 9426   0.625   3.472   7.627  0.6957 -2.1288 -0.7677
   94CHL1   C25 9427   0.766   3.404   7.777 -0.5420 -0.6235 -0.5440
   94CHL1   H25 9428   0.785   3.299   7.745  0.7246 -1.8829  3.6265
   94CHL1   C26 9429   0.906   3.454   7.826 -0.2429 -0.4753 -0.0059
   94CHL1  H26A 9430   0.898   3.556   7.869 -0.0492 -0.9493  1.1916
   94CHL1  H26B 9431   0.944   3.388   7.906  0.8854 -0.1656 -0.2726
   94CHL1  H26C 9432   0.983   3.444   7.747  1.8346  0.6881  1.7903
   94CHL1   C27 9433   0.674   3.407   7.900  0.3993 -0.0559  0.2611
   94CHL1  H27A 9434   0.716   3.350   7.985  0.3121  1.1050  1.0988
   94CHL1  H27B 9435   0.656   3.512   7.931 -0.6378  0.0281 -0.5589
   94CHL1  H27C 9436   0.576   3.368   7.867 -0.5912  0.3182  2.6275
   95CHL1    C3 9437   6.487   3.075   6.587  0.8505 -0.3338 -0.4773
   95CHL1    H3 9438   6.394   3.017   6.567  1.1545 -0.1201 -2.7418
   95CHL1    O3 9439   6.556   3.094   6.466 -0.1125 -0.7395 -0.6437
   95CHL1   H3' 9440   6.645   3.092   6.502 -0.6060 -2.8236  0.5724
   95CHL1    C4 9441   6.453   3.217   6.643  0.3096 -0.2571 -0.3314
   95CHL1   H4A 9442   6.541   3.284   6.643  1.1951 -1.3301  1.8809
   95CHL1   H4B 9443   6.392   3.254   6.558 -0.7128 -0.7268  0.1818
   95CHL1    C5 9444   6.391   3.209   6.780  0.4274  0.4201 -0.2098
   95CHL1    C6 9445   6.270   3.267   6.810  0.5271  0.0358  0.1444
   95CHL1    H6 9446   6.209   3.316   6.733 -2.2263 -1.4695  1.2221
   95CHL1    C7 9447   6.199   3.249   6.940 -0.1477 -0.5591 -0.6907
   95CHL1   H7A 9448   6.148   3.341   6.978  0.1496 -1.2737  1.5770
   95CHL1   H7B 9449   6.124   3.167   6.931  0.9869 -1.5046 -1.8266
   95CHL1    C8 9450   6.296   3.220   7.060  0.0847  0.2827  0.8686
   95CHL1    H8 9451   6.350   3.313   7.088 -2.5875  1.4912  2.4214
   95CHL1   C14 9452   6.218   3.187   7.183  0.2938  0.4636  0.5524
   95CHL1   H14 9453   6.162   3.092   7.165  2.9562 -1.5403  2.1568
   95CHL1   C15 9454   6.113   3.282   7.238 -0.1714  0.2408 -0.4325
   95CHL1  H15A 9455   6.136   3.390   7.229 -0.8595  0.5324  1.0071
   95CHL1  H15B 9456   6.020   3.264   7.179  0.6666 -0.2902 -1.6256
   95CHL1   C16 9457   6.090   3.244   7.385 -0.1655 -0.2342 -0.1940
   95CHL1  H16A 9458   6.112   3.331   7.450  0.6677 -0.5233 -0.0803
   95CHL1  H16B 9459   5.985   3.207   7.398 -0.0227 -1.1974 -1.5960
   95CHL1   C17 9460   6.195   3.132   7.415  0.0925 -0.1475 -0.0304
   95CHL1   H17 9461   6.141   3.038   7.389  1.1425 -1.1563  1.2691
   95CHL1   C13 9462   6.303   3.154   7.304 -0.3660  0.0883  0.1461
   95CHL1   C18 9463   6.380   3.280   7.344 -0.7839 -0.5488 -0.0781
   95CHL1  H18A 9464   6.321   3.370   7.370 -0.0094  0.3939 -1.4225
   95CHL1  H18B 9465   6.441   3.253   7.433  0.3069 -1.9952 -1.2090
   95CHL1  H18C 9466   6.450   3.315   7.265  0.3021 -0.2905  0.9680
   95CHL1   C12 9467   6.396   3.040   7.269  0.0003 -0.3023 -0.0314
   95CHL1  H12A 9468   6.456   3.020   7.360 -1.5014 -0.3519  0.9846
   95CHL1  H12B 9469   6.339   2.946   7.256 -1.1541 -0.0522  2.5587
   95CHL1   C11 9470   6.483   3.069   7.144  0.1955  1.2238 -0.3955
   95CHL1  H11A 9471   6.551   3.156   7.159  0.3003  1.3028 -1.2634
   95CHL1  H11B 9472   6.531   2.973   7.116 -3.0245 -1.2289  1.8019
   95CHL1    C9 9473   6.391   3.106   7.025  0.2737 -0.9183 -0.1715
   95CHL1    H9 9474   6.328   3.016   7.008  0.5362 -0.8032 -2.0159
   95CHL1   C10 9475   6.468   3.123   6.886 -0.1495  0.5476  0.3155
   95CHL1   C19 9476   6.600   3.197   6.916 -0.0343 -0.4849 -0.7648
   95CHL1  H19A 9477   6.579   3.276   6.992 -0.7357 -1.2315 -0.1713
   95CHL1  H19B 9478   6.683   3.136   6.957  1.0009  1.0405 -0.5100
   95CHL1  H19C 9479   6.646   3.241   6.825  0.4974  1.9188  0.5750
   95CHL1    C1 9480   6.507   2.986   6.829 -0.2450 -0.5955  0.1020
   95CHL1   H1A 9481   6.569   2.926   6.899  2.5283  1.0806 -0.7732
   95CHL1   H1B 9482   6.415   2.926   6.810 -0.4617 -0.3210  0.2812
   95CHL1    C2 9483   6.578   2.997   6.686 -0.3101  0.2159 -0.0105
   95CHL1   H2A 9484   6.603   2.899   6.639  0.0209  1.6296 -3.0166
   95CHL1   H2B 9485   6.672   3.054   6.695  0.0551 -0.3738 -0.0076
   95CHL1   C20 9486   6.243   3.135   7.563  0.2801 -0.1692  0.1228
   95CHL1   H20 9487   6.287   3.236   7.578 -1.4130  0.5102  0.7639
   95CHL1   C21 9488   6.345   3.030   7.591 -0.0507  0.5783 -0.1209
   95CHL1  H21A 9489   6.301   2.933   7.561  1.9881 -0.8592  1.2439
   95CHL1  H21B 9490   6.376   3.026   7.698 -0.2688  0.2421 -0.0711
   95CHL1  H21C 9491   6.445   3.042   7.543  1.8374 -0.8393  3.1347
   95CHL1   C22 9492   6.114   3.110   7.647 -0.0561  0.3961 -0.7541
   95CHL1  H22A 9493   6.024   3.166   7.613 -0.5666 -0.0296 -0.1321
   95CHL1  H22B 9494   6.084   3.004   7.659 -0.5657  0.3925 -1.9824
   95CHL1   C23 9495   6.138   3.161   7.793 -0.5554  0.5098  0.7495
   95CHL1  H23A 9496   6.227   3.111   7.835 -0.1462  0.8228  0.2725
   95CHL1  H23B 9497   6.164   3.267   7.776 -1.4919  0.4989 -1.0588
   95CHL1   C24 9498   6.023   3.124   7.879  1.0477  0.0146  0.3305
   95CHL1  H24A 9499   5.936   3.190   7.859  1.5755  0.7673  0.4414
   95CHL1  H24B 9500   5.983   3.023   7.856 -2.5280  1.2359  0.6070
   95CHL1   C25 9501   6.048   3.125   8.025 -0.4632 -0.5830 -0.1396
   95CHL1   H25 9502   6.126   3.197   8.056  1.4470 -2.7017  0.2276
   95CHL1   C26 9503   5.922   3.138   8.105  0.3208 -0.1793 -0.3989
   95CHL1  H26A 9504   5.862   3.228   8.080 -0.8581 -1.0316 -0.6719
   95CHL1  H26B 9505   5.848   3.057   8.092 -0.6640  0.8341 -1.2586
   95CHL1  H26C 9506   5.957   3.149   8.210  2.6362 -1.7644 -0.9266
   95CHL1   C27 9507   6.121   2.996   8.053 -0.1756  0.1432  0.0119
   95CHL1  H27A 9508   6.067   2.899   8.056 -2.2022  1.2645  2.3409
   95CHL1  H27B 9509   6.220   2.997   8.002 -0.3349 -0.0882 -0.3032
   95CHL1  H27C 9510   6.153   3.008   8.159  0.7710 -0.8566 -0.1381
   96CHL1    C3 9511   0.266   2.325   6.326  0.8227  0.5104  0.3123
   96CHL1    H3 9512   0.362   2.364   6.365  0.4464 -0.0690  1.9181
   96CHL1    O3 9513   0.274   2.324   6.182 -0.4891 -0.1918 -0.4361
   96CHL1   H3' 9514   0.201   2.266   6.158  0.5274 -2.5627  1.7055
   96CHL1    C4 9515   0.239   2.185   6.366  0.4046 -0.5510  0.0313
   96CHL1   H4A 9516   0.140   2.155   6.326 -0.7785  1.5123  1.2551
   96CHL1   H4B 9517   0.323   2.128   6.321  2.6287  1.1637  1.7957
   96CHL1    C5 9518   0.239   2.178   6.519  0.4083 -0.5493  0.2688
   96CHL1    C6 9519   0.330   2.111   6.590  0.0522 -0.0373  0.1357
   96CHL1    H6 9520   0.409   2.053   6.539  0.3536  2.1862 -2.1164
   96CHL1    C7 9521   0.326   2.111   6.741 -0.6621  0.0476  0.3022
   96CHL1   H7A 9522   0.342   2.010   6.785  3.2826  0.0887 -0.6438
   96CHL1   H7B 9523   0.404   2.170   6.794 -0.6196  0.3862 -0.1300
   96CHL1    C8 9524   0.193   2.161   6.809  0.1830  0.1358  0.0031
   96CHL1    H8 9525   0.110   2.088   6.796  0.0263  0.6310 -2.0390
   96CHL1   C14 9526   0.216   2.190   6.952  0.0842 -0.0445 -0.3944
   96CHL1   H14 9527   0.296   2.267   6.962  1.3875 -1.4026  0.0816
   96CHL1   C15 9528   0.272   2.073   7.042  1.1562 -0.1787  0.6198
   96CHL1  H15A 9529   0.231   1.978   7.003  0.8296  0.4101 -0.5016
   96CHL1  H15B 9530   0.381   2.066   7.023  1.0165 -0.1871 -0.1939
   96CHL1   C16 9531   0.226   2.112   7.181  0.5253 -0.0967 -0.4151
   96CHL1  H16A 9532   0.153   2.035   7.215  0.6386  0.3414  0.8908
   96CHL1  H16B 9533   0.313   2.113   7.250 -0.0856  1.7129  0.3900
   96CHL1   C17 9534   0.153   2.249   7.168  0.0493  0.2361  0.2705
   96CHL1   H17 9535   0.241   2.316   7.181  0.4547 -0.7567  3.7068
   96CHL1   C13 9536   0.094   2.245   7.030 -0.3361  0.2038  0.5531
   96CHL1   C18 9537  -0.031   2.151   7.027  0.3532 -0.2897 -0.0058
   96CHL1  H18A 9538  -0.079   2.134   6.928  3.3261 -0.7368 -1.5083
   96CHL1  H18B 9539  -0.011   2.051   7.072  1.1771 -1.2672 -2.3889
   96CHL1  H18C 9540  -0.117   2.195   7.081 -1.4958 -0.7204 -2.4322
   96CHL1   C12 9541   0.058   2.379   6.958  0.1950  0.2666  0.4246
   96CHL1  H12A 9542  -0.039   2.419   6.992 -0.4962 -1.0285  0.0534
   96CHL1  H12B 9543   0.128   2.462   6.980  0.9358 -0.2118 -0.0499
   96CHL1   C11 9544   0.040   2.369   6.803 -0.6929 -0.1745 -0.5395
   96CHL1  H11A 9545  -0.060   2.324   6.779 -1.0396  1.2569 -1.9540
   96CHL1  H11B 9546   0.031   2.475   6.770  0.8127  0.6916  1.6635
   96CHL1    C9 9547   0.149   2.286   6.738  0.2592 -0.4297  0.7666
   96CHL1    H9 9548   0.238   2.352   6.745 -0.2888  0.5254 -0.7357
   96CHL1   C10 9549   0.130   2.264   6.581 -0.8094 -0.4983  0.0229
   96CHL1   C19 9550  -0.017   2.213   6.558 -0.1677 -0.0338  0.1284
   96CHL1  H19A 9551  -0.059   2.141   6.630 -0.8603  0.8068  0.5838
   96CHL1  H19B 9552  -0.087   2.299   6.565 -1.3209 -0.6739 -2.3237
   96CHL1  H19C 9553  -0.034   2.180   6.453 -0.4869 -2.0450  0.7815
   96CHL1    C1 9554   0.137   2.407   6.521 -0.5111 -0.2210  0.0033
   96CHL1   H1A 9555   0.059   2.474   6.561  0.1477 -0.2653  1.4482
   96CHL1   H1B 9556   0.233   2.444   6.562  0.7854 -2.0807 -1.1526
   96CHL1    C2 9557   0.155   2.417   6.366  0.7050 -0.5360  0.1877
   96CHL1   H2A 9558   0.166   2.525   6.342 -0.3857 -0.1549  1.2602
   96CHL1   H2B 9559   0.060   2.386   6.316  1.1047 -1.1387 -0.2071
   96CHL1   C20 9560   0.048   2.278   7.276 -0.2460  0.1355  0.2963
   96CHL1   H20 9561  -0.043   2.215   7.272 -1.1335  1.2303  2.1141
   96CHL1   C21 9562   0.006   2.421   7.254  0.5084 -0.3334 -0.0929
   96CHL1  H21A 9563  -0.074   2.430   7.177 -0.5163 -0.8718  0.8718
   96CHL1  H21B 9564   0.093   2.483   7.228  0.0329 -0.1269 -1.2346
   96CHL1  H21C 9565  -0.042   2.467   7.343  1.0318 -0.7564  0.4159
   96CHL1   C22 9566   0.110   2.263   7.417 -0.5576  1.0707 -0.7076
   96CHL1  H22A 9567   0.138   2.157   7.436  0.7194  1.4762 -0.2241
   96CHL1  H22B 9568   0.203   2.321   7.434 -1.7211  2.4410  1.4645
   96CHL1   C23 9569   0.014   2.289   7.534  0.2593 -0.1782 -0.6040
   96CHL1  H23A 9570  -0.018   2.395   7.541 -0.3308 -0.4349  0.9762
   96CHL1  H23B 9571  -0.066   2.212   7.532  0.5418 -0.5166  0.5116
   96CHL1   C24 9572   0.086   2.266   7.665 -0.0990 -0.2293 -0.0351
   96CHL1  H24A 9573   0.109   2.159   7.687 -1.5588 -0.3287  1.1545
   96CHL1  H24B 9574   0.175   2.331   7.678  0.7902 -1.6941  1.7175
   96CHL1   C25 9575  -0.002   2.303   7.791 -1.2051 -0.3108 -0.2247
   96CHL1   H25 9576  -0.106   2.274   7.765 -0.9627 -0.2900 -1.2351
   96CHL1   C26 9577   0.042   2.224   7.922 -0.0213 -0.4239  0.4607
   96CHL1  H26A 9578   0.044   2.115   7.901  0.5416 -0.4085  0.3977
   96CHL1  H26B 9579   0.147   2.256   7.942  0.2772 -0.2918 -1.2021
   96CHL1  H26C 9580  -0.036   2.248   7.998 -3.0801 -0.4643 -2.4513
   96CHL1   C27 9581   0.003   2.455   7.807 -0.6002 -0.7389  0.2468
   96CHL1  H27A 9582  -0.020   2.509   7.712 -3.2144  0.0400  1.2223
   96CHL1  H27B 9583  -0.071   2.497   7.879  0.4044 -0.1890  0.9925
   96CHL1  H27C 9584   0.092   2.491   7.862  0.5625 -1.0435 -1.3831
   97OSM      N 9585   3.379   2.333  11.008 -0.3136 -0.0373  0.2006
   97OSM    C15 9586   3.291   2.333  11.132 -1.1776  0.6094  0.0751
   97OSM   H15A 9587   3.342   2.298  11.220 -2.4537 -1.1983  0.1347
   97OSM   H15B 9588   3.207   2.267  11.121  0.4905 -1.5683 -0.2953
   97OSM   H15C 9589   3.252   2.430  11.161 -0.9817  1.1857 -1.4867
   97OSM    C14 9590   3.476   2.453  11.016 -1.2157  0.5725 -0.4508
   97OSM   H14A 9591   3.564   2.434  11.077 -1.6753 -0.1708 -0.0120
   97OSM   H14B 9592   3.429   2.535  11.069 -1.9251 -1.9645  3.2333
   97OSM   H14C 9593   3.514   2.482  10.919 -0.2368  1.5925  0.2035
   97OSM    C13 9594   3.453   2.208  11.017 -0.2158  0.2540  0.7660
   97OSM   H13A 9595   3.517   2.201  10.930 -0.0279  1.3227  0.8024
   97OSM   H13B 9596   3.388   2.123  11.007 -0.1325  0.4006 -1.6512
   97OSM   H13C 9597   3.518   2.205  11.103 -0.9948 -0.1069  1.3551
   97OSM    C12 9598   3.292   2.336  10.887 -0.5835 -0.2334 -0.0556
   97OSM   H12A 9599   3.271   2.441  10.876  0.8477  0.2083  1.1334
   97OSM   H12B 9600   3.196   2.291  10.907 -0.4377 -0.1379  0.9356
   97OSM    C11 9601   3.347   2.286  10.751  0.1322  0.6532  0.4719
   97OSM   H11A 9602   3.273   2.297  10.669  1.5436  0.5385 -0.8602
   97OSM   H11B 9603   3.359   2.176  10.758 -1.4115  0.5140  1.3305
   97OSM      P 9604   3.593   2.302  10.665  0.4892  0.0975  0.0301
   97OSM    O13 9605   3.684   2.415  10.627 -0.0933 -0.0690  0.2042
   97OSM    O14 9606   3.648   2.198  10.755  0.6397 -0.4146  0.4523
   97OSM    O11 9607   3.552   2.220  10.530 -0.2803  0.9188  0.0315
   97OSM    O12 9608   3.460   2.360  10.714 -0.0264  0.0613  0.0764
   97OSM    C1S 9609   3.489   2.300  10.427 -0.3305 -0.2062 -0.2759
   97OSM    H1S 9610   3.521   2.406  10.433 -2.3322  0.4191  0.2502
   97OSM    H1T 9611   3.379   2.303  10.443  0.1008  0.1516  3.4836
   97OSM     NF 9612   3.503   2.355  10.187 -0.2397 -0.7775 -0.1843
   97OSM    HNF 9613   3.427   2.361  10.123  0.8522  0.7923 -1.4119
   97OSM    C2S 9614   3.514   2.248  10.285  0.0977  0.6133 -0.1134
   97OSM    H2S 9615   3.619   2.213  10.276 -0.9068 -2.4366 -1.4180
   97OSM    C3S 9616   3.418   2.131  10.269 -0.6516 -0.5506 -0.5201
   97OSM    H3S 9617   3.314   2.167  10.283 -0.3421 -0.6117  2.5082
   97OSM     O3 9618   3.427   2.035  10.379  0.3185  0.3955  0.1153
   97OSM    HO3 9619   3.481   2.075  10.448  1.6463  1.7823 -1.6294
   97OSM    C4S 9620   3.446   2.073  10.132 -0.3073  1.0021 -0.0986
   97OSM    H4S 9621   3.384   2.113  10.051  0.7141 -1.1361 -2.0600
   97OSM    C5S 9622   3.549   1.989  10.102 -0.3699  0.3218  0.1694
   97OSM    H5S 9623   3.622   1.950  10.174  1.2318 -1.7626 -2.3970
   97OSM    C6S 9624   3.574   1.946   9.958  0.1453 -0.3828 -0.8628
   97OSM    H6S 9625   3.580   1.835   9.963 -0.0287 -0.3520  0.4197
   97OSM    H6T 9626   3.682   1.970   9.947 -0.0727  2.1196  1.4054
   97OSM    C7S 9627   3.470   1.986   9.856  0.0239  0.1552  0.6123
   97OSM    H7S 9628   3.468   2.097   9.855  1.6042  0.2023 -0.4039
   97OSM    H7T 9629   3.366   1.949   9.873 -0.0032  0.4093  1.0254
   97OSM    C8S 9630   3.514   1.933   9.720  0.2771 -0.0488 -0.6559
   97OSM    H8S 9631   3.467   1.833   9.711  0.4233 -0.1807 -0.0077
   97OSM    H8T 9632   3.624   1.917   9.717  0.3227  0.2050 -0.3594
   97OSM    C9S 9633   3.471   2.026   9.603 -0.2725  0.2190  0.3377
   97OSM    H9S 9634   3.548   2.103   9.585 -0.8642  0.6390 -0.4737
   97OSM    H9T 9635   3.370   2.066   9.629 -0.1553 -0.7934  2.5673
   97OSM   C10S 9636   3.440   1.940   9.480 -0.0561 -0.7326 -0.1036
   97OSM   H10S 9637   3.341   1.895   9.502 -0.5315  0.4542  0.2532
   97OSM   H10T 9638   3.515   1.864   9.449  1.7245  0.6427  0.6878
   97OSM   C11S 9639   3.396   2.042   9.363  0.0690  0.6190  0.2088
   97OSM   H11S 9640   3.480   2.107   9.331 -0.6588  0.4275 -2.3926
   97OSM   H11T 9641   3.318   2.103   9.412 -0.9640  0.4403 -1.1352
   97OSM   C12S 9642   3.342   1.967   9.232 -0.3296 -0.3832 -0.3724
   97OSM   H12S 9643   3.269   1.890   9.263  1.1255 -1.0616  1.6086
   97OSM   H12T 9644   3.425   1.911   9.182 -0.4198 -1.4884  0.6855
   97OSM   C13S 9645   3.281   2.072   9.137  0.4104 -0.1995  0.2061
   97OSM   H13S 9646   3.358   2.136   9.089 -0.8193  0.5106 -0.8897
   97OSM   H13T 9647   3.212   2.145   9.185 -1.4243 -2.5363  1.3554
   97OSM   C14S 9648   3.201   2.007   9.025 -0.3559 -0.6084 -1.1619
   97OSM   H14S 9649   3.129   1.933   9.068 -0.6246  1.0070  1.4451
   97OSM   H14T 9650   3.261   1.950   8.952 -1.6074 -0.6671 -2.1890
   97OSM   C15S 9651   3.128   2.110   8.925  0.3303  0.2158  0.1366
   97OSM   H15S 9652   3.046   2.160   8.981  0.2588  0.1281  0.1104
   97OSM   H15T 9653   3.077   2.049   8.847 -0.4698  1.9135 -0.7164
   97OSM   C16S 9654   3.221   2.214   8.864 -0.1822 -0.4434  0.3499
   97OSM   H16S 9655   3.324   2.179   8.841  1.0994  2.4275  1.2754
   97OSM   H16T 9656   3.241   2.286   8.946  0.8557  1.6415 -1.6240
   97OSM   C17S 9657   3.154   2.295   8.749  0.1622  0.4048  0.1881
   97OSM   H17S 9658   3.052   2.328   8.778 -0.7412 -0.4277 -1.8430
   97OSM   H17T 9659   3.153   2.223   8.664  1.3509 -1.2663  1.5250
   97OSM   C18S 9660   3.235   2.408   8.702 -0.4966  1.0471  0.4697
   97OSM   H18S 9661   3.183   2.462   8.621 -2.5820 -3.7978 -1.8254
   97OSM   H18T 9662   3.322   2.366   8.647 -1.8720 -0.0391 -0.9671
   97OSM   H18U 9663   3.274   2.471   8.785 -0.0496 -0.1284  1.1874
   97OSM    C1F 9664   3.589   2.458  10.179  0.5234 -0.7936 -0.3352
   97OSM     OF 9665   3.685   2.457  10.254  0.3386  0.2877 -0.2112
   97OSM    C2F 9666   3.558   2.572  10.082  0.1056 -0.2598  0.7229
   97OSM    H2F 9667   3.528   2.665  10.134  0.9322 -0.1631  1.0415
   97OSM    H2G 9668   3.473   2.549  10.014  0.5098  0.8364 -0.1981
   97OSM    C3F 9669   3.688   2.600   9.997 -0.2712  0.1123  0.2449
   97OSM    H3F 9670   3.730   2.509   9.950 -1.1016 -0.9880  1.5613
   97OSM    H3G 9671   3.777   2.620  10.061 -0.0705 -0.3043  0.0979
   97OSM    C4F 9672   3.678   2.717   9.894 -0.2160  0.7667 -0.6138
   97OSM    H4F 9673   3.776   2.737   9.845 -0.8702  0.1108 -2.2776
   97OSM    H4G 9674   3.638   2.803   9.951 -1.4585  0.7365 -1.3986
   97OSM    C5F 9675   3.573   2.701   9.779  0.0744 -0.4739  0.2239
   97OSM    H5F 9676   3.565   2.802   9.732 -1.9673 -0.2111  1.0227
   97OSM    H5G 9677   3.470   2.680   9.817 -0.0613  0.7165  0.5616
   97OSM    C6F 9678   3.620   2.603   9.668  0.9763 -1.0829  0.1001
   97OSM    H6F 9679   3.659   2.505   9.701  1.3488 -0.6594  0.9323
   97OSM    H6G 9680   3.703   2.660   9.619 -0.1354 -0.9390 -1.7124
   97OSM    C7F 9681   3.514   2.583   9.565  0.5760  0.3836  0.1915
   97OSM    H7F 9682   3.442   2.667   9.578 -0.5385 -0.3708 -0.8398
   97OSM    H7G 9683   3.464   2.485   9.578 -0.9138  1.2328  1.1592
   97OSM    C8F 9684   3.544   2.611   9.409 -0.4441 -0.1798  0.0706
   97OSM    H8F 9685   3.595   2.710   9.408  1.9119 -1.3054  0.7938
   97OSM    H8G 9686   3.449   2.620   9.352 -0.0932  0.1079 -0.4806
   97OSM    C9F 9687   3.639   2.507   9.358  0.7190 -0.0427  0.5785
   97OSM    H9F 9688   3.735   2.512   9.410  0.6233 -1.1511  0.9005
   97OSM   C10F 9689   3.611   2.418   9.256 -0.5751 -0.0454 -0.6978
   97OSM   H10F 9690   3.691   2.347   9.228  0.3789  0.5192  0.4872
   97OSM   C11F 9691   3.492   2.411   9.166  0.2745  0.1473 -0.1432
   97OSM   H11F 9692   3.406   2.455   9.221  0.4973 -0.5310  0.7693
   97OSM   H11G 9693   3.471   2.302   9.177  2.6437 -0.1607  2.1588
   97OSM   C12F 9694   3.504   2.451   9.023  0.8389  0.1072 -0.7797
   97OSM   H12F 9695   3.507   2.562   9.024 -0.1096  0.1755 -2.1062
   97OSM   H12G 9696   3.407   2.432   8.971 -0.4509  1.7065  0.8953
   97OSM   C13F 9697   3.614   2.378   8.951  0.8328 -0.2130 -0.0220
   97OSM   H13F 9698   3.589   2.270   8.947 -0.9263  0.1871 -1.4796
   97OSM   H13G 9699   3.709   2.396   9.005  0.8810 -2.7849  0.9061
   97OSM   C14F 9700   3.636   2.429   8.813  0.9140 -1.0327 -0.3300
   97OSM   H14F 9701   3.673   2.533   8.796  0.6595 -1.0775 -1.2421
   97OSM   H14G 9702   3.539   2.427   8.758  1.1733 -3.1334 -0.7591
   97OSM   C15F 9703   3.740   2.350   8.744 -0.2423 -0.0853 -0.1472
   97OSM   H15F 9704   3.726   2.252   8.793  1.8415  0.6133  2.0428
   97OSM   H15G 9705   3.841   2.396   8.756  0.5897 -1.3270 -1.8989
   97OSM   C16F 9706   3.719   2.342   8.594 -0.1808  0.1403  0.1590
   97OSM   H16F 9707   3.702   2.446   8.558 -1.1202  0.0022  0.1636
   97OSM   H16G 9708   3.627   2.284   8.571 -0.3766 -0.6683  2.6936
   97OSM   C17F 9709   3.822   2.263   8.517  0.5724 -0.0160  0.1820
   97OSM   H17F 9710   3.913   2.325   8.499  0.8046 -0.1175  0.9408
   97OSM   H17G 9711   3.789   2.234   8.415 -0.5305  0.3646  0.4189
   97OSM   C18F 9712   3.877   2.139   8.592  0.1262 -0.4420 -0.0335
   97OSM   H18F 9713   3.946   2.076   8.533  0.8715  1.4054 -1.2035
   97OSM   H18G 9714   3.794   2.071   8.623 -1.5744  1.8630  0.8375
   97OSM   H18H 9715   3.936   2.183   8.675  0.6652  1.6423 -1.4587
   98OSM      N 9716   1.973   1.329  10.662  0.6409 -0.4925  0.0060
   98OSM    C15 9717   2.115   1.307  10.644  0.3282  0.2183 -0.4259
   98OSM   H15A 9718   2.145   1.222  10.585  0.3788  2.9059 -4.7106
   98OSM   H15B 9719   2.173   1.320  10.734  2.0541 -1.6782 -1.2014
   98OSM   H15C 9720   2.150   1.388  10.581 -0.9412  1.7326  0.7224
   98OSM    C14 9721   1.911   1.227  10.750 -0.0322  0.1303 -0.6342
   98OSM   H14A 9722   1.932   1.128  10.711  0.0245  0.9195 -2.7970
   98OSM   H14B 9723   1.805   1.245  10.752 -0.5238 -2.3843  1.0669
   98OSM   H14C 9724   1.950   1.230  10.850  2.3387 -1.6899 -1.4054
   98OSM    C13 9725   1.952   1.476  10.701 -0.3426 -0.6275  0.0729
   98OSM   H13A 9726   2.025   1.496  10.778 -0.1339 -2.8239  0.5266
   98OSM   H13B 9727   1.854   1.516  10.722  0.0851  0.6423 -0.2948
   98OSM   H13C 9728   1.991   1.540  10.624  1.0501 -0.7382  0.6680
   98OSM    C12 9729   1.903   1.314  10.524  0.1761  0.3299  0.1125
   98OSM   H12A 9730   1.799   1.341  10.536  0.2078  0.1699  0.8125
   98OSM   H12B 9731   1.904   1.211  10.493  0.9531  0.0614  0.9743
   98OSM    C11 9732   1.958   1.390  10.405  0.0134  0.3597  0.0871
   98OSM   H11A 9733   1.938   1.319  10.321  0.8279  0.3880 -0.1456
   98OSM   H11B 9734   2.068   1.394  10.422 -0.1215 -2.3725  2.2027
   98OSM      P 9735   1.763   1.536  10.348  0.0905 -0.2508  0.0410
   98OSM    O13 9736   1.664   1.480  10.446  0.1567 -0.5492  0.0168
   98OSM    O14 9737   1.745   1.681  10.314 -0.5045 -0.0098  1.0315
   98OSM    O11 9738   1.773   1.447  10.218 -0.3735 -0.2969  0.1627
   98OSM    O12 9739   1.906   1.516  10.401 -0.6824  0.7009  0.5749
   98OSM    C1S 9740   1.688   1.474  10.101  0.1788 -0.4129 -0.2651
   98OSM    H1S 9741   1.740   1.554  10.044  1.6880 -1.1028  0.0860
   98OSM    H1T 9742   1.592   1.526  10.120  0.0009 -0.2071 -1.6431
   98OSM     NF 9743   1.566   1.380   9.896 -0.3290 -0.0806 -0.0009
   98OSM    HNF 9744   1.491   1.316   9.879 -1.3798  1.0940  0.0445
   98OSM    C2S 9745   1.657   1.354  10.001  0.2315 -0.6977 -0.0613
   98OSM    H2S 9746   1.756   1.333   9.956  0.8105  0.0694  0.8121
   98OSM    C3S 9747   1.619   1.224  10.080 -0.7120 -0.6438  1.0956
   98OSM    H3S 9748   1.521   1.249  10.126 -0.3111 -0.0622  1.6558
   98OSM     O3 9749   1.695   1.185  10.194  0.3719 -0.1432 -0.2247
   98OSM    HO3 9750   1.751   1.262  10.209  0.8341 -0.7729  1.5152
   98OSM    C4S 9751   1.615   1.098   9.993 -0.1888  0.1334  0.4969
   98OSM    H4S 9752   1.704   1.069   9.935 -0.7436 -0.2247 -0.1775
   98OSM    C5S 9753   1.507   1.024   9.976  0.4780 -0.1930  0.1248
   98OSM    H5S 9754   1.413   1.048  10.029  0.8180  0.8958  0.2525
   98OSM    C6S 9755   1.485   0.908   9.881  0.0542  0.4485 -0.2466
   98OSM    H6S 9756   1.400   0.920   9.810  0.6100  1.1850 -0.8044
   98OSM    H6T 9757   1.463   0.817   9.941 -0.3164  0.1998 -0.7560
   98OSM    C7S 9758   1.611   0.886   9.790  0.3314  0.5867  0.3580
   98OSM    H7S 9759   1.600   0.785   9.744  0.2676  0.4815  0.5990
   98OSM    H7T 9760   1.695   0.873   9.862  0.5070  1.8134  0.3917
   98OSM    C8S 9761   1.645   0.990   9.681 -0.2597  0.4719 -0.7849
   98OSM    H8S 9762   1.739   0.957   9.632 -0.2767  2.6657 -2.4497
   98OSM    H8T 9763   1.674   1.088   9.724 -1.3472  0.2609  0.5050
   98OSM    C9S 9764   1.549   1.003   9.568  0.6139  1.0429 -0.1979
   98OSM    H9S 9765   1.461   1.052   9.613 -0.1026  0.2580 -0.7060
   98OSM    H9T 9766   1.529   0.895   9.550 -0.4962  1.3146 -0.6537
   98OSM   C10S 9767   1.590   1.086   9.454 -0.0327  0.6384  0.1726
   98OSM   H10S 9768   1.666   1.161   9.485  0.1545  1.1186 -1.3392
   98OSM   H10T 9769   1.502   1.140   9.413 -1.1522 -2.5628 -2.1031
   98OSM   C11S 9770   1.642   0.995   9.341  0.1260 -0.3033  0.1705
   98OSM   H11S 9771   1.584   0.904   9.314  0.9375 -0.8422  0.1816
   98OSM   H11T 9772   1.740   0.950   9.368 -0.7469 -2.4153  0.0477
   98OSM   C12S 9773   1.654   1.068   9.202  0.3660 -0.3045  0.5430
   98OSM   H12S 9774   1.722   1.156   9.206  0.4759 -0.2134 -1.9127
   98OSM   H12T 9775   1.560   1.121   9.174  1.4970  0.6115 -1.7929
   98OSM   C13S 9776   1.702   0.981   9.088 -0.2574 -0.2694 -0.2044
   98OSM   H13S 9777   1.639   0.894   9.056 -0.4147 -0.1947 -0.0987
   98OSM   H13T 9778   1.796   0.934   9.122 -0.9400 -1.3408  0.2674
   98OSM   C14S 9779   1.740   1.056   8.955  0.4026  0.1542 -0.8203
   98OSM   H14S 9780   1.822   1.126   8.983  0.4786 -0.5916  0.9418
   98OSM   H14T 9781   1.649   1.112   8.925 -0.8939 -1.2284  0.3842
   98OSM   C15S 9782   1.791   0.963   8.846  0.2213 -0.3436 -0.5509
   98OSM   H15S 9783   1.707   0.896   8.820 -0.8738  0.3819  0.9496
   98OSM   H15T 9784   1.874   0.908   8.896  2.5316  2.2681 -1.2787
   98OSM   C16S 9785   1.851   1.042   8.721 -0.0026  0.5709 -0.1514
   98OSM   H16S 9786   1.933   1.109   8.751  0.3003  1.4049 -2.6357
   98OSM   H16T 9787   1.772   1.107   8.678  0.8830  2.5908  1.1002
   98OSM   C17S 9788   1.899   0.939   8.613  0.5752  0.1105  0.1667
   98OSM   H17S 9789   1.806   0.882   8.591 -0.3312  1.5261  0.1722
   98OSM   H17T 9790   1.969   0.865   8.657  2.2571  1.3654 -0.2858
   98OSM   C18S 9791   1.950   0.995   8.481 -0.0201  0.0652 -0.5487
   98OSM   H18S 9792   1.868   1.060   8.443  0.2948  2.0811  1.9532
   98OSM   H18T 9793   1.966   0.910   8.411  0.1764 -1.7237  1.5251
   98OSM   H18U 9794   2.044   1.052   8.493  0.5296 -0.9878  0.3149
   98OSM    C1F 9795   1.569   1.483   9.810 -0.7762  0.0161 -0.0475
   98OSM     OF 9796   1.659   1.563   9.816 -0.0061 -0.6645 -0.1732
   98OSM    C2F 9797   1.469   1.487   9.699 -0.6482 -0.2709  0.1711
   98OSM    H2F 9798   1.423   1.588   9.687  2.5497  1.1645 -1.2084
   98OSM    H2G 9799   1.393   1.409   9.721 -1.0058  0.5867  2.1576
   98OSM    C3F 9800   1.545   1.452   9.568  0.3500  0.1829  0.3533
   98OSM    H3F 9801   1.591   1.353   9.588  1.1977  0.8924  2.0485
   98OSM    H3G 9802   1.630   1.522   9.554 -1.3682  2.6107  1.4059
   98OSM    C4F 9803   1.454   1.465   9.452  0.0267  0.1730  0.1041
   98OSM    H4F 9804   1.417   1.570   9.463  1.2009  0.4318  2.1183
   98OSM    H4G 9805   1.362   1.405   9.471  0.1663  0.0253  0.3178
   98OSM    C5F 9806   1.506   1.443   9.312 -0.3962  0.1809  0.6432
   98OSM    H5F 9807   1.525   1.337   9.286  0.3227  0.4552  0.0107
   98OSM    H5G 9808   1.603   1.496   9.306 -0.7516  0.8623  0.8585
   98OSM    C6F 9809   1.408   1.496   9.201  0.5291  0.2028  0.1563
   98OSM    H6F 9810   1.422   1.605   9.184 -0.9178  0.3605 -0.1227
   98OSM    H6G 9811   1.308   1.479   9.247  1.1003 -2.3175  0.6152
   98OSM    C7F 9812   1.396   1.418   9.080 -0.2744  0.0974  0.1964
   98OSM    H7F 9813   1.326   1.476   9.016  0.6351  0.3758 -0.5781
   98OSM    H7G 9814   1.337   1.326   9.099 -1.9956  1.0879 -0.1552
   98OSM    C8F 9815   1.523   1.397   8.998  0.5961  0.8497 -1.2108
   98OSM    H8F 9816   1.494   1.314   8.930  0.6089 -0.8137  0.7263
   98OSM    H8G 9817   1.596   1.348   9.066 -0.1408 -0.3561 -1.2597
   98OSM    C9F 9818   1.585   1.516   8.933  0.0219  0.1052  0.4948
   98OSM    H9F 9819   1.663   1.569   8.990 -0.3864  1.5005 -0.1882
   98OSM   C10F 9820   1.550   1.550   8.810 -0.8395 -0.6635 -0.8375
   98OSM   H10F 9821   1.607   1.634   8.766  0.1595 -0.5176  0.6483
   98OSM   C11F 9822   1.451   1.482   8.723 -0.1197  0.4620 -0.2514
   98OSM   H11F 9823   1.376   1.435   8.791  1.1730 -2.2630 -0.5480
   98OSM   H11G 9824   1.507   1.401   8.671 -0.1890  1.3215 -1.6956
   98OSM   C12F 9825   1.386   1.581   8.622 -0.1372 -0.4265  0.2065
   98OSM   H12F 9826   1.352   1.669   8.680 -0.8042 -0.2679 -0.4064
   98OSM   H12G 9827   1.306   1.519   8.575  0.5267 -1.3220  0.2355
   98OSM   C13F 9828   1.481   1.628   8.520 -0.1561 -0.2035  0.1849
   98OSM   H13F 9829   1.541   1.543   8.478  1.2950  0.3075  1.1384
   98OSM   H13G 9830   1.559   1.691   8.569  0.6983 -0.4246 -0.8258
   98OSM   C14F 9831   1.407   1.710   8.405 -0.6251  0.1382  0.3940
   98OSM   H14F 9832   1.474   1.794   8.376 -2.1781  1.7819  1.4025
   98OSM   H14G 9833   1.317   1.763   8.442 -0.2893  0.9437  0.0957
   98OSM   C15F 9834   1.395   1.636   8.276  0.8139  0.0669  0.2881
   98OSM   H15F 9835   1.481   1.566   8.275  0.4567 -0.3726 -0.3397
   98OSM   H15G 9836   1.401   1.697   8.184  1.8507  1.5928  1.3140
   98OSM   C16F 9837   1.260   1.550   8.260 -0.2063  0.4637 -0.8248
   98OSM   H16F 9838   1.180   1.621   8.232  0.1958  1.9152  1.4451
   98OSM   H16G 9839   1.243   1.516   8.364  0.1626 -0.0255 -0.9140
   98OSM   C17F 9840   1.272   1.430   8.170  0.8524  1.1165  0.1897
   98OSM   H17F 9841   1.355   1.358   8.190  0.4360  0.5578 -0.0570
   98OSM   H17G 9842   1.282   1.458   8.063 -0.5650 -0.5932 -0.4402
   98OSM   C18F 9843   1.145   1.339   8.182  0.7279  0.1588  0.1153
   98OSM   H18F 9844   1.139   1.299   8.285  0.8117 -0.1391  0.0048
   98OSM   H18G 9845   1.129   1.257   8.109  1.7085  0.1850 -0.1350
   98OSM   H18H 9846   1.066   1.414   8.158  0.0376  0.1160  2.0663
   99OSM      N 9847   5.660   1.906  10.786 -0.0660  0.0550 -0.5840
   99OSM    C15 9848   5.804   1.904  10.818 -0.0446  0.4804  0.0813
   99OSM   H15A 9849   5.849   2.002  10.821 -1.9060  1.3641  0.3916
   99OSM   H15B 9850   5.859   1.853  10.740  0.9511  0.4527  0.7842
   99OSM   H15C 9851   5.833   1.849  10.907 -0.0255  2.0762  1.0853
   99OSM    C14 9852   5.615   1.765  10.823 -0.2285 -0.2115  0.0032
   99OSM   H14A 9853   5.639   1.737  10.925  3.7632  0.7734 -0.4928
   99OSM   H14B 9854   5.673   1.697  10.762  1.2508 -0.2435  1.3742
   99OSM   H14C 9855   5.511   1.754  10.799 -0.3379  0.6147  0.0828
   99OSM    C13 9856   5.585   1.999  10.887 -0.6020  0.2025  0.8334
   99OSM   H13A 9857   5.480   1.997  10.864 -0.3097  1.6006 -0.8819
   99OSM   H13B 9858   5.616   2.102  10.882 -0.5491  0.1560 -0.1974
   99OSM   H13C 9859   5.614   1.956  10.982  0.8317 -2.6323 -0.7371
   99OSM    C12 9860   5.627   1.940  10.642 -0.0530  0.7043  0.0345
   99OSM   H12A 9861   5.679   2.033  10.622  3.4815 -0.5270  2.5609
   99OSM   H12B 9862   5.521   1.956  10.631 -0.0296  0.5285 -0.4852
   99OSM    C11 9863   5.684   1.843  10.535 -0.1645  0.4719  0.0860
   99OSM   H11A 9864   5.642   1.870  10.435  0.4137  0.2278 -0.2240
   99OSM   H11B 9865   5.658   1.740  10.566  1.2276  0.6908  2.0950
   99OSM      P 9866   5.925   1.742  10.498 -0.1784 -0.0490  0.0770
   99OSM    O13 9867   6.065   1.786  10.470 -0.0723 -0.6491  0.2495
   99OSM    O14 9868   5.902   1.651  10.613 -0.4790  0.3203 -0.0702
   99OSM    O11 9869   5.876   1.672  10.370  0.1447  0.3258  0.7132
   99OSM    O12 9870   5.825   1.865  10.518 -0.4136  0.0585  0.1334
   99OSM    C1S 9871   5.889   1.728  10.232 -0.7845 -0.3185 -0.7755
   99OSM    H1S 9872   5.993   1.729  10.194 -0.9067 -1.4637 -1.1651
   99OSM    H1T 9873   5.858   1.835  10.239 -0.2185 -0.2489  1.9523
   99OSM     NF 9874   5.787   1.742  10.007 -0.5527 -0.0798  0.4173
   99OSM    HNF 9875   5.696   1.776   9.984 -1.0643 -2.4946 -1.5952
   99OSM    C2S 9876   5.787   1.662  10.131 -0.5751 -0.0698  0.0638
   99OSM    H2S 9877   5.832   1.565  10.101 -0.3318 -0.2397  0.9619
   99OSM    C3S 9878   5.650   1.628  10.190  0.4765 -0.5445  0.4155
   99OSM    H3S 9879   5.588   1.713  10.225 -0.7430 -1.3917  0.3370
   99OSM     O3 9880   5.674   1.542  10.300  0.7614  0.1453  0.5134
   99OSM    HO3 9881   5.755   1.584  10.331  1.2256  0.3775 -0.9507
   99OSM    C4S 9882   5.570   1.549  10.095 -0.2213  0.8965 -0.3005
   99OSM    H4S 9883   5.622   1.457  10.068 -0.3953  0.0170  2.0911
   99OSM    C5S 9884   5.447   1.575  10.046 -0.5050 -0.4112 -0.3100
   99OSM    H5S 9885   5.387   1.660  10.081 -0.9695 -1.2669  1.0380
   99OSM    C6S 9886   5.374   1.486   9.949  0.1428 -0.0128  1.0415
   99OSM    H6S 9887   5.339   1.539   9.858 -0.8160 -0.2837  1.2421
   99OSM    H6T 9888   5.289   1.436  10.000  1.2721 -0.9468  2.0800
   99OSM    C7S 9889   5.459   1.376   9.875  0.5146 -0.6478 -1.2368
   99OSM    H7S 9890   5.507   1.310   9.950  1.4327 -1.0778 -2.1857
   99OSM    H7T 9891   5.546   1.427   9.828  0.1408 -1.0702 -2.4144
   99OSM    C8S 9892   5.371   1.304   9.776  0.4035  0.3287  0.1288
   99OSM    H8S 9893   5.330   1.366   9.693 -0.1796 -0.0713  0.1131
   99OSM    H8T 9894   5.274   1.270   9.818  1.1521 -0.9195  0.8825
   99OSM    C9S 9895   5.441   1.179   9.719  0.1880  0.3961 -0.2852
   99OSM    H9S 9896   5.451   1.102   9.798  1.5940  0.5759 -0.2655
   99OSM    H9T 9897   5.543   1.204   9.683 -0.0564  0.3204 -1.0424
   99OSM   C10S 9898   5.378   1.114   9.592 -0.1043  0.5092 -0.4228
   99OSM   H10S 9899   5.270   1.104   9.618 -0.3335  4.6338  0.8718
   99OSM   H10T 9900   5.420   1.012   9.577 -1.2032 -0.3128  1.7278
   99OSM   C11S 9901   5.410   1.197   9.468 -0.7582 -0.1098  0.4484
   99OSM   H11S 9902   5.514   1.182   9.432 -0.7168  3.0180 -1.0955
   99OSM   H11T 9903   5.401   1.305   9.492 -1.3126  0.3342 -1.5395
   99OSM   C12S 9904   5.327   1.160   9.352  0.0042  0.5236  0.5748
   99OSM   H12S 9905   5.340   1.050   9.343  1.0602  0.6746  0.0402
   99OSM   H12T 9906   5.217   1.165   9.361 -0.6003 -2.7973 -2.4480
   99OSM   C13S 9907   5.370   1.241   9.232  0.6572  0.2954  0.4810
   99OSM   H13S 9908   5.466   1.196   9.200  0.3720 -1.3084  1.7420
   99OSM   H13T 9909   5.380   1.351   9.239  1.4747  0.9205 -5.2702
   99OSM   C14S 9910   5.279   1.222   9.109  0.1347 -0.4416 -0.4276
   99OSM   H14S 9911   5.187   1.282   9.125 -0.3304 -1.3754  0.5838
   99OSM   H14T 9912   5.244   1.116   9.104  0.9408 -0.7301 -0.1191
   99OSM   C15S 9913   5.352   1.274   8.988 -0.3083  0.0418  0.2318
   99OSM   H15S 9914   5.448   1.218   8.994  0.2358  0.8888 -0.4190
   99OSM   H15T 9915   5.373   1.382   8.999 -2.4826  0.4017  1.4696
   99OSM   C16S 9916   5.279   1.248   8.864 -0.2879  0.6369  0.7104
   99OSM   H16S 9917   5.274   1.138   8.852 -1.1391  0.7761 -0.3147
   99OSM   H16T 9918   5.341   1.285   8.780  2.4359 -4.9091 -0.1584
   99OSM   C17S 9919   5.134   1.300   8.868  0.4897 -0.2347 -0.2948
   99OSM   H17S 9920   5.073   1.266   8.954  1.0555  0.6608  0.4700
   99OSM   H17T 9921   5.075   1.262   8.781 -0.6068  0.0289  0.3193
   99OSM   C18S 9922   5.112   1.448   8.853 -0.2973 -0.5982  0.3619
   99OSM   H18S 9923   5.173   1.497   8.774 -0.7755 -1.6798 -0.6929
   99OSM   H18T 9924   5.148   1.501   8.944  1.4607 -1.4574  0.2158
   99OSM   H18U 9925   5.008   1.473   8.826  0.3854  0.7504 -1.2186
   99OSM    C1F 9926   5.889   1.766   9.927  0.0686  0.4255  0.4904
   99OSM     OF 9927   5.999   1.723   9.953 -0.2538 -0.2535 -0.5238
   99OSM    C2F 9928   5.858   1.836   9.796  0.2053  0.7155  0.0156
   99OSM    H2F 9929   5.940   1.909   9.779  0.5035  0.5269  0.6112
   99OSM    H2G 9930   5.764   1.894   9.799 -0.1033  0.1979  1.8506
   99OSM    C3F 9931   5.849   1.725   9.684 -0.4492 -0.3935 -0.3888
   99OSM    H3F 9932   5.818   1.784   9.595  0.1927  0.3944 -0.1053
   99OSM    H3G 9933   5.947   1.678   9.663  0.2886  1.2580 -0.8349
   99OSM    C4F 9934   5.748   1.610   9.703  0.0677 -0.4464  0.4819
   99OSM    H4F 9935   5.673   1.646   9.777  0.0823  0.2852  0.1516
   99OSM    H4G 9936   5.802   1.521   9.742  0.0031 -1.1766 -1.0346
   99OSM    C5F 9937   5.675   1.584   9.570 -0.1084 -0.0582  0.1057
   99OSM    H5F 9938   5.607   1.665   9.535  0.9663  0.2736 -1.3087
   99OSM    H5G 9939   5.600   1.504   9.589  1.0331 -1.0950  0.3249
   99OSM    C6F 9940   5.755   1.525   9.457 -0.3240 -0.0739 -0.4583
   99OSM    H6F 9941   5.840   1.587   9.421 -0.0462 -0.3377 -0.2604
   99OSM    H6G 9942   5.676   1.521   9.379 -2.4263  0.1419  1.5764
   99OSM    C7F 9943   5.784   1.380   9.482  0.5092  0.1536 -0.2554
   99OSM    H7F 9944   5.692   1.323   9.505 -0.1869 -0.0494 -3.1577
   99OSM    H7G 9945   5.848   1.373   9.572 -0.3039 -2.1906  0.2041
   99OSM    C8F 9946   5.858   1.318   9.364  0.2580  0.3837  0.2336
   99OSM    H8F 9947   5.896   1.221   9.402 -1.5355 -0.3918  0.1527
   99OSM    H8G 9948   5.945   1.379   9.331  0.1285  0.7141  0.4937
   99OSM    C9F 9949   5.768   1.282   9.253  0.1726 -0.0612 -0.6044
   99OSM    H9F 9950   5.674   1.338   9.241  0.2970 -0.1627 -2.3718
   99OSM   C10F 9951   5.800   1.177   9.171 -0.2571 -0.4178 -0.2680
   99OSM   H10F 9952   5.731   1.150   9.090 -2.0494  0.4046  0.9136
   99OSM   C11F 9953   5.924   1.092   9.175  0.1816 -0.1488  0.6302
   99OSM   H11F 9954   5.992   1.121   9.258  1.3923  0.5500 -0.5699
   99OSM   H11G 9955   5.985   1.118   9.086 -2.3828 -0.8569 -1.4834
   99OSM   C12F 9956   5.919   0.937   9.178  0.0887 -0.2012 -0.2516
   99OSM   H12F 9957   5.874   0.907   9.081 -1.9301 -0.0349  0.5830
   99OSM   H12G 9958   5.847   0.910   9.258 -0.4421 -0.2665 -0.7379
   99OSM   C13F 9959   6.054   0.864   9.193 -0.2698 -0.1618  0.3175
   99OSM   H13F 9960   6.084   0.891   9.296 -1.4965 -1.8485  1.1621
   99OSM   H13G 9961   6.126   0.899   9.116  0.0777  0.6125  0.9753
   99OSM   C14F 9962   6.038   0.712   9.201 -0.3539 -0.1666 -0.1317
   99OSM   H14F 9963   5.977   0.681   9.289  2.4800  1.1559  2.4843
   99OSM   H14G 9964   6.135   0.662   9.220 -1.2829 -1.7155  0.8478
   99OSM   C15F 9965   5.990   0.652   9.070  0.8389  0.5692  0.3235
   99OSM   H15F 9966   6.064   0.671   8.989  0.5561 -0.5074 -0.1979
   99OSM   H15G 9967   5.900   0.703   9.031  0.8004  0.5541  0.3913
   99OSM   C16F 9968   5.931   0.509   9.067  0.0239 -0.5114 -0.2308
   99OSM   H16F 9969   5.861   0.511   9.154  0.3989  0.1928  0.0671
   99OSM   H16G 9970   6.016   0.438   9.070 -0.5298 -1.2757 -1.7987
   99OSM   C17F 9971   5.857   0.466   8.938  0.0471 -0.5256 -0.3400
   99OSM   H17F 9972   5.786   0.543   8.902  0.8218 -0.4336 -1.7238
   99OSM   H17G 9973   5.794   0.375   8.953  0.4153 -0.6673  0.3598
   99OSM   C18F 9974   5.961   0.445   8.824  0.5542 -0.4423  0.2646
   99OSM   H18F 9975   5.920   0.431   8.722  1.2318  0.0127 -0.0766
   99OSM   H18G 9976   6.016   0.352   8.850  0.8315 -0.3403  0.0524
   99OSM   H18H 9977   6.027   0.534   8.814  0.3179 -0.4440 -1.6239
  100OSM      N 9978   6.292   3.281  10.788  0.7268 -0.5337  0.5996
  100OSM    C15 9979   6.326   3.421  10.823 -0.2835 -0.4297 -0.1747
  100OSM   H15A 9980   6.256   3.496  10.790  0.3230  1.6139  2.7381
  100OSM   H15B 9981   6.424   3.432  10.780 -0.1856 -3.8261 -1.0931
  100OSM   H15C 9982   6.321   3.434  10.930 -0.6968 -1.5915 -0.0378
  100OSM    C14 9983   6.408   3.201  10.833 -0.8280  0.2286 -0.1370
  100OSM   H14A 9984   6.503   3.238  10.798 -0.3288 -1.4331 -0.6023
  100OSM   H14B 9985   6.390   3.098  10.807 -0.2929  0.0032  0.3657
  100OSM   H14C 9986   6.427   3.209  10.939  1.9856  1.2670 -0.6335
  100OSM    C13 9987   6.172   3.236  10.864 -0.6686 -0.3274  0.2331
  100OSM   H13A 9988   6.148   3.131  10.855 -2.2571 -0.0376  0.7697
  100OSM   H13B 9989   6.081   3.284  10.831 -1.6967 -2.9633 -1.0182
  100OSM   H13C 9990   6.165   3.255  10.970 -2.1480  1.4202 -0.1297
  100OSM    C12 9991   6.274   3.259  10.636  0.0205 -0.2422  0.2247
  100OSM   H12A 9992   6.365   3.281  10.583 -0.6411  1.9198 -0.1101
  100OSM   H12B 9993   6.193   3.326  10.609 -0.2643 -0.5769  0.2454
  100OSM    C11 9994   6.220   3.109  10.601  0.3351  0.2313 -0.1728
  100OSM   H11A 9995   6.219   3.106  10.490 -1.8826  0.4653 -0.1989
  100OSM   H11B 9996   6.116   3.092  10.634  1.1843 -1.9362  1.6542
  100OSM      P 9997   6.426   2.947  10.587 -0.2576 -0.4257  0.0503
  100OSM    O13 9998   6.527   3.052  10.555  0.3886  0.2117  0.2375
  100OSM    O14 9999   6.474   2.829  10.663  0.1784  0.7894  1.0320
  100OSM    O1110000   6.366   2.896  10.451  0.4878 -1.1540  0.3070
  100OSM    O1210001   6.301   3.005  10.660 -0.2192 -0.3152  0.2465
  100OSM    C1S10002   6.443   2.816  10.363  0.2217 -0.7307 -0.4894
  100OSM    H1S10003   6.455   2.714  10.406  1.4176 -0.3115  0.2344
  100OSM    H1T10004   6.543   2.855  10.337  0.0710 -1.1777 -1.7962
  100OSM     NF10005   6.451   2.705  10.135  0.5047  0.3341  0.1880
  100OSM    HNF10006   6.516   2.742  10.069  0.8946 -0.7916 -0.0895
  100OSM    C2S10007   6.370   2.794  10.228 -0.1482 -0.0685  0.0676
  100OSM    H2S10008   6.270   2.747  10.241  1.3190 -3.4303  0.3954
  100OSM    C3S10009   6.351   2.936  10.162 -0.4041 -0.4958 -0.6456
  100OSM    H3S10010   6.447   2.968  10.115 -0.4945 -1.5041 -1.5538
  100OSM     O310011   6.280   3.029  10.241 -0.0114  0.1979 -0.2855
  100OSM    HO310012   6.296   3.002  10.332  0.8530 -1.3950 -0.8641
  100OSM    C4S10013   6.259   2.906  10.042  0.1025 -0.8209  0.4434
  100OSM    H4S10014   6.171   2.841  10.054 -2.0347  2.0429  1.4537
  100OSM    C5S10015   6.298   2.951   9.916 -0.1851 -0.4660 -0.2282
  100OSM    H5S10016   6.402   2.989   9.911 -1.1017  2.3283  0.2352
  100OSM    C6S10017   6.248   2.896   9.784  0.2186 -0.5371  0.9566
  100OSM    H6S10018   6.331   2.859   9.720  0.0315 -0.9377  0.9426
  100OSM    H6T10019   6.200   2.980   9.729 -0.8464 -1.4049  0.5261
  100OSM    C7S10020   6.130   2.801   9.792 -0.0923 -0.2790  0.0181
  100OSM    H7S10021   6.138   2.713   9.858  0.7489  1.6469  2.6591
  100OSM    H7T10022   6.127   2.752   9.692 -3.3485  0.9339 -0.6153
  100OSM    C8S10023   5.997   2.873   9.822  0.3422 -0.1700 -0.3563
  100OSM    H8S10024   6.019   2.946   9.903 -0.3895 -0.2898 -0.0446
  100OSM    H8T10025   5.927   2.802   9.871 -2.5562  2.4349 -0.4770
  100OSM    C9S10026   5.935   2.953   9.705  0.2180 -0.2918 -0.1152
  100OSM    H9S10027   5.908   2.895   9.614  2.5004  0.4370 -1.3348
  100OSM    H9T10028   6.017   3.024   9.682  0.8316 -0.6989  0.7792
  100OSM   C10S10029   5.816   3.034   9.770 -0.7491  0.0801 -0.2079
  100OSM   H10S10030   5.870   3.129   9.792  0.8608 -1.0612  1.0016
  100OSM   H10T10031   5.805   2.993   9.872  1.2994  2.1626  0.9513
  100OSM   C11S10032   5.696   3.055   9.674 -0.1831  0.4559 -0.7597
  100OSM   H11S10033   5.611   3.102   9.728 -0.7439 -1.7288  0.3308
  100OSM   H11T10034   5.662   2.954   9.642  1.7579 -1.4773  2.7529
  100OSM   C12S10035   5.724   3.130   9.548 -0.8195  0.1558  0.4940
  100OSM   H12S10036   5.810   3.080   9.497 -1.5494 -0.6119 -0.0141
  100OSM   H12T10037   5.751   3.237   9.560 -1.1419  0.5520 -1.7986
  100OSM   C13S10038   5.612   3.115   9.442  0.6908 -0.3468 -0.1480
  100OSM   H13S10039   5.511   3.154   9.466  0.5709  0.4355 -1.7718
  100OSM   H13T10040   5.594   3.006   9.432 -0.9031 -0.0582 -0.8623
  100OSM   C14S10041   5.640   3.165   9.303  0.3971  0.0495  0.5014
  100OSM   H14S10042   5.738   3.121   9.273 -0.4717 -0.0322 -2.4396
  100OSM   H14T10043   5.654   3.275   9.309 -2.0519  0.4504 -0.1318
  100OSM   C15S10044   5.532   3.129   9.195 -0.4531  0.5081 -0.4595
  100OSM   H15S10045   5.435   3.158   9.240 -1.1309  0.1774 -1.6799
  100OSM   H15T10046   5.533   3.020   9.174 -0.2039  0.5574 -0.6997
  100OSM   C16S10047   5.538   3.208   9.067 -0.9381 -0.2647 -0.5054
  100OSM   H16S10048   5.645   3.202   9.036 -0.6470  1.1035  0.1735
  100OSM   H16T10049   5.513   3.314   9.087 -1.8749 -0.5742  0.0017
  100OSM   C17S10050   5.456   3.146   8.950  0.3362 -0.3805  0.2515
  100OSM   H17S10051   5.348   3.159   8.975  0.2004  1.4259 -1.0396
  100OSM   H17T10052   5.483   3.040   8.933 -0.9861 -0.6444 -0.4039
  100OSM   C18S10053   5.479   3.216   8.818  0.1636 -0.4148 -0.2778
  100OSM   H18S10054   5.464   3.326   8.830  1.6349  0.1234 -2.6273
  100OSM   H18T10055   5.413   3.182   8.735 -1.0748 -0.8955  0.8637
  100OSM   H18U10056   5.583   3.203   8.782 -0.5944  1.0557 -3.3750
  100OSM    C1F10057   6.432   2.576  10.154 -0.2405  0.3366  0.1524
  100OSM     OF10058   6.361   2.534  10.242 -0.7750 -0.2386  0.1141
  100OSM    C2F10059   6.508   2.479  10.066 -0.6018  0.3403 -0.4139
  100OSM    H2F10060   6.600   2.461  10.125  0.9061  1.6004 -2.2485
  100OSM    H2G10061   6.527   2.526   9.967 -0.9600  0.1453 -0.5776
  100OSM    C3F10062   6.424   2.351  10.057  0.0718  0.6362  0.1371
  100OSM    H3F10063   6.391   2.306  10.153  2.0445 -0.5213  0.3304
  100OSM    H3G10064   6.497   2.270  10.032 -2.7179 -1.6904 -1.0788
  100OSM    C4F10065   6.305   2.350   9.956 -0.8886 -0.2321  0.3718
  100OSM    H4F10066   6.209   2.387   9.997 -0.0694  2.5045  0.0253
  100OSM    H4G10067   6.284   2.243   9.936 -0.5674 -0.2542  0.1434
  100OSM    C5F10068   6.340   2.411   9.820  0.5350  0.1423 -0.0563
  100OSM    H5F10069   6.444   2.391   9.787  1.8479  2.3397  2.4056
  100OSM    H5G10070   6.345   2.521   9.835  2.1040 -0.0813  1.2162
  100OSM    C6F10071   6.227   2.380   9.717 -0.2677 -0.5935  0.2577
  100OSM    H6F10072   6.144   2.454   9.721  0.5302  0.4046 -0.8673
  100OSM    H6G10073   6.195   2.274   9.718 -1.4363 -0.2566  0.2360
  100OSM    C7F10074   6.289   2.408   9.572  0.5197  0.3351  0.3442
  100OSM    H7F10075   6.390   2.363   9.562  0.9056  1.3711 -0.5966
  100OSM    H7G10076   6.290   2.519   9.572 -1.2059  0.3769  0.4208
  100OSM    C8F10077   6.207   2.348   9.456  0.3518 -0.7011 -0.3656
  100OSM    H8F10078   6.104   2.391   9.463 -0.6218 -2.2959 -3.2777
  100OSM    H8G10079   6.178   2.240   9.452 -0.8654 -0.3404 -2.5149
  100OSM    C9F10080   6.267   2.378   9.321  0.0364  0.4791  0.1820
  100OSM    H9F10081   6.376   2.396   9.318 -0.0891  1.1355 -0.4424
  100OSM   C10F10082   6.196   2.375   9.200  0.0286 -0.6948 -0.3265
  100OSM   H10F10083   6.250   2.390   9.106  0.6728 -2.0625 -0.1988
  100OSM   C11F10084   6.048   2.379   9.187 -0.2403  0.2425 -0.2963
  100OSM   H11F10085   6.034   2.485   9.154  1.1074  1.2973  2.2225
  100OSM   H11G10086   5.991   2.350   9.277 -0.5795 -1.9918 -1.1786
  100OSM   C12F10087   5.998   2.294   9.082  0.4118 -0.0663  0.4047
  100OSM   H12F10088   6.021   2.186   9.095 -0.1730 -0.2477 -0.0417
  100OSM   H12G10089   6.043   2.324   8.985 -0.4254  1.2969  0.4260
  100OSM   C13F10090   5.846   2.286   9.076  0.0626 -0.4060 -0.1976
  100OSM   H13F10091   5.814   2.393   9.066  0.9116 -0.2238 -1.1550
  100OSM   H13G10092   5.801   2.258   9.173 -2.9681  0.6312 -1.1692
  100OSM   C14F10093   5.778   2.206   8.964 -0.7310  0.4409  0.2317
  100OSM   H14F10094   5.667   2.215   8.970 -1.0415 -0.9162 -2.1833
  100OSM   H14G10095   5.815   2.102   8.980  2.6146  1.7809  2.3786
  100OSM   C15F10096   5.821   2.249   8.819 -0.2442  0.1251  0.2801
  100OSM   H15F10097   5.792   2.162   8.756  0.8871 -1.2723  1.5895
  100OSM   H15G10098   5.927   2.281   8.811 -0.6263  1.0924 -1.3631
  100OSM   C16F10099   5.743   2.373   8.774 -0.2865  0.7054  0.1954
  100OSM   H16F10100   5.811   2.460   8.783 -0.2126  0.9791 -2.3984
  100OSM   H16G10101   5.654   2.391   8.839 -0.8121  0.8726 -0.5538
  100OSM   C17F10102   5.724   2.372   8.625 -0.2804 -0.6685 -0.0960
  100OSM   H17F10103   5.675   2.273   8.610 -1.3353 -0.5122  1.8882
  100OSM   H17G10104   5.827   2.377   8.585  0.8207 -0.6906  2.4853
  100OSM   C18F10105   5.645   2.492   8.580  0.1246  0.3450 -0.2065
  100OSM   H18F10106   5.704   2.586   8.588 -0.5202  0.7040  0.4144
  100OSM   H18G10107   5.557   2.506   8.646  0.4865  3.7743 -0.2820
  100OSM   H18H10108   5.604   2.487   8.477  1.9228 -2.1378 -0.8998
  101OSM      N10109   2.395   4.045  10.470  0.3843 -1.0448 -0.0229
  101OSM    C1510110   2.445   3.908  10.453  0.3756  0.1695 -0.3260
  101OSM   H15A10111   2.373   3.831  10.429  0.8174 -0.9131  1.5702
  101OSM   H15B10112   2.496   3.864  10.538  0.4341 -2.5538 -1.6605
  101OSM   H15C10113   2.504   3.902  10.363  0.7737 -0.1730 -0.0447
  101OSM    C1410114   2.293   4.048  10.586  0.4403  0.5481  0.1366
  101OSM   H14A10115   2.277   4.148  10.624  0.0303  0.1270  1.1187
  101OSM   H14B10116   2.330   3.987  10.666 -0.0574 -0.5944 -0.4843
  101OSM   H14C10117   2.199   4.014  10.545  0.3880  0.7701  0.0682
  101OSM    C1310118   2.515   4.132  10.496 -0.8373  0.2040 -0.1110
  101OSM   H13A10119   2.494   4.237  10.505  1.5694  0.6841  0.5768
  101OSM   H13B10120   2.579   4.117  10.410 -1.0955 -0.0887 -0.2553
  101OSM   H13C10121   2.561   4.103  10.589  1.2223  0.4692 -1.0010
  101OSM    C1210122   2.333   4.094  10.344 -0.2792 -0.0574  0.4091
  101OSM   H12A10123   2.245   4.034  10.329 -0.0708 -0.6227  1.3436
  101OSM   H12B10124   2.408   4.079  10.268  0.7119  1.4733  1.0342
  101OSM    C1110125   2.284   4.237  10.341  0.3966  0.2810  0.1080
  101OSM   H11A10126   2.220   4.249  10.430 -1.7463 -2.4617 -0.9127
  101OSM   H11B10127   2.214   4.251  10.256  1.1901  0.1984 -0.5851
  101OSM      P10128   2.392   4.477  10.386 -0.2917 -0.2579 -0.3562
  101OSM    O1310129   2.247   4.521  10.396  0.6282 -0.2016  0.3418
  101OSM    O1410130   2.488   4.499  10.503  0.0998 -0.1164  0.0983
  101OSM    O1110131   2.444   4.550  10.259  0.1601  0.4554  0.2418
  101OSM    O1210132   2.391   4.329  10.323  0.1477  0.4214 -0.4505
  101OSM    C1S10133   2.565   4.508  10.198  0.4867 -0.1305  0.0175
  101OSM    H1S10134   2.643   4.455  10.258 -0.0320 -0.7895  0.1175
  101OSM    H1T10135   2.619   4.601  10.172 -0.7212  0.4170 -0.5703
  101OSM     NF10136   2.670   4.431   9.978 -0.2395 -0.0446 -0.4019
  101OSM    HNF10137   2.654   4.446   9.881  0.8558 -1.2247 -0.7969
  101OSM    C2S10138   2.549   4.426  10.057  0.3230 -0.2258 -0.2549
  101OSM    H2S10139   2.536   4.318  10.081 -0.7751 -0.9801 -3.7094
  101OSM    C3S10140   2.408   4.454   9.989 -0.4222 -0.1750  0.2011
  101OSM    H3S10141   2.411   4.564   9.972  0.0265 -0.1332  0.5162
  101OSM     O310142   2.297   4.411  10.070  0.2820  0.4476  0.6906
  101OSM    HO310143   2.333   4.379  10.153 -1.6910 -0.3221  1.3237
  101OSM    C4S10144   2.401   4.381   9.860  0.3520  0.3510  0.1050
  101OSM    H4S10145   2.374   4.276   9.877  0.2469  0.4429  0.5028
  101OSM    C5S10146   2.417   4.422   9.733 -0.4998 -0.5909  0.2603
  101OSM    H5S10147   2.447   4.525   9.709 -2.0395 -0.0015  0.7164
  101OSM    C6S10148   2.399   4.329   9.610  0.4268 -0.6849  0.5267
  101OSM    H6S10149   2.298   4.350   9.569 -0.0497 -0.1591  1.8893
  101OSM    H6T10150   2.391   4.221   9.636  1.2425 -0.5853  1.2073
  101OSM    C7S10151   2.501   4.337   9.491 -0.3880  0.4337 -0.4716
  101OSM    H7S10152   2.594   4.294   9.534 -0.4589  0.0184 -0.7243
  101OSM    H7T10153   2.526   4.441   9.460 -0.7197  0.9480  0.9266
  101OSM    C8S10154   2.454   4.243   9.377 -0.1087 -0.5090 -0.9275
  101OSM    H8S10155   2.394   4.157   9.415  1.2135 -1.3921 -0.7526
  101OSM    H8T10156   2.538   4.199   9.318  0.8780 -0.9631  0.7480
  101OSM    C9S10157   2.383   4.317   9.269  0.3321  0.0076  0.0877
  101OSM    H9S10158   2.448   4.402   9.242 -3.8507  2.8771 -2.0146
  101OSM    H9T10159   2.286   4.353   9.310 -0.4836  0.5807 -2.2465
  101OSM   C10S10160   2.360   4.225   9.148 -0.3684  0.3278 -0.3462
  101OSM   H10S10161   2.296   4.136   9.164 -1.2685  0.8361 -1.0400
  101OSM   H10T10162   2.459   4.178   9.129 -0.6506  0.1549 -1.4266
  101OSM   C11S10163   2.303   4.292   9.022 -0.1301 -0.5047 -0.4647
  101OSM   H11S10164   2.219   4.356   9.057  0.8393  0.4893  0.0962
  101OSM   H11T10165   2.276   4.214   8.948  0.4255  0.9084 -2.2068
  101OSM   C12S10166   2.393   4.389   8.961  0.1125 -0.1299  0.2033
  101OSM   H12S10167   2.461   4.348   8.884  3.0119  2.4595  1.2126
  101OSM   H12T10168   2.462   4.450   9.022  1.2481 -0.2798 -0.8961
  101OSM   C13S10169   2.305   4.485   8.877 -0.0596 -0.1300 -0.2666
  101OSM   H13S10170   2.381   4.558   8.840 -0.4014  0.5430  0.3272
  101OSM   H13T10171   2.231   4.535   8.943  0.2349 -1.0851  0.8287
  101OSM   C14S10172   2.219   4.410   8.763 -0.6020 -0.3171 -0.0264
  101OSM   H14S10173   2.139   4.354   8.816  1.6989 -1.9010  2.0012
  101OSM   H14T10174   2.285   4.339   8.709 -1.2123  0.3726 -1.7585
  101OSM   C15S10175   2.164   4.505   8.664  0.4971 -0.2464 -0.1323
  101OSM   H15S10176   2.243   4.576   8.633  0.5560 -0.7570 -1.1934
  101OSM   H15T10177   2.088   4.568   8.715 -2.4074 -3.3856 -0.1741
  101OSM   C16S10178   2.106   4.442   8.535  0.1023 -0.2409  0.0186
  101OSM   H16S10179   2.024   4.371   8.558 -2.0092  1.5461 -1.5706
  101OSM   H16T10180   2.187   4.392   8.478 -1.2369 -0.0719 -2.1417
  101OSM   C17S10181   2.057   4.553   8.446 -0.1164 -0.1080  0.1619
  101OSM   H17S10182   2.148   4.615   8.437  0.1419 -0.3211  1.1905
  101OSM   H17T10183   1.976   4.615   8.491  1.4986  2.1566  0.0812
  101OSM   C18S10184   2.004   4.507   8.314  0.5526 -1.0093  0.7809
  101OSM   H18S10185   2.078   4.444   8.260 -0.9423 -1.5608 -0.7219
  101OSM   H18T10186   1.969   4.589   8.247 -2.5993 -0.2717  3.0794
  101OSM   H18U10187   1.923   4.434   8.336 -1.9599  1.6119  0.8731
  101OSM    C1F10188   2.789   4.397  10.012 -0.4158 -0.1749 -0.9040
  101OSM     OF10189   2.825   4.340  10.115 -0.2663 -0.3255 -0.2206
  101OSM    C2F10190   2.892   4.438   9.910 -0.4664 -0.2676  0.2234
  101OSM    H2F10191   2.993   4.414   9.950 -0.5212 -0.7770  0.0642
  101OSM    H2G10192   2.888   4.547   9.891 -0.1902 -0.7170 -2.9513
  101OSM    C3F10193   2.877   4.360   9.779  0.0641  0.7606  0.1367
  101OSM    H3F10194   2.778   4.379   9.732 -0.8204 -1.8995  0.7362
  101OSM    H3G10195   2.877   4.252   9.808  1.0959  0.6161 -0.3336
  101OSM    C4F10196   3.001   4.361   9.685 -0.0765 -0.6197 -0.4371
  101OSM    H4F10197   3.095   4.353   9.744 -0.0139  2.1940 -0.0028
  101OSM    H4G10198   3.012   4.466   9.650 -0.8070 -0.5044 -0.3366
  101OSM    C5F10199   2.980   4.272   9.560 -0.2640  0.1291 -0.6211
  101OSM    H5F10200   2.879   4.299   9.523  0.2220  1.2717 -1.1636
  101OSM    H5G10201   2.984   4.168   9.599 -1.1464  1.4608  3.4837
  101OSM    C6F10202   3.075   4.313   9.447 -0.1259 -0.1811 -0.3184
  101OSM    H6F10203   3.047   4.421   9.443  1.5163  0.2461 -2.1637
  101OSM    H6G10204   3.180   4.297   9.481 -0.4342 -2.2900 -0.2823
  101OSM    C7F10205   3.056   4.240   9.316  0.1753 -0.5306 -0.0513
  101OSM    H7F10206   3.089   4.134   9.322  0.7220 -0.3420  0.2652
  101OSM    H7G10207   3.103   4.292   9.230 -2.5898  1.1619 -0.6687
  101OSM    C8F10208   2.910   4.238   9.266 -0.0772  0.9326 -0.3995
  101OSM    H8F10209   2.867   4.169   9.342  1.6213  3.1247  2.7614
  101OSM    H8G10210   2.914   4.190   9.166  1.1869  2.0406 -0.9064
  101OSM    C9F10211   2.836   4.365   9.261  0.3656 -0.2413 -0.1970
  101OSM    H9F10212   2.821   4.411   9.360  2.3945  1.5738 -0.6688
  101OSM   C10F10213   2.796   4.435   9.150  0.1526 -0.0757 -0.1074
  101OSM   H10F10214   2.738   4.528   9.154  0.7220  0.3940 -1.7737
  101OSM   C11F10215   2.843   4.401   9.013  0.1347  0.2015  0.0348
  101OSM   H11F10216   2.766   4.344   8.957 -2.5367  1.3104  2.3277
  101OSM   H11G10217   2.934   4.337   9.010  0.0006  0.0493 -1.0462
  101OSM   C12F10218   2.876   4.526   8.930  0.0875  0.1381 -0.7253
  101OSM   H12F10219   2.790   4.572   8.878 -2.0969 -2.4666  0.3113
  101OSM   H12G10220   2.926   4.488   8.838 -1.2071  2.5166 -2.5121
  101OSM   C13F10221   2.973   4.630   8.991  0.1778 -0.4343 -0.4167
  101OSM   H13F10222   3.076   4.588   8.990  0.6638  0.7097 -1.9197
  101OSM   H13G10223   2.931   4.663   9.088 -0.8076  3.4031 -1.9664
  101OSM   C14F10224   2.986   4.755   8.904  0.2999  0.8752 -0.3470
  101OSM   H14F10225   3.064   4.817   8.951  2.9997  0.9074 -4.3777
  101OSM   H14G10226   2.890   4.812   8.900 -0.0106  0.4739  0.8814
  101OSM   C15F10227   3.019   4.733   8.759 -0.9661  1.0592 -0.0084
  101OSM   H15F10228   2.927   4.686   8.718  0.3725 -0.3533 -1.5353
  101OSM   H15G10229   3.098   4.657   8.744 -0.7585  1.1849  0.4121
  101OSM   C16F10230   3.056   4.860   8.685 -0.5661  0.0246  0.0537
  101OSM   H16F10231   3.138   4.913   8.737 -0.2057 -1.8641  1.5575
  101OSM   H16G10232   2.971   4.931   8.695 -0.0573  0.5714  0.6002
  101OSM   C17F10233   3.101   4.831   8.540 -0.0871  0.0935  0.2212
  101OSM   H17F10234   3.023   4.766   8.496 -1.5601  2.4953 -0.9126
  101OSM   H17G10235   3.198   4.778   8.555  0.4662  1.2641  1.0143
  101OSM   C18F10236   3.121   4.958   8.463  0.6388 -0.2135  1.1384
  101OSM   H18F10237   3.023   5.001   8.434  0.3832 -2.0013 -0.9144
  101OSM   H18G10238   3.176   4.952   8.366 -0.1417 -0.8982  0.7241
  101OSM   H18H10239   3.175   5.036   8.520  2.1388 -0.4830  0.1650
  102OSM      N10240   5.037   4.851  10.642  0.3221 -0.4279  0.1532
  102OSM    C1510241   5.131   4.760  10.714 -0.0294 -0.1878  0.3819
  102OSM   H15A10242   5.159   4.682  10.644 -0.7544 -0.4713  0.4002
  102OSM   H15B10243   5.084   4.711  10.798 -1.0693 -0.7884 -0.5102
  102OSM   H15C10244   5.228   4.801  10.738  0.7490 -0.6524 -1.6831
  102OSM    C1410245   4.962   4.938  10.744  0.5399  0.0690 -0.3523
  102OSM   H14A10246   5.034   4.994  10.802  1.1595 -0.6144 -0.4489
  102OSM   H14B10247   4.897   4.873  10.801  0.3710  0.3205 -0.2539
  102OSM   H14C10248   4.900   5.007  10.688 -0.6614  0.6139  1.5640
  102OSM    C1310249   5.108   4.946  10.547 -0.2724 -0.3514 -0.0193
  102OSM   H13A10250   5.184   5.010  10.590 -1.0889 -0.0499  1.0048
  102OSM   H13B10251   5.035   5.004  10.492 -0.5506  0.1130  0.8274
  102OSM   H13C10252   5.164   4.886  10.476 -2.4380 -1.2257 -1.0789
  102OSM    C1210253   4.934   4.766  10.572 -0.1331 -0.1086 -0.2346
  102OSM   H12A10254   4.847   4.816  10.532 -0.6371 -2.4861 -2.4063
  102OSM   H12B10255   4.899   4.701  10.650  0.2744  0.5383  0.4935
  102OSM    C1110256   4.975   4.677  10.452  0.9282  0.2811  0.1771
  102OSM   H11A10257   5.024   4.752  10.386  1.2183  0.5857  0.7366
  102OSM   H11B10258   4.886   4.639  10.396  0.9104 -0.1394  0.4844
  102OSM      P10259   5.179   4.540  10.382  0.1081 -0.1378 -0.0195
  102OSM    O1310260   5.298   4.566  10.460  0.1315  0.1259 -0.4683
  102OSM    O1410261   5.164   4.409  10.311  0.2838  0.4195 -0.5798
  102OSM    O1110262   5.176   4.651  10.267  0.3768  0.2744 -0.6442
  102OSM    O1210263   5.061   4.569  10.482 -0.1944 -0.1305 -0.1759
  102OSM    C1S10264   5.275   4.636  10.159  0.3659 -0.1846  0.6741
  102OSM    H1S10265   5.303   4.532  10.132 -2.0018 -0.6499 -0.2172
  102OSM    H1T10266   5.372   4.687  10.179 -0.3548  0.9557  1.4399
  102OSM     NF10267   5.302   4.665   9.913  0.7311 -0.5486 -0.9762
  102OSM    HNF10268   5.360   4.735   9.873  1.3427 -0.8495 -0.6401
  102OSM    C2S10269   5.222   4.704  10.030  0.3051 -0.0180  0.6356
  102OSM    H2S10270   5.120   4.663  10.010 -0.7417  2.9967 -0.8990
  102OSM    C3S10271   5.207   4.860  10.055  0.1693 -0.0688 -0.3811
  102OSM    H3S10272   5.302   4.916  10.065 -0.4772  2.0058 -3.9721
  102OSM     O310273   5.128   4.886  10.173 -0.4653 -0.1166 -0.2218
  102OSM    HO310274   5.145   4.802  10.217  0.2486  0.5147  0.7403
  102OSM    C4S10275   5.140   4.925   9.935  0.2053 -0.9393  0.2826
  102OSM    H4S10276   5.047   4.882   9.895 -0.2420  0.2504 -0.0080
  102OSM    C5S10277   5.191   5.036   9.872 -0.2811  1.0437  0.1923
  102OSM    H5S10278   5.294   5.071   9.885  1.4312 -2.5281 -2.1175
  102OSM    C6S10279   5.121   5.109   9.757  0.1739  0.3585 -0.0276
  102OSM    H6S10280   5.184   5.107   9.665 -0.5987  0.0241 -0.5650
  102OSM    H6T10281   5.102   5.214   9.787  1.3280 -0.0423  2.2906
  102OSM    C7S10282   4.993   5.052   9.698 -0.3950  0.4765  0.3863
  102OSM    H7S10283   4.909   5.049   9.771 -1.1449  1.1778 -0.4187
  102OSM    H7T10284   5.009   4.946   9.669 -0.4958  0.4464  0.4417
  102OSM    C8S10285   4.936   5.116   9.575 -0.1332  0.2304  0.5389
  102OSM    H8S10286   4.947   5.226   9.579  1.8456  0.1238 -0.7173
  102OSM    H8T10287   4.826   5.107   9.557  0.0167 -0.2072 -0.2071
  102OSM    C9S10288   5.001   5.066   9.448 -0.3725  0.1559  0.0212
  102OSM    H9S10289   5.000   4.957   9.429  1.1143  0.0881  0.2061
  102OSM    H9T10290   5.110   5.078   9.465 -0.2353 -1.5170  0.5200
  102OSM   C10S10291   4.944   5.140   9.323 -0.0163  0.0983 -0.1841
  102OSM   H10S10292   4.974   5.247   9.320  1.2030 -0.2570 -1.8888
  102OSM   H10T10293   4.833   5.144   9.325 -0.0102  0.1626  0.0215
  102OSM   C11S10294   4.998   5.075   9.190 -0.0919  0.5563 -0.5492
  102OSM   H11S10295   4.954   4.974   9.207 -2.0566  1.8740  3.2255
  102OSM   H11T10296   5.109   5.073   9.193 -0.0064  2.1022 -1.4686
  102OSM   C12S10297   4.954   5.157   9.068 -0.1868  0.1998  0.1400
  102OSM   H12S10298   5.031   5.134   8.991 -2.2203  0.9246 -2.2805
  102OSM   H12T10299   4.974   5.264   9.092  0.4924 -0.0439  0.6777
  102OSM   C13S10300   4.815   5.136   9.012  0.4816  0.1096 -0.6934
  102OSM   H13S10301   4.738   5.201   9.059  0.1297 -0.2115 -0.8146
  102OSM   H13T10302   4.778   5.031   9.018 -1.1705  0.3202 -4.2091
  102OSM   C14S10303   4.800   5.168   8.869 -0.2241 -0.2748  0.2373
  102OSM   H14S10304   4.695   5.152   8.834  0.2480 -0.8789 -0.9848
  102OSM   H14T10305   4.861   5.094   8.812 -1.9973 -1.7342  0.1295
  102OSM   C15S10306   4.854   5.308   8.830 -0.4781 -0.2291  0.3591
  102OSM   H15S10307   4.964   5.308   8.842 -0.4929  1.5817  0.7597
  102OSM   H15T10308   4.832   5.392   8.900  1.8323  1.8777 -1.2824
  102OSM   C16S10309   4.823   5.345   8.688  0.5991  0.3445  0.8342
  102OSM   H16S10310   4.715   5.363   8.672  0.1323 -0.9779  2.2240
  102OSM   H16T10311   4.855   5.267   8.616  2.7297  0.0836  1.9655
  102OSM   C17S10312   4.893   5.468   8.641  0.1251  0.0811  0.0799
  102OSM   H17S10313   4.855   5.548   8.709 -0.1224  0.2834 -0.2900
  102OSM   H17T10314   4.869   5.498   8.537  1.0467 -0.3098 -0.2548
  102OSM   C18S10315   5.046   5.456   8.649 -0.0811  0.1627 -0.1791
  102OSM   H18S10316   5.084   5.364   8.599 -1.6067 -1.3443  1.2846
  102OSM   H18T10317   5.078   5.456   8.756  2.1648 -0.3162 -0.7919
  102OSM   H18U10318   5.087   5.549   8.605 -0.1823  0.1120 -0.3827
  102OSM    C1F10319   5.303   4.540   9.867 -0.5718 -0.5096 -0.0514
  102OSM     OF10320   5.231   4.457   9.915 -0.2798 -0.6376  0.2572
  102OSM    C2F10321   5.386   4.518   9.754 -0.7138 -0.6546  0.2712
  102OSM    H2F10322   5.444   4.611   9.740  0.6024 -1.1437  2.0620
  102OSM    H2G10323   5.322   4.493   9.667 -0.8206 -0.1372  0.2014
  102OSM    C3F10324   5.495   4.405   9.763 -0.1980  0.1961 -0.1999
  102OSM    H3F10325   5.446   4.309   9.791 -0.7113  1.0724  2.1428
  102OSM    H3G10326   5.566   4.421   9.848  0.3691 -0.1282 -0.6035
  102OSM    C4F10327   5.584   4.396   9.641 -0.2186 -0.5310  0.4819
  102OSM    H4F10328   5.648   4.308   9.664 -0.2952 -0.8841 -0.6076
  102OSM    H4G10329   5.651   4.482   9.621  0.4479 -1.5479 -2.1679
  102OSM    C5F10330   5.526   4.355   9.512 -0.5595  0.0645  0.5462
  102OSM    H5F10331   5.447   4.420   9.471 -0.9822 -2.1192 -2.4104
  102OSM    H5G10332   5.474   4.258   9.525  0.3845 -1.4148 -4.4994
  102OSM    C6F10333   5.628   4.328   9.406 -0.0750  0.1206 -0.2132
  102OSM    H6F10334   5.680   4.231   9.418  0.2132  0.3187  0.1565
  102OSM    H6G10335   5.700   4.412   9.392 -0.3217  0.1613 -1.3484
  102OSM    C7F10336   5.567   4.300   9.262  0.2419  0.2971 -0.2693
  102OSM    H7F10337   5.504   4.389   9.243 -0.8410  0.3109  2.8305
  102OSM    H7G10338   5.493   4.217   9.271  2.2818 -1.5760  0.2365
  102OSM    C8F10339   5.673   4.285   9.162  0.2738 -0.9528 -0.4798
  102OSM    H8F10340   5.719   4.190   9.197  0.2758  0.1211  2.6985
  102OSM    H8G10341   5.754   4.359   9.179 -0.4196 -0.4001  0.4828
  102OSM    C9F10342   5.610   4.286   9.026 -0.2102 -0.5142 -0.0329
  102OSM    H9F10343   5.534   4.209   9.005  0.9040 -1.7592  0.3257
  102OSM   C10F10344   5.650   4.367   8.928 -0.3671  0.1562  0.2663
  102OSM   H10F10345   5.605   4.372   8.828  0.0547  1.2782  0.1169
  102OSM   C11F10346   5.760   4.471   8.936  0.6069  0.1709 -0.5455
  102OSM   H11F10347   5.861   4.426   8.946  0.6113  0.0391 -1.1274
  102OSM   H11G10348   5.736   4.531   9.026  1.0176  0.5691 -0.6981
  102OSM   C12F10349   5.746   4.577   8.819 -0.7179  0.1244  0.0608
  102OSM   H12F10350   5.807   4.667   8.846 -1.0102  0.9219 -1.7763
  102OSM   H12G10351   5.643   4.612   8.798 -0.8388  0.9562  1.8219
  102OSM   C13F10352   5.813   4.537   8.681 -0.5693 -0.3550  0.2881
  102OSM   H13F10353   5.761   4.449   8.636 -0.5644  1.2374 -3.1193
  102OSM   H13G10354   5.915   4.496   8.698 -0.3825  0.5871  1.6165
  102OSM   C14F10355   5.803   4.662   8.585 -0.2093  0.2270  0.3058
  102OSM   H14F10356   5.855   4.745   8.636  0.7166  0.3738 -0.8324
  102OSM   H14G10357   5.695   4.685   8.591 -0.1824  0.9709 -1.4812
  102OSM   C15F10358   5.851   4.628   8.446 -0.4736 -0.0566  0.9975
  102OSM   H15F10359   5.769   4.580   8.388 -0.8662 -1.1687  2.4026
  102OSM   H15G10360   5.937   4.558   8.450 -2.2643 -2.4040  0.7294
  102OSM   C16F10361   5.902   4.754   8.375 -0.0397  0.4368 -0.2445
  102OSM   H16F10362   5.996   4.788   8.424  0.2007  2.2523 -1.8491
  102OSM   H16G10363   5.841   4.846   8.373 -0.6876  0.1600  2.6486
  102OSM   C17F10364   5.928   4.728   8.227  0.2373  0.3596  0.4945
  102OSM   H17F10365   5.827   4.743   8.183  0.2528  1.7936  0.8737
  102OSM   H17G10366   5.964   4.624   8.221 -1.8386 -0.7120  3.7065
  102OSM   C18F10367   6.031   4.828   8.185 -0.6050  0.5662 -0.0356
  102OSM   H18F10368   5.988   4.930   8.194  1.1247  1.4312 -0.9784
  102OSM   H18G10369   6.056   4.797   8.081 -1.5112 -0.5892  0.0755
  102OSM   H18H10370   6.121   4.836   8.250 -0.0556 -1.4552 -0.4938
  103OSM      N10371   2.810   1.515  10.854 -0.2328 -0.7303  0.4500
  103OSM    C1510372   2.877   1.621  10.932  0.8090  0.2734 -0.0315
  103OSM   H15A10373   2.902   1.575  11.027 -0.5171  0.7913  0.6075
  103OSM   H15B10374   2.812   1.703  10.958 -0.5741 -0.0674 -2.1313
  103OSM   H15C10375   2.966   1.657  10.884  1.6289 -1.1151  0.3935
  103OSM    C1410376   2.894   1.394  10.860 -0.2508  0.3385  0.4276
  103OSM   H14A10377   2.840   1.314  10.812  1.4976 -1.4743  1.3494
  103OSM   H14B10378   2.902   1.353  10.959  0.2533 -1.4561 -0.3047
  103OSM   H14C10379   2.990   1.400  10.811 -2.2458  1.3696 -3.8029
  103OSM    C1310380   2.677   1.481  10.918 -0.7046  0.2978  0.2626
  103OSM   H13A10381   2.606   1.563  10.915  0.5145  1.3777  0.0429
  103OSM   H13B10382   2.690   1.452  11.021  1.2412 -1.0732 -0.3197
  103OSM   H13C10383   2.644   1.384  10.884  0.0283 -0.6456  2.1055
  103OSM    C1210384   2.793   1.559  10.707  0.0612 -0.7952  0.4015
  103OSM   H12A10385   2.750   1.482  10.645  1.6875 -0.6198 -1.0067
  103OSM   H12B10386   2.895   1.566  10.673  0.6945 -2.8261  1.7166
  103OSM    C1110387   2.727   1.702  10.675 -0.2356  0.3938  0.2730
  103OSM   H11A10388   2.622   1.692  10.708 -0.0942  0.7502  0.8429
  103OSM   H11B10389   2.731   1.712  10.564 -0.5213 -1.5215  0.0581
  103OSM      P10390   2.726   1.954  10.731  0.4393  0.1606 -0.3926
  103OSM    O1310391   2.583   1.941  10.784  0.1934 -0.8276 -0.5480
  103OSM    O1410392   2.811   2.052  10.792 -0.3304 -0.4422 -0.1265
  103OSM    O1110393   2.713   1.972  10.575  0.5844  1.6180 -0.1708
  103OSM    O1210394   2.797   1.810  10.734 -0.2451  0.2482  0.1833
  103OSM    C1S10395   2.831   1.996  10.491  0.4969  0.5743  0.3281
  103OSM    H1S10396   2.900   1.911  10.506 -1.2088 -0.7324  1.1140
  103OSM    H1T10397   2.891   2.083  10.524  4.0566 -1.1699 -1.0863
  103OSM     NF10398   2.907   2.003  10.251 -0.2358 -0.1964 -0.8613
  103OSM    HNF10399   2.943   2.081  10.201  0.4276 -0.5774 -0.9887
  103OSM    C2S10400   2.792   2.012  10.343  0.3010 -0.5726 -0.0781
  103OSM    H2S10401   2.720   1.929  10.325 -1.1139  0.0402  2.2509
  103OSM    C3S10402   2.701   2.138  10.321  0.1685  0.4763  0.1413
  103OSM    H3S10403   2.765   2.227  10.340  0.1095  0.6479 -0.4430
  103OSM     O310404   2.588   2.158  10.409  0.7469  0.7492 -0.4140
  103OSM    HO310405   2.614   2.098  10.479 -1.9878 -2.2482 -1.6690
  103OSM    C4S10406   2.651   2.144  10.176 -0.7497 -0.3336 -0.1472
  103OSM    H4S10407   2.726   2.182  10.104  1.2278  0.8586  2.3846
  103OSM    C5S10408   2.526   2.120  10.128 -0.1933  0.4484  0.1182
  103OSM    H5S10409   2.440   2.098  10.194 -1.1463  2.6330 -0.3320
  103OSM    C6S10410   2.485   2.152   9.987  0.0464  0.1993 -0.1696
  103OSM    H6S10411   2.447   2.257   9.992 -0.3806  0.2734 -3.0863
  103OSM    H6T10412   2.396   2.087   9.972 -1.4595  1.7338  1.5798
  103OSM    C7S10413   2.583   2.142   9.868  0.0528  0.1839 -0.7268
  103OSM    H7S10414   2.658   2.061   9.854 -0.1872  0.1276 -1.8314
  103OSM    H7T10415   2.627   2.244   9.870  0.0950  0.2423  3.2005
  103OSM    C8S10416   2.502   2.139   9.737  0.3298  0.8814 -0.0962
  103OSM    H8S10417   2.446   2.233   9.721 -0.2493  0.3798 -1.1266
  103OSM    H8T10418   2.425   2.059   9.747  0.1421  1.2761  2.0394
  103OSM    C9S10419   2.589   2.108   9.609  0.5790 -0.1208 -0.5903
  103OSM    H9S10420   2.629   2.004   9.612 -0.6199 -0.5895 -0.0871
  103OSM    H9T10421   2.677   2.175   9.600 -0.9135  1.8239 -1.1199
  103OSM   C10S10422   2.497   2.108   9.488 -0.6359  0.2553  0.2288
  103OSM   H10S10423   2.460   2.212   9.479  1.8372  1.2901  1.0960
  103OSM   H10T10424   2.410   2.039   9.485 -1.4744  1.3417 -1.6389
  103OSM   C11S10425   2.573   2.079   9.360 -0.7749 -0.1820  0.5888
  103OSM   H11S10426   2.587   1.970   9.339 -2.3782 -0.2199 -0.4328
  103OSM   H11T10427   2.670   2.132   9.369 -1.5939  2.0442 -2.3228
  103OSM   C12S10428   2.509   2.125   9.231  0.2469  0.5121  0.2412
  103OSM   H12S10429   2.491   2.233   9.253 -1.3850  0.2469  0.3226
  103OSM   H12T10430   2.409   2.084   9.206  0.5709  1.1485 -2.3721
  103OSM   C13S10431   2.596   2.102   9.111 -0.6045 -0.3066 -0.0999
  103OSM   H13S10432   2.611   1.996   9.081  0.8748 -0.4695  1.0794
  103OSM   H13T10433   2.692   2.153   9.134 -1.3874  1.2969 -0.2383
  103OSM   C14S10434   2.535   2.179   8.993 -0.0967 -0.1428 -0.2833
  103OSM   H14S10435   2.513   2.285   9.018  1.8726  0.7041 -1.8667
  103OSM   H14T10436   2.437   2.135   8.966  0.1159  0.5233 -2.3071
  103OSM   C15S10437   2.639   2.166   8.881  0.5229  0.2503 -0.0918
  103OSM   H15S10438   2.640   2.058   8.855  1.3279  0.2803 -0.2228
  103OSM   H15T10439   2.742   2.186   8.916  0.7999 -0.1190 -0.6839
  103OSM   C16S10440   2.586   2.238   8.756  0.7671  0.0404  0.5422
  103OSM   H16S10441   2.609   2.344   8.777  0.6255 -0.0730  1.3162
  103OSM   H16T10442   2.476   2.222   8.754  0.4974  1.7757  0.5821
  103OSM   C17S10443   2.649   2.184   8.623  0.0070 -0.0591  0.3179
  103OSM   H17S10444   2.611   2.233   8.531  0.0848  0.6990  0.6812
  103OSM   H17T10445   2.624   2.076   8.613 -1.7102  0.4313 -1.1862
  103OSM   C18S10446   2.797   2.198   8.630 -1.1322 -0.2805 -0.0949
  103OSM   H18S10447   2.863   2.155   8.552  2.3322  2.1907  1.2482
  103OSM   H18T10448   2.847   2.174   8.726 -0.6605 -3.1501 -0.9592
  103OSM   H18U10449   2.808   2.307   8.611 -0.8051 -0.2312  0.3593
  103OSM    C1F10450   2.984   1.898  10.250  0.0206 -0.1812  0.0374
  103OSM     OF10451   2.956   1.793  10.305  0.8287 -0.3172 -0.3015
  103OSM    C2F10452   3.109   1.902  10.178 -0.7071  0.1135  0.2477
  103OSM    H2F10453   3.187   1.834  10.219  0.3539 -0.7506 -2.9022
  103OSM    H2G10454   3.158   2.000  10.197 -0.2883 -0.1153  0.3592
  103OSM    C3F10455   3.100   1.844  10.035 -0.3263 -0.6520  0.4609
  103OSM    H3F10456   3.039   1.751  10.033 -1.5602  0.1196 -2.0631
  103OSM    H3G10457   3.209   1.845  10.014 -0.5610  3.5292 -1.5361
  103OSM    C4F10458   3.038   1.942   9.937  0.6415  0.0788  0.1038
  103OSM    H4F10459   3.070   2.049   9.939 -2.0758  1.0035 -1.2030
  103OSM    H4G10460   2.932   1.951   9.967  0.7972  4.0756 -0.0105
  103OSM    C5F10461   3.061   1.890   9.796 -0.3355  0.1989  0.3440
  103OSM    H5F10462   3.041   1.781   9.787  0.3132 -0.0066  1.2491
  103OSM    H5G10463   3.166   1.915   9.770  0.6589 -1.2803  2.5761
  103OSM    C6F10464   2.967   1.969   9.696 -0.0124  0.4367 -0.2467
  103OSM    H6F10465   2.993   2.076   9.682 -0.5138  0.4284 -1.3555
  103OSM    H6G10466   2.865   1.965   9.739  0.7658  0.1124  1.6754
  103OSM    C7F10467   2.996   1.909   9.557  0.4971 -0.4244 -0.1211
  103OSM    H7F10468   2.975   1.800   9.559 -2.3692  0.0587  0.1915
  103OSM    H7G10469   3.098   1.936   9.523 -0.4045  3.5392 -0.1673
  103OSM    C8F10470   2.900   1.964   9.445 -0.5017 -0.4714 -0.0066
  103OSM    H8F10471   2.894   2.074   9.460  2.2788 -0.3611  0.9222
  103OSM    H8G10472   2.795   1.930   9.459 -0.5063 -0.5805 -0.2926
  103OSM    C9F10473   2.935   1.944   9.298  0.3014  0.8283  0.4962
  103OSM    H9F10474   3.004   2.023   9.265  0.6336 -0.3779 -1.9400
  103OSM   C10F10475   2.897   1.846   9.207  0.0464  0.1267 -0.8790
  103OSM   H10F10476   2.923   1.867   9.102  0.7050  1.9169 -0.3954
  103OSM   C11F10477   2.807   1.728   9.231  0.3512 -0.0581 -0.1861
  103OSM   H11F10478   2.736   1.705   9.149  2.2152 -0.5659 -1.7162
  103OSM   H11G10479   2.742   1.750   9.319 -0.2797 -2.6704  0.0943
  103OSM   C12F10480   2.856   1.598   9.301 -0.3206  0.0267 -0.2397
  103OSM   H12F10481   2.768   1.545   9.344  1.5847 -1.2995  2.2460
  103OSM   H12G10482   2.917   1.625   9.389  0.3765 -0.9629 -0.4040
  103OSM   C13F10483   2.929   1.500   9.206  0.3558  0.1798 -0.1742
  103OSM   H13F10484   3.027   1.546   9.180  0.6328 -0.1017  0.3548
  103OSM   H13G10485   2.869   1.486   9.113  0.0316  1.8933 -0.2493
  103OSM   C14F10486   2.960   1.368   9.270 -0.1648 -0.0084 -0.4237
  103OSM   H14F10487   2.868   1.310   9.292  1.5570 -2.9567 -0.5338
  103OSM   H14G10488   2.997   1.373   9.374 -2.7283  1.7267  0.5166
  103OSM   C15F10489   3.062   1.280   9.200 -0.4483  0.5437 -0.0798
  103OSM   H15F10490   3.093   1.182   9.243  1.0740  1.8143  1.8822
  103OSM   H15G10491   3.161   1.330   9.204 -0.4109  0.3743  1.9714
  103OSM   C16F10492   3.040   1.262   9.054 -0.2066  0.0168  0.1895
  103OSM   H16F10493   3.052   1.358   8.998  0.1411 -0.4566 -0.5706
  103OSM   H16G10494   2.937   1.229   9.027  0.1826  0.4276 -2.0459
  103OSM   C17F10495   3.136   1.165   8.997  0.4357 -0.0845  0.1114
  103OSM   H17F10496   3.119   1.061   9.034  0.4519  0.4110  1.5852
  103OSM   H17G10497   3.233   1.200   9.037 -0.0107 -0.2622  1.4042
  103OSM   C18F10498   3.146   1.161   8.849  0.0030 -0.0798  0.0212
  103OSM   H18F10499   3.216   1.089   8.803 -1.8178 -1.9674  0.0915
  103OSM   H18G10500   3.176   1.260   8.807 -0.3601  0.6077  1.3137
  103OSM   H18H10501   3.048   1.126   8.810  1.0305 -1.8399 -1.0473
  104OSM      N10502   6.506   6.620  11.030 -0.7784  1.3911  0.0047
  104OSM    C1510503   6.431   6.560  11.134 -0.5092 -0.4032 -0.4415
  104OSM   H15A10504   6.433   6.452  11.137 -1.6177 -0.5547  4.9636
  104OSM   H15B10505   6.326   6.583  11.121 -0.9087 -1.6525  0.3879
  104OSM   H15C10506   6.473   6.599  11.226 -0.0757  1.6525 -1.4457
  104OSM    C1410507   6.507   6.768  11.056 -0.2168  0.5989  0.2880
  104OSM   H14A10508   6.565   6.796  11.143  0.5909  0.5990 -0.2411
  104OSM   H14B10509   6.404   6.797  11.072 -0.5585  1.1007 -2.3959
  104OSM   H14C10510   6.548   6.820  10.971  0.6887 -1.3102 -0.5114
  104OSM    C1310511   6.643   6.562  11.061 -0.3453  0.5429  0.2896
  104OSM   H13A10512   6.685   6.584  11.159  0.0071 -1.8378  0.7295
  104OSM   H13B10513   6.714   6.581  10.983  1.5551 -1.0684  1.5394
  104OSM   H13C10514   6.633   6.455  11.055 -2.4529  0.7186 -0.1977
  104OSM    C1210515   6.451   6.574  10.892 -0.1837 -0.6388  0.0598
  104OSM   H12A10516   6.347   6.604  10.888  0.0493  0.0962 -1.7293
  104OSM   H12B10517   6.454   6.466  10.888  2.7400 -0.6838  1.2071
  104OSM    C1110518   6.510   6.631  10.765  0.0627  0.1504 -0.4801
  104OSM   H11A10519   6.485   6.563  10.681 -0.2972 -1.3267  0.7812
  104OSM   H11B10520   6.621   6.622  10.772 -0.0472 -2.4826 -1.0320
  104OSM      P10521   6.346   6.811  10.669 -0.4406 -0.1516  0.0146
  104OSM    O1310522   6.250   6.695  10.680 -0.1527 -0.2699 -0.0960
  104OSM    O1410523   6.304   6.947  10.715  0.5990  0.1461  0.2196
  104OSM    O1110524   6.390   6.821  10.514  0.2829 -0.2868  0.3447
  104OSM    O1210525   6.476   6.772  10.746 -0.3004  0.1883 -0.4307
  104OSM    C1S10526   6.382   6.708  10.423 -0.3105 -0.0194  0.2102
  104OSM    H1S10527   6.278   6.695  10.385  0.1046 -1.5206 -0.4812
  104OSM    H1T10528   6.396   6.611  10.474  0.8397  0.5744  1.0620
  104OSM     NF10529   6.427   6.657  10.189  0.0909  0.2791  0.3956
  104OSM    HNF10530   6.481   6.575  10.171  0.9611  0.6564  1.1846
  104OSM    C2S10531   6.482   6.720  10.303  0.2571  0.6593 -0.4375
  104OSM    H2S10532   6.504   6.828  10.284  2.4683  0.1745 -0.8903
  104OSM    C3S10533   6.622   6.665  10.346 -0.0655 -0.4025  0.7182
  104OSM    H3S10534   6.613   6.556  10.365  1.4351 -0.4392  1.3228
  104OSM     O310535   6.669   6.722  10.468  0.2578 -0.0507 -0.2114
  104OSM    HO310536   6.596   6.777  10.499  0.8145  1.2024 -1.0554
  104OSM    C4S10537   6.718   6.695  10.235  0.4379 -0.2962  0.0564
  104OSM    H4S10538   6.722   6.612  10.163 -0.8092  0.1767 -0.6095
  104OSM    C5S10539   6.800   6.801  10.213  0.2384  0.7133 -0.0311
  104OSM    H5S10540   6.804   6.891  10.276  0.1167  0.1958  0.7289
  104OSM    C6S10541   6.873   6.812  10.080 -0.8424 -0.8763 -0.2042
  104OSM    H6S10542   6.817   6.754  10.004 -1.8893  0.0902 -0.1882
  104OSM    H6T10543   6.970   6.758  10.094 -0.1254  0.7824  1.7338
  104OSM    C7S10544   6.924   6.956  10.038 -0.0749  0.6238 -0.2008
  104OSM    H7S10545   7.004   6.980  10.111 -2.4132  0.4383  2.5847
  104OSM    H7T10546   6.840   7.027  10.049 -0.5993  0.0184 -0.2109
  104OSM    C8S10547   6.989   6.967   9.903 -0.3256 -0.3406  0.4165
  104OSM    H8S10548   7.056   6.880   9.884 -2.2771 -1.5871 -1.2851
  104OSM    H8T10549   7.049   7.060   9.910 -0.0701 -0.5643  1.3745
  104OSM    C9S10550   6.889   6.968   9.790  0.0931  0.2901 -0.7553
  104OSM    H9S10551   6.818   7.049   9.820  0.2930  0.7195 -1.4288
  104OSM    H9T10552   6.845   6.866   9.802  3.4241 -0.9850  2.3371
  104OSM   C10S10553   6.958   6.994   9.659 -0.5472  0.2530 -0.0043
  104OSM   H10S10554   7.040   6.920   9.648  1.5500  2.6448 -1.7664
  104OSM   H10T10555   7.017   7.086   9.636  1.3627 -1.2521 -1.4736
  104OSM   C11S10556   6.855   6.985   9.541 -0.0182 -0.1715  0.4453
  104OSM   H11S10557   6.787   7.068   9.570 -0.9580 -0.4096 -0.9547
  104OSM   H11T10558   6.798   6.891   9.554 -2.0831  0.4610 -2.7527
  104OSM   C12S10559   6.913   6.998   9.401  0.2727 -0.6315  0.3040
  104OSM   H12S10560   6.998   6.929   9.383  1.8833  1.1115  0.9408
  104OSM   H12T10561   6.958   7.097   9.377  1.7283 -1.5271 -0.8862
  104OSM   C13S10562   6.807   6.977   9.297  0.2868 -0.3139  0.2248
  104OSM   H13S10563   6.730   7.054   9.318 -0.8288 -0.4620 -2.8714
  104OSM   H13T10564   6.756   6.882   9.324 -1.1692  0.6140  0.8272
  104OSM   C14S10565   6.861   6.976   9.149 -0.2980 -0.1195 -0.4733
  104OSM   H14S10566   6.954   6.916   9.139 -0.3593 -0.0326 -1.6668
  104OSM   H14T10567   6.913   7.073   9.136 -0.1344  0.0510  1.2338
  104OSM   C15S10568   6.758   6.930   9.045  0.1737  0.4548 -0.3643
  104OSM   H15S10569   6.678   7.007   9.040 -0.5133 -0.3407 -2.1707
  104OSM   H15T10570   6.701   6.838   9.071 -2.2865  0.9517 -3.4166
  104OSM   C16S10571   6.812   6.913   8.898  0.1203  0.2406 -0.5144
  104OSM   H16S10572   6.872   6.820   8.904 -0.9754 -0.6039 -1.9667
  104OSM   H16T10573   6.883   6.994   8.871  0.4216 -0.0591 -0.6226
  104OSM   C17S10574   6.695   6.909   8.797 -0.5918  0.4789  0.4824
  104OSM   H17S10575   6.626   6.996   8.789  1.4559  2.0391 -2.0460
  104OSM   H17T10576   6.644   6.814   8.823 -1.5276  0.8903  0.1867
  104OSM   C18S10577   6.743   6.890   8.656  0.1193  0.3276  0.3758
  104OSM   H18S10578   6.653   6.879   8.592  1.2829  1.7395 -1.6279
  104OSM   H18T10579   6.795   6.792   8.645 -2.4909 -1.1327  0.2975
  104OSM   H18U10580   6.814   6.967   8.617  1.2792 -0.2101  1.3503
  104OSM    C1F10581   6.326   6.705  10.126 -0.0559 -0.1920  0.0251
  104OSM     OF10582   6.275   6.808  10.170 -0.3487  0.0881 -0.4627
  104OSM    C2F10583   6.275   6.640  10.004 -0.4988 -0.1118 -0.3893
  104OSM    H2F10584   6.292   6.530  10.000 -0.7797 -0.1753  0.0605
  104OSM    H2G10585   6.324   6.685   9.915  0.6065 -1.4315 -0.4741
  104OSM    C3F10586   6.123   6.658   9.999  0.7378 -0.2250 -0.1888
  104OSM    H3F10587   6.101   6.767  10.009  1.0260 -0.0588 -1.3247
  104OSM    H3G10588   6.093   6.604  10.092  1.8144 -2.6214 -1.1748
  104OSM    C4F10589   6.056   6.603   9.869  0.4113  0.4940  0.4936
  104OSM    H4F10590   5.948   6.616   9.893 -0.1282  0.9061 -1.9401
  104OSM    H4G10591   6.085   6.496   9.856  0.6057  0.6365 -0.2699
  104OSM    C5F10592   6.089   6.697   9.753  0.1060 -0.4859 -0.1523
  104OSM    H5F10593   6.199   6.707   9.741  0.0522  1.4113  0.6014
  104OSM    H5G10594   6.051   6.799   9.775 -2.7219 -1.3752 -0.4974
  104OSM    C6F10595   6.015   6.658   9.619 -0.6565  0.2428  0.1784
  104OSM    H6F10596   6.038   6.728   9.536 -0.5619 -0.2336 -0.2065
  104OSM    H6G10597   5.905   6.667   9.626 -0.8944  0.7507 -2.7472
  104OSM    C7F10598   6.060   6.517   9.567 -0.0833 -0.5730 -0.4321
  104OSM    H7F10599   6.002   6.451   9.636  0.0735  0.5468  0.7997
  104OSM    H7G10600   6.170   6.508   9.579 -0.2844 -1.1490  1.2932
  104OSM    C8F10601   6.018   6.469   9.423 -0.4106 -0.8132  0.4533
  104OSM    H8F10602   5.909   6.489   9.415 -0.0247  1.0284 -1.1775
  104OSM    H8G10603   6.033   6.363   9.397  0.0971 -0.1700 -2.1840
  104OSM    C9F10604   6.093   6.555   9.320 -0.2649  0.1895  0.1349
  104OSM    H9F10605   6.168   6.628   9.353 -1.0118  1.2404 -0.4538
  104OSM   C10F10606   6.083   6.543   9.186 -0.1629  0.8943  0.5859
  104OSM   H10F10607   6.137   6.610   9.118 -0.4380 -1.3277 -2.0015
  104OSM   C11F10608   6.005   6.442   9.104  0.1493  0.1320  0.9084
  104OSM   H11F10609   5.920   6.487   9.048 -1.0925 -1.6560  1.2742
  104OSM   H11G10610   5.955   6.357   9.155  1.0110 -0.1259  1.3380
  104OSM   C12F10611   6.104   6.371   9.007 -0.1825  0.2410 -0.1579
  104OSM   H12F10612   6.171   6.301   9.062 -1.4949 -0.7942  0.1704
  104OSM   H12G10613   6.162   6.447   8.952  1.3124 -1.0864 -0.4862
  104OSM   C13F10614   6.028   6.293   8.903  0.4188 -0.4076 -0.0187
  104OSM   H13F10615   5.942   6.360   8.880  0.8071 -0.6470 -2.4887
  104OSM   H13G10616   5.982   6.210   8.959  0.1940  0.4528  1.1058
  104OSM   C14F10617   6.112   6.255   8.790  0.0044  0.2305 -0.4798
  104OSM   H14F10618   6.201   6.194   8.815 -0.1630  0.3803  0.5140
  104OSM   H14G10619   6.143   6.352   8.745 -0.6583 -0.7111 -3.1816
  104OSM   C15F10620   6.025   6.178   8.686 -0.2739  1.2629 -0.0566
  104OSM   H15F10621   5.935   6.239   8.663  0.3727  2.0353 -0.6025
  104OSM   H15G10622   5.989   6.081   8.728 -1.6015  1.8181  0.1523
  104OSM   C16F10623   6.094   6.164   8.552 -0.5084 -0.2223  0.3506
  104OSM   H16F10624   6.179   6.094   8.563 -2.4766 -2.7561  0.3950
  104OSM   H16G10625   6.136   6.266   8.536  0.7151 -0.3391  2.3774
  104OSM   C17F10626   5.992   6.105   8.456  0.1076  0.8787 -0.1624
  104OSM   H17F10627   5.914   6.181   8.433 -0.2480  0.0053 -2.0645
  104OSM   H17G10628   5.939   6.015   8.495 -1.0011  0.8252 -1.6797
  104OSM   C18F10629   6.049   6.060   8.316 -0.0313  0.5635  0.3978
  104OSM   H18F10630   5.981   5.999   8.254 -2.4569  2.1969  1.3009
  104OSM   H18G10631   6.152   6.019   8.319  0.2949  1.2696 -0.7436
  104OSM   H18H10632   6.068   6.153   8.260  1.6856  1.0490  1.6920
  105OSM      N10633   1.834   3.362  10.525  0.7435 -0.7343  0.7952
  105OSM    C1510634   1.694   3.325  10.565  0.3381 -0.0894 -0.3316
  105OSM   H15A10635   1.667   3.239  10.505  0.3547 -0.8826  0.7682
  105OSM   H15B10636   1.623   3.405  10.550  1.8300  1.3984  0.2392
  105OSM   H15C10637   1.686   3.301  10.670 -0.5675  0.1720 -0.3321
  105OSM    C1410638   1.830   3.401  10.385  0.4875  0.6019 -0.1519
  105OSM   H14A10639   1.758   3.478  10.361 -0.5838 -0.9057 -1.9926
  105OSM   H14B10640   1.812   3.320  10.316  2.1378 -0.0752  0.1449
  105OSM   H14C10641   1.933   3.428  10.365  0.4663  2.9109  2.2683
  105OSM    C1310642   1.894   3.475  10.606 -0.1377  0.0765  0.1568
  105OSM   H13A10643   1.848   3.572  10.609  1.7004  0.9785  0.2993
  105OSM   H13B10644   2.001   3.487  10.591 -0.0749 -0.1322  0.4208
  105OSM   H13C10645   1.886   3.441  10.708  0.1564  0.9439  0.4700
  105OSM    C1210646   1.912   3.232  10.537  0.0066 -0.3512  0.4314
  105OSM   H12A10647   1.884   3.197  10.635 -0.5909  0.3359  0.5205
  105OSM   H12B10648   2.018   3.249  10.527 -0.0482  0.1476  0.6429
  105OSM    C1110649   1.888   3.125  10.432 -0.1451 -0.2457 -0.2004
  105OSM   H11A10650   1.955   3.041  10.460  0.5065  0.9194  2.0103
  105OSM   H11B10651   1.927   3.157  10.333 -0.9706  0.0173 -0.4462
  105OSM      P10652   1.721   2.937  10.359  0.3201  0.0985  0.3622
  105OSM    O1310653   1.779   2.835  10.445  0.1791  0.6946  0.4598
  105OSM    O1410654   1.576   2.935  10.333 -0.1884 -0.5957  0.0482
  105OSM    O1110655   1.805   2.940  10.231 -0.0977  0.2326 -0.1776
  105OSM    O1210656   1.753   3.077  10.426  0.1918 -0.5770 -0.4806
  105OSM    C1S10657   1.761   3.021  10.125 -0.9563  0.2346 -0.4052
  105OSM    H1S10658   1.729   3.121  10.161  0.3600  0.5631 -0.0872
  105OSM    H1T10659   1.672   2.981  10.073  0.2682  1.0832 -3.3412
  105OSM     NF10660   1.822   3.136   9.912 -0.1300 -0.0533  0.1608
  105OSM    HNF10661   1.754   3.106   9.846 -0.8510  3.2216 -0.7573
  105OSM    C2S10662   1.871   3.042  10.015  0.3220  0.1008 -0.4969
  105OSM    H2S10663   1.960   3.087  10.063  0.6671 -0.0325 -1.0074
  105OSM    C3S10664   1.908   2.909   9.958  0.4076  0.2595  0.8501
  105OSM    H3S10665   1.819   2.859   9.913 -0.4872  2.1394  0.4435
  105OSM     O310666   1.967   2.826  10.055 -0.0033  0.4275  0.2585
  105OSM    HO310667   1.958   2.878  10.135  0.0226 -0.1927  0.6686
  105OSM    C4S10668   2.014   2.923   9.853  0.2949  0.0196 -0.4377
  105OSM    H4S10669   2.109   2.932   9.907 -1.1881  2.1100  2.1225
  105OSM    C5S10670   2.005   2.921   9.718 -0.3377  0.2466  0.2349
  105OSM    H5S10671   1.903   2.897   9.682 -0.8715  0.4720  1.5239
  105OSM    C6S10672   2.113   2.948   9.629 -0.7936 -0.1775  0.1908
  105OSM    H6S10673   2.110   2.881   9.541 -1.3346  1.6028 -1.2257
  105OSM    H6T10674   2.212   2.928   9.675 -0.7726 -0.2834  0.0987
  105OSM    C7S10675   2.127   3.092   9.584  0.4896 -0.5228  0.4213
  105OSM    H7S10676   2.143   3.144   9.680  0.1572  0.9195 -0.2802
  105OSM    H7T10677   2.037   3.129   9.532  0.6614 -2.1600 -1.1625
  105OSM    C8S10678   2.253   3.117   9.506  0.0460  0.0387 -0.5959
  105OSM    H8S10679   2.348   3.088   9.555  0.6994  1.0747 -1.2208
  105OSM    H8T10680   2.267   3.224   9.482  1.4695 -0.2915 -1.3886
  105OSM    C9S10681   2.259   3.038   9.373  0.2524 -0.0902  0.8339
  105OSM    H9S10682   2.191   2.950   9.381 -1.4363  0.9098 -1.4223
  105OSM    H9T10683   2.363   3.000   9.368  0.0361 -0.4994 -1.9387
  105OSM   C10S10684   2.222   3.116   9.244  0.0586 -0.3682  0.5048
  105OSM   H10S10685   2.294   3.198   9.226 -0.9892 -0.2496 -4.1832
  105OSM   H10T10686   2.124   3.165   9.261  0.0335 -0.3293  0.2374
  105OSM   C11S10687   2.238   3.041   9.112 -0.3258  0.0899  0.0159
  105OSM   H11S10688   2.170   2.954   9.119 -2.7168  1.9498  1.6201
  105OSM   H11T10689   2.337   2.992   9.099 -0.4588 -0.0131 -0.6416
  105OSM   C12S10690   2.202   3.123   8.994  0.4054 -0.3190  0.2423
  105OSM   H12S10691   2.264   3.215   8.984  0.5519 -0.6049 -1.9620
  105OSM   H12T10692   2.098   3.163   8.998  1.0297  1.2963  1.4539
  105OSM   C13S10693   2.211   3.057   8.857 -0.3847  0.1505  0.7786
  105OSM   H13S10694   2.161   2.958   8.861  1.5210 -0.9227 -0.6734
  105OSM   H13T10695   2.315   3.031   8.829 -1.4457 -1.8500 -1.6594
  105OSM   C14S10696   2.147   3.143   8.744 -0.1165 -0.1071 -0.2685
  105OSM   H14S10697   2.196   3.243   8.740 -2.3824  1.0630 -2.6636
  105OSM   H14T10698   2.042   3.164   8.775  0.2541 -1.8441  2.4594
  105OSM   C15S10699   2.140   3.064   8.611 -0.2141  0.7438  0.1375
  105OSM   H15S10700   2.065   2.983   8.622 -1.5495  1.8802 -0.3739
  105OSM   H15T10701   2.242   3.027   8.585 -0.7370  0.0259 -1.0130
  105OSM   C16S10702   2.096   3.143   8.490  0.1829  0.3213 -0.6884
  105OSM   H16S10703   2.177   3.217   8.471 -0.4874  1.6784  1.4291
  105OSM   H16T10704   2.004   3.204   8.503 -0.3214 -0.8672  1.8611
  105OSM   C17S10705   2.073   3.053   8.362 -0.3327 -0.5712 -0.1447
  105OSM   H17S10706   1.979   2.994   8.371 -0.4580 -0.3436  0.0541
  105OSM   H17T10707   2.150   2.974   8.349 -0.5975 -0.8269 -0.1849
  105OSM   C18S10708   2.078   3.137   8.234 -0.2009 -0.2155 -0.0249
  105OSM   H18S10709   2.159   3.213   8.235 -1.3676  1.0639 -0.1721
  105OSM   H18T10710   1.984   3.191   8.209  0.2825 -0.4964 -2.8294
  105OSM   H18U10711   2.097   3.078   8.142  0.1612 -0.1102 -0.0202
  105OSM    C1F10712   1.812   3.263   9.948  0.5820 -0.8374 -0.0951
  105OSM     OF10713   1.842   3.313  10.057  0.0569  0.2991  0.1296
  105OSM    C2F10714   1.779   3.357   9.833  1.1954 -0.1583 -0.2588
  105OSM    H2F10715   1.747   3.455   9.875 -0.6447  0.3365 -2.5829
  105OSM    H2G10716   1.693   3.301   9.791  1.2101 -0.1205 -0.3391
  105OSM    C3F10717   1.894   3.382   9.728 -0.4750  0.8563 -0.0804
  105OSM    H3F10718   1.929   3.283   9.693  0.3422  0.8971  0.5894
  105OSM    H3G10719   1.980   3.429   9.780 -0.4435 -0.1549  0.8115
  105OSM    C4F10720   1.848   3.471   9.608 -0.5656 -0.7569  0.3733
  105OSM    H4F10721   1.807   3.569   9.639 -0.9777 -0.9223  0.3648
  105OSM    H4G10722   1.762   3.418   9.561 -1.4515 -0.8825  2.0749
  105OSM    C5F10723   1.961   3.495   9.509 -0.5331  0.7425  0.0818
  105OSM    H5F10724   2.051   3.447   9.553 -0.8759 -0.5080 -0.5321
  105OSM    H5G10725   1.977   3.604   9.497 -1.2197  0.9389  0.8252
  105OSM    C6F10726   1.917   3.438   9.374  0.5268 -0.2620  0.1903
  105OSM    H6F10727   1.821   3.480   9.337  1.1276  0.2307 -0.8517
  105OSM    H6G10728   1.910   3.328   9.388 -0.0795 -0.1776  0.5985
  105OSM    C7F10729   2.027   3.457   9.267  0.5321 -0.1893 -0.0260
  105OSM    H7F10730   2.110   3.393   9.305  0.4710  0.5216  1.3664
  105OSM    H7G10731   2.059   3.563   9.275  0.0855 -0.1667  2.1941
  105OSM    C8F10732   1.986   3.417   9.116 -0.7100 -0.2545 -0.5843
  105OSM    H8F10733   1.964   3.309   9.133 -0.7607  0.1096  2.1423
  105OSM    H8G10734   2.080   3.440   9.061 -1.0628  1.7558 -0.3998
  105OSM    C9F10735   1.865   3.480   9.056  0.0323 -0.5237  0.7025
  105OSM    H9F10736   1.790   3.514   9.129  0.2658 -1.0814  1.2118
  105OSM   C10F10737   1.841   3.497   8.925  0.2286 -0.4497 -0.3279
  105OSM   H10F10738   1.738   3.529   8.903 -0.5794 -0.2548  3.1365
  105OSM   C11F10739   1.930   3.447   8.816 -0.7306  0.0567  0.1492
  105OSM   H11F10740   1.889   3.349   8.784 -0.6098 -0.4117  1.3776
  105OSM   H11G10741   2.032   3.429   8.855 -0.5661  0.5838 -0.0228
  105OSM   C12F10742   1.926   3.539   8.695  0.2124 -0.3355  0.1823
  105OSM   H12F10743   2.008   3.508   8.627  0.5857  1.7201 -0.3907
  105OSM   H12G10744   1.948   3.644   8.724  1.1834 -1.2280  2.9813
  105OSM   C13F10745   1.801   3.534   8.600 -1.1800  0.2542  0.3742
  105OSM   H13F10746   1.799   3.623   8.533 -0.7507  1.1880  1.5704
  105OSM   H13G10747   1.710   3.520   8.662 -1.4130 -0.0371 -0.0257
  105OSM   C14F10748   1.806   3.417   8.491  0.2621 -0.3683 -1.1535
  105OSM   H14F10749   1.711   3.399   8.437 -0.9686  0.3363  0.7127
  105OSM   H14G10750   1.831   3.325   8.549 -2.8268  0.0476  1.0517
  105OSM   C15F10751   1.911   3.432   8.378 -0.3567  0.3897  0.1512
  105OSM   H15F10752   1.896   3.342   8.314 -0.0682  1.4684 -1.4742
  105OSM   H15G10753   2.015   3.432   8.419 -0.0848  0.2936 -0.5328
  105OSM   C16F10754   1.903   3.558   8.290 -0.2476 -0.2497 -0.2745
  105OSM   H16F10755   1.905   3.655   8.343 -0.4580  0.8461 -2.1818
  105OSM   H16G10756   1.801   3.566   8.248 -0.1182  0.7598 -0.4191
  105OSM   C17F10757   2.021   3.567   8.191  0.0605  0.1194  0.0590
  105OSM   H17F10758   2.027   3.478   8.125 -1.2985 -0.2038  0.3508
  105OSM   H17G10759   2.113   3.572   8.253 -1.1052 -0.1145  1.8649
  105OSM   C18F10760   2.023   3.690   8.104 -0.0183 -0.0584  0.7915
  105OSM   H18F10761   2.003   3.781   8.166  2.9091 -0.0695  1.9065
  105OSM   H18G10762   1.940   3.683   8.031 -0.1304 -1.3240  1.0235
  105OSM   H18H10763   2.123   3.701   8.057  0.9009 -2.6737  1.9705
  106OSM      N10764   1.348   2.641  10.497 -0.0895  0.0615  0.5487
  106OSM    C1510765   1.261   2.649  10.620  0.4922  0.1052 -0.1032
  106OSM   H15A10766   1.306   2.701  10.704 -0.4945 -1.5573  1.5521
  106OSM   H15B10767   1.235   2.552  10.660 -2.1056 -0.2213 -2.2828
  106OSM   H15C10768   1.170   2.702  10.596  0.9032  0.8814  0.0222
  106OSM    C1410769   1.371   2.778  10.451 -0.2836 -0.5961 -0.3774
  106OSM   H14A10770   1.436   2.836  10.514 -0.5321 -0.3487 -0.3499
  106OSM   H14B10771   1.277   2.831  10.451  0.3558  0.8868  3.5473
  106OSM   H14C10772   1.427   2.785  10.359  1.3354 -0.4106  0.5800
  106OSM    C1310773   1.487   2.581  10.520 -0.4381  0.9881 -0.2767
  106OSM   H13A10774   1.537   2.629  10.603  2.7235  0.5314 -1.7924
  106OSM   H13B10775   1.559   2.575  10.440  1.2690 -0.4672  1.2637
  106OSM   H13C10776   1.472   2.475  10.536 -0.9413  1.4077  2.5575
  106OSM    C1210777   1.276   2.570  10.389  0.5671  0.5666 -0.0442
  106OSM   H12A10778   1.251   2.476  10.436 -0.3588  1.1493  0.6545
  106OSM   H12B10779   1.345   2.539  10.312 -0.0687  2.0268 -1.2346
  106OSM    C1110780   1.143   2.635  10.329 -0.4212  0.0178  0.4899
  106OSM   H11A10781   1.108   2.553  10.263 -0.6113  0.7572 -0.3403
  106OSM   H11B10782   1.174   2.722  10.267  1.3329  0.8594  2.4434
  106OSM      P10783   0.923   2.603  10.475  0.0531 -0.1982 -0.0118
  106OSM    O1310784   0.957   2.462  10.506 -0.0386  0.1391  0.5490
  106OSM    O1410785   0.847   2.677  10.578 -0.1615 -0.2500  0.4196
  106OSM    O1110786   0.840   2.619  10.336 -0.0464  0.1313  0.2417
  106OSM    O1210787   1.047   2.680  10.429  0.6820 -0.5222 -0.3689
  106OSM    C1S10788   0.805   2.746  10.278 -0.6985  0.3030 -0.2030
  106OSM    H1S10789   0.894   2.812  10.281  0.5984 -1.3968  1.2863
  106OSM    H1T10790   0.713   2.785  10.326 -1.5445 -0.7768 -0.8917
  106OSM     NF10791   0.783   2.866  10.077  0.8684 -0.5056 -0.5570
  106OSM    HNF10792   0.697   2.915  10.082  1.8481  1.2840 -0.6213
  106OSM    C2S10793   0.779   2.728  10.124  0.4159 -0.3106  0.5994
  106OSM    H2S10794   0.856   2.664  10.077 -2.5904 -3.2891 -0.6285
  106OSM    C3S10795   0.642   2.665  10.107  0.6363  0.3135  0.5945
  106OSM    H3S10796   0.565   2.744  10.121 -0.7954 -1.1273  1.1580
  106OSM     O310797   0.621   2.549  10.186 -0.1606 -0.3278 -0.0165
  106OSM    HO310798   0.681   2.569  10.258  0.8392  2.6914 -1.5041
  106OSM    C4S10799   0.615   2.636   9.957 -0.5781 -0.7216  0.0418
  106OSM    H4S10800   0.571   2.723   9.906  2.3558  0.6253 -0.4094
  106OSM    C5S10801   0.635   2.517   9.891 -0.3888 -0.7923  0.0795
  106OSM    H5S10802   0.663   2.428   9.949 -0.8477 -1.3754 -0.5771
  106OSM    C6S10803   0.593   2.489   9.750 -0.2782 -0.5593  0.9790
  106OSM    H6S10804   0.512   2.413   9.755 -0.8903  0.1644  2.8563
  106OSM    H6T10805   0.670   2.446   9.682 -0.3702  3.4045 -2.0211
  106OSM    C7S10806   0.549   2.617   9.669  0.3017  0.4361  0.6813
  106OSM    H7S10807   0.624   2.699   9.663 -1.6007  2.1766 -3.1884
  106OSM    H7T10808   0.454   2.646   9.720  0.0085 -1.3373  1.1836
  106OSM    C8S10809   0.521   2.581   9.518 -0.5824  0.8726 -0.0173
  106OSM    H8S10810   0.454   2.493   9.517  0.9295 -0.3271  0.7622
  106OSM    H8T10811   0.613   2.548   9.466 -0.0655 -1.6279  2.2552
  106OSM    C9S10812   0.469   2.699   9.441  0.5798 -0.8643  1.5452
  106OSM    H9S10813   0.538   2.784   9.463  2.4659 -0.9529 -2.8604
  106OSM    H9T10814   0.366   2.726   9.471  0.9965  1.4963  1.0842
  106OSM   C10S10815   0.476   2.672   9.286  0.0561  0.5136  1.0217
  106OSM   H10S10816   0.576   2.632   9.261 -0.8125 -0.1415 -1.8329
  106OSM   H10T10817   0.458   2.760   9.220 -1.4605 -1.6946 -1.7349
  106OSM   C11S10818   0.373   2.556   9.251 -0.0018  0.9908  0.2825
  106OSM   H11S10819   0.277   2.587   9.297  0.7585  2.4055  0.9440
  106OSM   H11T10820   0.412   2.463   9.297  1.0836  2.0174  1.4932
  106OSM   C12S10821   0.349   2.529   9.100  0.9244 -0.0280 -0.4633
  106OSM   H12S10822   0.293   2.615   9.055  0.1966 -0.8210 -1.1063
  106OSM   H12T10823   0.284   2.440   9.089 -2.5094  2.1170  0.6986
  106OSM   C13S10824   0.484   2.503   9.025  0.3627 -0.3806 -0.4705
  106OSM   H13S10825   0.541   2.439   9.096  0.7461  0.3197 -0.1391
  106OSM   H13T10826   0.536   2.601   9.015  2.1720 -1.4606 -2.7451
  106OSM   C14S10827   0.479   2.443   8.884 -0.6229  0.8483 -0.3404
  106OSM   H14S10828   0.409   2.357   8.888  1.9864 -1.4104 -0.0254
  106OSM   H14T10829   0.577   2.409   8.842 -1.9453 -1.8550 -1.4905
  106OSM   C15S10830   0.415   2.537   8.780 -0.7182  0.2099  0.1018
  106OSM   H15S10831   0.486   2.619   8.756  1.0683 -2.2442 -4.0635
  106OSM   H15T10832   0.317   2.575   8.816 -1.7447 -0.5902 -1.7323
  106OSM   C16S10833   0.390   2.473   8.642 -0.0700 -0.1095 -0.2395
  106OSM   H16S10834   0.487   2.437   8.602 -1.0328 -2.1957 -0.8439
  106OSM   H16T10835   0.358   2.565   8.588 -0.5661  1.6517  2.8044
  106OSM   C17S10836   0.280   2.369   8.628  0.4687 -0.3377  0.1618
  106OSM   H17S10837   0.303   2.290   8.703  1.8256  1.8198  2.1555
  106OSM   H17T10838   0.279   2.327   8.525 -2.5910  0.9254 -0.4461
  106OSM   C18S10839   0.137   2.420   8.669 -0.4258  0.2103  0.3553
  106OSM   H18S10840   0.091   2.495   8.601 -3.4210 -1.5366  0.2564
  106OSM   H18T10841   0.131   2.466   8.770 -1.2397  0.3940  0.2374
  106OSM   H18U10842   0.072   2.330   8.662  0.4021 -0.3102 -0.6790
  106OSM    C1F10843   0.896   2.938  10.056  0.4482 -0.4499 -0.3951
  106OSM     OF10844   1.005   2.882  10.069 -0.0742  0.3494  0.4623
  106OSM    C2F10845   0.884   3.088  10.043  0.6133 -0.5728 -0.1519
  106OSM    H2F10846   0.958   3.123  10.118 -1.6252 -2.0952  2.9937
  106OSM    H2G10847   0.786   3.122  10.082  2.2631  1.2214  2.7737
  106OSM    C3F10848   0.904   3.139   9.899 -0.2529  0.5620  0.8986
  106OSM    H3F10849   1.002   3.123   9.850 -1.2850  0.7935 -1.3676
  106OSM    H3G10850   0.892   3.249   9.884 -0.8024  0.4305  0.3441
  106OSM    C4F10851   0.808   3.068   9.800  0.2857 -0.0760 -0.2196
  106OSM    H4F10852   0.707   3.105   9.828  0.7148 -0.5531  2.1360
  106OSM    H4G10853   0.795   2.959   9.819  0.2054 -0.2343 -1.1333
  106OSM    C5F10854   0.851   3.100   9.660 -0.1083 -0.2378 -1.1583
  106OSM    H5F10855   0.959   3.085   9.643  0.6808  2.5276  0.6963
  106OSM    H5G10856   0.845   3.211   9.668  1.1108 -0.2960  2.1902
  106OSM    C6F10857   0.762   3.046   9.549 -0.1395 -0.2357  0.0364
  106OSM    H6F10858   0.652   3.045   9.564 -0.2041 -0.5358 -0.4125
  106OSM    H6G10859   0.792   2.939   9.536 -1.7029 -0.4696 -2.4213
  106OSM    C7F10860   0.779   3.114   9.409 -0.1313 -0.1600  0.6307
  106OSM    H7F10861   0.887   3.138   9.402  0.0832 -0.3071  2.7424
  106OSM    H7G10862   0.720   3.208   9.401 -0.9733 -0.6872  0.5234
  106OSM    C8F10863   0.735   3.023   9.293 -1.3916 -0.7970 -0.3996
  106OSM    H8F10864   0.630   2.996   9.319 -0.4159 -1.8189  2.8918
  106OSM    H8G10865   0.787   2.925   9.295 -0.9425 -0.5687 -0.6551
  106OSM    C9F10866   0.761   3.070   9.146 -0.6430 -0.0313 -0.2190
  106OSM    H9F10867   0.843   3.020   9.093 -1.0949 -2.7600  1.4918
  106OSM   C10F10868   0.690   3.165   9.081 -0.0129  0.0049  0.1086
  106OSM   H10F10869   0.710   3.195   8.977 -1.7802 -0.4970 -0.4119
  106OSM   C11F10870   0.559   3.216   9.130  1.0819  0.2549 -0.1747
  106OSM   H11F10871   0.563   3.327   9.119  1.0806  0.5425  2.1325
  106OSM   H11G10872   0.549   3.198   9.239 -0.8233  1.7724 -0.0358
  106OSM   C12F10873   0.443   3.157   9.044 -0.0926 -0.2158 -0.8114
  106OSM   H12F10874   0.346   3.176   9.095  0.3109 -0.9169  0.2446
  106OSM   H12G10875   0.437   3.047   9.039  2.7093 -0.4700 -0.2204
  106OSM   C13F10876   0.423   3.230   8.909 -0.1970 -0.2869 -0.2245
  106OSM   H13F10877   0.350   3.177   8.844  1.0946  0.7169 -2.6469
  106OSM   H13G10878   0.520   3.244   8.856  0.2308 -1.1715  0.3117
  106OSM   C14F10879   0.369   3.374   8.923 -0.0392  0.5072  0.0058
  106OSM   H14F10880   0.436   3.425   8.995  1.0307 -0.4025 -0.3268
  106OSM   H14G10881   0.265   3.357   8.961  0.4563 -1.6041  0.5744
  106OSM   C15F10882   0.360   3.436   8.787  0.6793  0.8278 -0.6613
  106OSM   H15F10883   0.338   3.357   8.713  1.4547  2.6909 -3.0253
  106OSM   H15G10884   0.460   3.465   8.748  1.8003 -0.9042  0.8111
  106OSM   C16F10885   0.254   3.547   8.780 -0.1172  0.2312 -0.5065
  106OSM   H16F10886   0.282   3.619   8.859 -1.3693 -1.1399  1.2804
  106OSM   H16G10887   0.154   3.502   8.799 -0.7463  1.1344 -1.5350
  106OSM   C17F10888   0.247   3.599   8.641  0.1160 -0.5180  0.4688
  106OSM   H17F10889   0.221   3.508   8.583 -2.1926 -0.2083  0.9314
  106OSM   H17G10890   0.349   3.631   8.609  0.3130  0.9323  2.3667
  106OSM   C18F10891   0.120   3.682   8.622 -0.3880 -0.3946  1.1904
  106OSM   H18F10892   0.117   3.773   8.686  2.6177 -0.8485  2.1214
  106OSM   H18G10893   0.026   3.622   8.624 -0.1337 -0.8125  0.6880
  106OSM   H18H10894   0.127   3.727   8.521 -1.8322  0.3141  1.3884
  107OSM      N10895   4.852   0.398  11.129 -0.0017 -0.2773 -0.1779
  107OSM    C1510896   4.832   0.259  11.080  0.4271 -0.4574 -0.0161
  107OSM   H15A10897   4.846   0.262  10.973  1.1072  2.1498  0.0780
  107OSM   H15B10898   4.735   0.218  11.104  0.5244  0.1740  1.6204
  107OSM   H15C10899   4.893   0.183  11.126 -1.3030 -1.2330  1.0773
  107OSM    C1410900   4.802   0.385  11.268 -0.3282 -0.3997  0.0783
  107OSM   H14A10901   4.816   0.478  11.322 -0.0513 -1.0514  1.1678
  107OSM   H14B10902   4.857   0.319  11.334 -0.1847 -0.1376  0.2199
  107OSM   H14C10903   4.696   0.377  11.287 -0.3989  1.0182  0.3901
  107OSM    C1310904   4.999   0.424  11.143  1.2551  0.1931  0.3096
  107OSM   H13A10905   5.010   0.522  11.186  0.6316  0.6242 -0.4866
  107OSM   H13B10906   5.042   0.427  11.044 -0.8307  0.8939 -0.6318
  107OSM   H13C10907   5.030   0.343  11.207  1.0231 -0.2903 -0.1802
  107OSM    C1210908   4.763   0.492  11.050 -0.4989 -0.5023 -0.8309
  107OSM   H12A10909   4.797   0.590  11.080 -2.1602  0.0025 -0.5329
  107OSM   H12B10910   4.659   0.485  11.076 -0.6390 -0.6996 -1.4214
  107OSM    C1110911   4.785   0.495  10.898 -0.2068  0.2212  0.1734
  107OSM   H11A10912   4.891   0.470  10.873 -0.4482  0.3237 -1.0157
  107OSM   H11B10913   4.757   0.587  10.842 -0.2658  0.2369  0.2286
  107OSM      P10914   4.555   0.368  10.831 -0.0234  0.0123 -0.2971
  107OSM    O1310915   4.517   0.261  10.736 -0.5731  0.1670 -0.3237
  107OSM    O1410916   4.515   0.350  10.970 -0.2068 -0.2345  0.0018
  107OSM    O1110917   4.504   0.506  10.777 -0.5738 -0.5897  0.0723
  107OSM    O1210918   4.709   0.390  10.836  0.2430  0.4837  0.2664
  107OSM    C1S10919   4.510   0.532  10.630 -0.3255  0.8770 -0.3476
  107OSM    H1S10920   4.600   0.485  10.585  0.6534  0.8174  1.5530
  107OSM    H1T10921   4.532   0.638  10.609  0.1233  0.8501 -0.0079
  107OSM     NF10922   4.385   0.537  10.413  0.1916 -0.2628 -0.2336
  107OSM    HNF10923   4.332   0.614  10.377 -1.7033  0.1616  3.0635
  107OSM    C2S10924   4.373   0.499  10.555 -0.0192 -0.3574 -0.2553
  107OSM    H2S10925   4.349   0.390  10.555 -1.4658 -0.0659 -0.8125
  107OSM    C3S10926   4.255   0.573  10.628  0.0196  0.2098 -0.0601
  107OSM    H3S10927   4.282   0.681  10.637 -1.6742  0.6656 -0.2152
  107OSM     O310928   4.224   0.507  10.752  0.3013 -0.2008 -0.1329
  107OSM    HO310929   4.291   0.443  10.775  0.0416 -0.1221  0.8615
  107OSM    C4S10930   4.131   0.568  10.545  0.0320 -0.1818 -0.4986
  107OSM    H4S10931   4.083   0.470  10.532 -2.4045  1.0788 -1.4333
  107OSM    C5S10932   4.073   0.677  10.491  0.2490  0.1771  0.4142
  107OSM    H5S10933   4.126   0.772  10.498 -0.4031  0.8829 -2.6102
  107OSM    C6S10934   3.949   0.676  10.406  0.3692  0.7002 -0.3533
  107OSM    H6S10935   3.893   0.771  10.417 -0.7027 -0.0589  1.1722
  107OSM    H6T10936   3.891   0.588  10.442  3.6565 -0.8864  1.7087
  107OSM    C7S10937   3.956   0.642  10.255  0.2055 -0.5910  0.2912
  107OSM    H7S10938   3.867   0.682  10.203  1.1917  0.8082 -0.4028
  107OSM    H7T10939   3.953   0.531  10.248 -3.4522 -0.5235 -0.9765
  107OSM    C8S10940   4.078   0.706  10.188 -0.6847  0.0149  0.4486
  107OSM    H8S10941   4.147   0.621  10.205 -0.4521 -0.0760 -0.8789
  107OSM    H8T10942   4.115   0.799  10.236 -0.4485  0.0803  0.1371
  107OSM    C9S10943   4.074   0.734  10.041 -0.1441  0.4080  0.2607
  107OSM    H9S10944   4.177   0.757  10.009  0.2236  0.1101  1.1920
  107OSM    H9T10945   4.013   0.823  10.016 -1.2195  0.2295  2.0685
  107OSM   C10S10946   4.042   0.612   9.945 -0.1481  0.3696  0.3041
  107OSM   H10S10947   3.935   0.583   9.954 -0.7676  2.4522  0.2378
  107OSM   H10T10948   4.101   0.523   9.974  1.0768  1.2073  0.4760
  107OSM   C11S10949   4.047   0.658   9.799 -0.1447 -0.5601  0.1263
  107OSM   H11S10950   3.981   0.746   9.791 -1.0087 -1.1057  1.0100
  107OSM   H11T10951   3.995   0.581   9.738 -0.9053 -0.6962  0.9337
  107OSM   C12S10952   4.188   0.681   9.742  0.8642 -0.0247 -0.0538
  107OSM   H12S10953   4.239   0.584   9.759 -0.9585 -1.2440 -1.2090
  107OSM   H12T10954   4.226   0.763   9.806 -0.5341  0.2389  0.4839
  107OSM   C13S10955   4.183   0.728   9.600  0.1650  0.2533  0.3871
  107OSM   H13S10956   4.279   0.777   9.573  2.0641 -0.7872  4.4467
  107OSM   H13T10957   4.093   0.793   9.593 -0.5342 -0.7853 -0.6657
  107OSM   C14S10958   4.155   0.613   9.496  0.1301  0.3329 -0.4318
  107OSM   H14S10959   4.052   0.576   9.517  0.3470 -0.7046 -1.1316
  107OSM   H14T10960   4.215   0.532   9.542  0.3105  1.7722  2.0118
  107OSM   C15S10961   4.186   0.649   9.352  0.3812 -0.3189 -0.2703
  107OSM   H15S10962   4.159   0.574   9.275  1.3271  1.7984 -2.8445
  107OSM   H15T10963   4.295   0.669   9.348  0.3198  0.1889  0.4511
  107OSM   C16S10964   4.095   0.770   9.301 -0.1865  0.1085 -0.9293
  107OSM   H16S10965   4.116   0.862   9.361  0.6888 -1.5295  1.4538
  107OSM   H16T10966   3.990   0.740   9.321 -1.1331  2.6996 -1.6439
  107OSM   C17S10967   4.122   0.810   9.158 -0.8526 -0.5184  0.3923
  107OSM   H17S10968   4.228   0.843   9.163 -0.5886 -1.3488  0.4385
  107OSM   H17T10969   4.063   0.900   9.131 -1.5942 -1.3414 -0.7829
  107OSM   C18S10970   4.107   0.702   9.048  0.6230  0.3263 -0.1584
  107OSM   H18S10971   4.004   0.660   9.049  0.8994 -0.3601  0.0107
  107OSM   H18T10972   4.163   0.611   9.078  0.2085  0.0209 -0.3113
  107OSM   H18U10973   4.129   0.727   8.942  2.9865 -1.9072 -0.2923
  107OSM    C1F10974   4.467   0.478  10.324 -0.7305 -0.3231 -0.5869
  107OSM     OF10975   4.551   0.396  10.358 -0.3702 -0.5909  0.1662
  107OSM    C2F10976   4.438   0.518  10.181  0.5825 -0.7534 -0.2443
  107OSM    H2F10977   4.408   0.624  10.173  0.4590 -0.8676 -1.3926
  107OSM    H2G10978   4.352   0.458  10.146 -0.1650 -1.3917  2.4379
  107OSM    C3F10979   4.564   0.498  10.089  0.0460 -0.2067 -0.7551
  107OSM    H3F10980   4.616   0.401  10.097  0.8808  0.3255  0.5897
  107OSM    H3G10981   4.636   0.576  10.124  2.1429 -2.8342  1.1445
  107OSM    C4F10982   4.519   0.536   9.945  0.2489  0.1415  0.0891
  107OSM    H4F10983   4.487   0.642   9.950  0.1916  0.0885  1.1603
  107OSM    H4G10984   4.424   0.492   9.907  0.2966 -1.4051  1.6541
  107OSM    C5F10985   4.629   0.519   9.837  0.4108  0.0350  0.1976
  107OSM    H5F10986   4.676   0.419   9.841  0.1237 -0.2025 -1.5263
  107OSM    H5G10987   4.701   0.595   9.872  0.2217 -0.4984  1.7867
  107OSM    C6F10988   4.595   0.562   9.699  0.2113  0.6569 -0.1680
  107OSM    H6F10989   4.597   0.672   9.682  0.4024  0.6763 -0.0181
  107OSM    H6G10990   4.496   0.524   9.665 -1.0288  4.7584 -1.8127
  107OSM    C7F10991   4.695   0.501   9.598  0.7517  0.1941  0.0290
  107OSM    H7F10992   4.692   0.391   9.613  1.0251  0.5080  3.1122
  107OSM    H7G10993   4.798   0.535   9.625  0.3506  0.1227  1.7738
  107OSM    C8F10994   4.678   0.525   9.442 -0.2063 -0.0236  1.1382
  107OSM    H8F10995   4.750   0.465   9.381  0.9979  1.2429  1.2638
  107OSM    H8G10996   4.680   0.634   9.426 -0.7401  0.0501  1.5426
  107OSM    C9F10997   4.540   0.477   9.399  0.3613  0.0219  0.3401
  107OSM    H9F10998   4.477   0.439   9.481 -0.6315  0.3743 -0.2436
  107OSM   C10F10999   4.491   0.483   9.272 -0.8471 -0.3215 -0.3094
  107OSM   H10F11000   4.391   0.451   9.239 -1.0337 -1.3002  1.0884
  107OSM   C11F11001   4.568   0.562   9.166  0.4294  0.5859 -0.6654
  107OSM   H11F11002   4.595   0.494   9.082 -1.4281 -0.4074 -0.5124
  107OSM   H11G11003   4.667   0.604   9.193 -0.5102  3.6255 -1.5331
  107OSM   C12F11004   4.482   0.671   9.114  0.3949  0.0431 -1.0325
  107OSM   H12F11005   4.442   0.747   9.185  2.0212 -0.8735  0.9569
  107OSM   H12G11006   4.389   0.623   9.076  0.1601 -0.1393 -0.2561
  107OSM   C13F11007   4.543   0.759   9.001 -0.4731  0.1437 -0.7693
  107OSM   H13F11008   4.616   0.704   8.938  0.4309  0.2718  0.1409
  107OSM   H13G11009   4.589   0.844   9.056  1.8909 -1.4449 -0.1229
  107OSM   C14F11010   4.433   0.823   8.904  0.5748 -0.4395  0.4725
  107OSM   H14F11011   4.354   0.878   8.959  0.0654 -2.6765  2.1315
  107OSM   H14G11012   4.395   0.737   8.846 -1.2478  0.9791 -0.5487
  107OSM   C15F11013   4.496   0.931   8.810 -0.0623 -0.8177 -0.4068
  107OSM   H15F11014   4.573   0.886   8.743  0.0083 -0.3283 -0.6557
  107OSM   H15G11015   4.555   0.996   8.877 -0.3415 -1.1508  0.1665
  107OSM   C16F11016   4.385   1.001   8.738 -0.6187 -0.2819 -0.2818
  107OSM   H16F11017   4.315   1.051   8.808  0.1501  4.0205 -2.2899
  107OSM   H16G11018   4.331   0.917   8.688  1.6174 -1.8430 -0.1966
  107OSM   C17F11019   4.441   1.101   8.638 -0.2648 -0.3748 -0.3524
  107OSM   H17F11020   4.519   1.160   8.691  0.2816 -1.0469 -0.3934
  107OSM   H17G11021   4.369   1.182   8.612 -0.1400 -0.1143  0.1034
  107OSM   C18F11022   4.500   1.045   8.509 -0.8355 -0.0380  0.6784
  107OSM   H18F11023   4.582   0.974   8.532 -0.9011 -0.6303 -0.8481
  107OSM   H18G11024   4.552   1.124   8.451  3.8860 -1.1051  2.9249
  107OSM   H18H11025   4.421   0.997   8.449  1.1559 -1.0041 -1.3216
  108OSM      N11026   0.811   2.174  10.213 -0.1778 -0.3047  0.2744
  108OSM    C1511027   0.818   2.327  10.236  0.0254  0.3375  0.5052
  108OSM   H15A11028   0.872   2.340  10.329  3.0637 -0.5461 -1.0187
  108OSM   H15B11029   0.719   2.368  10.224 -0.8563 -1.6276  0.6739
  108OSM   H15C11030   0.884   2.377  10.168  1.2617 -0.3717  1.1495
  108OSM    C1411031   0.756   2.111  10.340 -0.3191 -0.0809  0.1389
  108OSM   H14A11032   0.824   2.138  10.419  1.0507  0.7049 -1.2596
  108OSM   H14B11033   0.752   2.004  10.323  0.4839  0.2778 -3.0080
  108OSM   H14C11034   0.658   2.149  10.365 -0.5114 -0.9150  0.6903
  108OSM    C1311035   0.722   2.154  10.097 -0.2408 -0.0194  0.3037
  108OSM   H13A11036   0.630   2.209  10.113 -0.2069 -0.8285  4.4231
  108OSM   H13B11037   0.700   2.049  10.097 -0.8989  0.0690 -1.6596
  108OSM   H13C11038   0.771   2.173  10.003 -0.9782  0.7937  0.0578
  108OSM    C1211039   0.944   2.113  10.192 -0.2847 -0.0440  0.3979
  108OSM   H12A11040   0.991   2.128  10.288  0.4472 -1.1592  0.2210
  108OSM   H12B11041   0.996   2.167  10.114  0.5828 -3.7069 -1.7798
  108OSM    C1111042   0.965   1.957  10.167  0.3309 -0.4715 -0.4568
  108OSM   H11A11043   1.075   1.945  10.169  0.3471 -0.4146 -1.0588
  108OSM   H11B11044   0.921   1.923  10.071  2.0508  1.4940 -2.0195
  108OSM      P11045   0.966   1.755  10.337  0.1455  0.1527 -0.0917
  108OSM    O1311046   1.107   1.774  10.376  0.3902  0.0306  0.1418
  108OSM    O1411047   0.874   1.703  10.435  0.3366 -0.2282  0.1334
  108OSM    O1111048   0.963   1.662  10.207  0.2256  0.2752 -0.2874
  108OSM    O1211049   0.917   1.890  10.280  0.0993  0.7051  0.2076
  108OSM    C1S11050   0.843   1.613  10.151  1.0836  0.3020 -0.6547
  108OSM    H1S11051   0.757   1.675  10.186  1.4608  0.2899  0.3282
  108OSM    H1T11052   0.821   1.509  10.183  1.1497  0.2628 -0.7359
  108OSM     NF11053   0.723   1.525   9.967 -0.0662  0.5160 -0.3582
  108OSM    HNF11054   0.741   1.429   9.945  1.7550  1.3502 -2.9694
  108OSM    C2S11055   0.847   1.606  10.001  0.3177 -0.2925 -0.2198
  108OSM    H2S11056   0.830   1.708   9.960  2.2433 -0.1265 -0.6981
  108OSM    C3S11057   0.981   1.560   9.940 -0.1515 -0.0471 -0.1680
  108OSM    H3S11058   1.014   1.470   9.996 -0.6552  1.1913  2.2457
  108OSM     O311059   1.086   1.649   9.977 -0.2206 -0.2761 -0.2875
  108OSM    HO311060   1.051   1.680  10.061 -0.5060 -0.8687 -0.1849
  108OSM    C4S11061   0.968   1.539   9.793  0.2709  0.3522 -0.0853
  108OSM    H4S11062   0.897   1.461   9.765  1.8202 -1.6269  1.2566
  108OSM    C5S11063   1.032   1.603   9.694 -0.2264  0.2787  0.1181
  108OSM    H5S11064   1.087   1.693   9.725  2.1925 -1.4960  1.2814
  108OSM    C6S11065   1.029   1.559   9.548  0.0142 -0.7056 -0.4073
  108OSM    H6S11066   1.131   1.547   9.506 -0.4557  2.2373 -2.8011
  108OSM    H6T11067   0.996   1.646   9.487 -0.1033 -0.6401 -0.2521
  108OSM    C7S11068   0.944   1.438   9.514 -0.9449  0.2913 -0.4646
  108OSM    H7S11069   0.838   1.440   9.547 -0.9909 -2.8901 -0.1020
  108OSM    H7T11070   0.987   1.345   9.557  0.8971  0.3076 -2.1477
  108OSM    C8S11071   0.947   1.427   9.362 -0.2528 -0.0742  0.2402
  108OSM    H8S11072   1.052   1.420   9.326  0.0955 -1.6736  1.5009
  108OSM    H8T11073   0.911   1.517   9.306  0.3103  0.3671  0.5763
  108OSM    C9S11074   0.859   1.314   9.315 -0.1354  0.4293 -0.4803
  108OSM    H9S11075   0.761   1.322   9.367  0.5092  3.6652  0.4849
  108OSM    H9T11076   0.915   1.226   9.352  0.3354  1.5906  1.7629
  108OSM   C10S11077   0.839   1.307   9.165 -0.9786  0.3809  0.2000
  108OSM   H10S11078   0.829   1.411   9.128  0.0535 -0.6422 -3.2965
  108OSM   H10T11079   0.749   1.246   9.142  1.0684 -2.8789  0.1475
  108OSM   C11S11080   0.965   1.250   9.088  0.4157  0.9293  0.9571
  108OSM   H11S11081   0.969   1.139   9.087 -0.0293  0.9050 -0.3116
  108OSM   H11T11082   1.057   1.276   9.144  0.3196  2.1602  0.5836
  108OSM   C12S11083   0.977   1.295   8.934 -0.4563 -0.5262 -0.4986
  108OSM   H12S11084   0.882   1.250   8.898 -1.3985  0.3084  0.8309
  108OSM   H12T11085   1.060   1.245   8.879  1.3536  0.0709  1.5470
  108OSM   C13S11086   1.003   1.445   8.916  0.6598 -0.0666 -0.1002
  108OSM   H13S11087   1.082   1.481   8.986 -1.0571 -0.0681  1.9551
  108OSM   H13T11088   0.905   1.493   8.937  0.1886 -1.0358 -0.0515
  108OSM   C14S11089   1.050   1.486   8.778  0.1800 -0.3346  0.6057
  108OSM   H14S11090   1.149   1.436   8.770  0.4280  0.3597 -1.0709
  108OSM   H14T11091   1.076   1.594   8.779  0.9522 -0.5039 -0.3750
  108OSM   C15S11092   0.953   1.461   8.661 -0.2022 -0.4274 -0.2100
  108OSM   H15S11093   0.922   1.357   8.687  1.0763 -1.3462 -2.1539
  108OSM   H15T11094   0.997   1.447   8.561  0.9176  0.3661  0.1574
  108OSM   C16S11095   0.836   1.551   8.659  0.4265  0.8218 -0.1071
  108OSM   H16S11096   0.792   1.549   8.761  1.1412 -2.5507  0.2231
  108OSM   H16T11097   0.764   1.529   8.577 -0.5140 -1.7040  1.2875
  108OSM   C17S11098   0.879   1.699   8.626 -0.1169  0.1618  0.2274
  108OSM   H17S11099   0.936   1.738   8.714 -0.7165  0.9776  0.2651
  108OSM   H17T11100   0.785   1.756   8.614  0.9357  1.6213 -1.6760
  108OSM   C18S11101   0.968   1.709   8.499  0.0478 -0.1054 -0.2578
  108OSM   H18S11102   0.922   1.660   8.410  1.0279 -1.7335  0.1013
  108OSM   H18T11103   1.065   1.663   8.528 -0.2097 -1.0746 -0.8585
  108OSM   H18U11104   0.987   1.817   8.482  1.0012  0.0842  1.7760
  108OSM    C1F11105   0.595   1.572   9.970  0.2125  0.2274 -0.0281
  108OSM     OF11106   0.563   1.686  10.006 -0.1704  0.2713  0.4423
  108OSM    C2F11107   0.488   1.466   9.962  0.0051 -0.8392 -0.1375
  108OSM    H2F11108   0.436   1.460  10.060 -2.0347  1.4082 -0.9782
  108OSM    H2G11109   0.537   1.374   9.923 -1.9496 -2.4132  0.9428
  108OSM    C3F11110   0.384   1.512   9.864  0.1477 -0.2356  0.0350
  108OSM    H3F11111   0.359   1.620   9.872 -0.4894 -0.3702 -0.1076
  108OSM    H3G11112   0.290   1.460   9.894 -0.1579  1.1306  1.5469
  108OSM    C4F11113   0.403   1.472   9.714 -0.0191 -0.1831 -0.6074
  108OSM    H4F11114   0.308   1.480   9.657 -0.6577 -1.0375  0.3033
  108OSM    H4G11115   0.430   1.365   9.719  1.3250  0.2031  2.4451
  108OSM    C5F11116   0.498   1.563   9.643 -0.0718 -0.3602 -0.0402
  108OSM    H5F11117   0.598   1.562   9.693  0.1742 -3.0688 -0.4509
  108OSM    H5G11118   0.470   1.669   9.628  0.5709 -0.3206 -1.0785
  108OSM    C6F11119   0.535   1.519   9.498  0.0923  0.2567 -0.4494
  108OSM    H6F11120   0.534   1.408   9.490  1.2784  0.2486 -0.6827
  108OSM    H6G11121   0.641   1.549   9.487  0.5898 -0.9696  0.6629
  108OSM    C7F11122   0.457   1.575   9.382  0.2394  0.1801  0.4013
  108OSM    H7F11123   0.460   1.686   9.388 -0.8141  0.2763 -0.5590
  108OSM    H7G11124   0.349   1.550   9.381 -0.0629  1.3743  0.5914
  108OSM    C8F11125   0.528   1.546   9.250 -0.1599  0.8627  0.4986
  108OSM    H8F11126   0.635   1.539   9.280  0.2025  0.4903 -0.8325
  108OSM    H8G11127   0.531   1.626   9.173  2.9316 -2.6391 -3.5122
  108OSM    C9F11128   0.487   1.417   9.180  0.4043  0.2217 -0.1862
  108OSM    H9F11129   0.472   1.337   9.253  0.2417  1.7616  1.5626
  108OSM   C10F11130   0.473   1.400   9.044  0.0845 -0.2043 -0.1226
  108OSM   H10F11131   0.432   1.303   9.011 -1.7477  0.1438  1.0478
  108OSM   C11F11132   0.478   1.494   8.926 -0.3789 -0.3452  0.2951
  108OSM   H11F11133   0.577   1.480   8.878 -0.0305 -0.9229  1.1391
  108OSM   H11G11134   0.484   1.600   8.959  0.8644 -0.8337  1.8075
  108OSM   C12F11135   0.367   1.472   8.820  0.2116 -0.1494 -0.0698
  108OSM   H12F11136   0.263   1.458   8.859 -1.4315  2.0637 -3.2436
  108OSM   H12G11137   0.392   1.383   8.759 -0.6369  0.8859 -2.0150
  108OSM   C13F11138   0.364   1.592   8.724 -0.3057  0.0524  0.0359
  108OSM   H13F11139   0.465   1.593   8.680 -0.5136 -2.2794 -0.6049
  108OSM   H13G11140   0.354   1.688   8.778  1.0792  0.2315  0.0127
  108OSM   C14F11141   0.258   1.574   8.614  0.2897  0.1104  0.9254
  108OSM   H14F11142   0.162   1.543   8.661 -1.5636 -1.5326 -3.4056
  108OSM   H14G11143   0.286   1.481   8.561 -2.2892 -0.8842  1.1412
  108OSM   C15F11144   0.240   1.697   8.523  0.1609  0.5952 -0.4751
  108OSM   H15F11145   0.226   1.778   8.598 -0.4578  0.7458 -0.7477
  108OSM   H15G11146   0.148   1.690   8.461  0.1960 -2.8084 -0.3226
  108OSM   C16F11147   0.359   1.730   8.436 -0.2210  0.2252 -0.7654
  108OSM   H16F11148   0.358   1.648   8.361 -0.9487 -0.9674  0.4924
  108OSM   H16G11149   0.452   1.725   8.497 -1.0871  1.5366  0.7330
  108OSM   C17F11150   0.367   1.872   8.384  0.2512 -0.6436 -0.4530
  108OSM   H17F11151   0.347   1.936   8.473  1.4612 -1.7814  0.6837
  108OSM   H17G11152   0.298   1.899   8.301  0.6405  1.4655 -0.1391
  108OSM   C18F11153   0.514   1.902   8.348 -0.2202  0.0243 -0.1102
  108OSM   H18F11154   0.531   1.860   8.246 -0.6023  0.4076 -0.3361
  108OSM   H18G11155   0.578   1.854   8.425  0.5101 -0.1604 -0.8137
  108OSM   H18H11156   0.535   2.010   8.330 -1.2055  0.1366 -0.6674
  109OSM      N11157   5.526   6.000  10.540 -0.7528 -0.2803 -0.3703
  109OSM    C1511158   5.416   6.089  10.591  0.0924  0.0498  0.2781
  109OSM   H15A11159   5.375   6.036  10.676 -0.1441  0.4723  0.4308
  109OSM   H15B11160   5.335   6.099  10.521 -1.2653  0.5656  1.8505
  109OSM   H15C11161   5.449   6.190  10.607 -0.8002  0.9732 -2.9516
  109OSM    C1411162   5.657   6.007  10.617 -0.3258  0.6103 -0.2685
  109OSM   H14A11163   5.695   6.108  10.613 -0.5893  0.6795 -1.1100
  109OSM   H14B11164   5.734   5.940  10.581 -1.3293  0.5181 -2.4221
  109OSM   H14C11165   5.638   5.978  10.719  0.1508 -1.0951 -0.6365
  109OSM    C1311166   5.476   5.869  10.541 -0.3487  0.3269 -0.6894
  109OSM   H13A11167   5.392   5.867  10.474 -1.3876  0.5929  0.5533
  109OSM   H13B11168   5.444   5.825  10.635 -0.2773 -1.2151 -1.3645
  109OSM   H13C11169   5.545   5.801  10.494  2.2899  2.0516  0.4372
  109OSM    C1211170   5.557   6.032  10.391  0.0857  0.4784  0.4268
  109OSM   H12A11171   5.577   6.137  10.373  0.8060  0.0801 -1.3206
  109OSM   H12B11172   5.461   6.023  10.342  0.3012  2.2392 -0.4292
  109OSM    C1111173   5.649   5.942  10.299 -0.0713  0.3071  0.5735
  109OSM   H11A11174   5.752   5.945  10.340  0.7732  0.7556 -1.4349
  109OSM   H11B11175   5.671   5.986  10.199 -1.7922 -0.2595 -0.0878
  109OSM      P11176   5.688   5.687  10.258 -0.0493  0.1265 -0.1543
  109OSM    O1311177   5.795   5.670  10.357  0.0221 -0.1299  0.1744
  109OSM    O1411178   5.607   5.568  10.224 -0.5210 -0.7426  0.5772
  109OSM    O1111179   5.773   5.731  10.133  0.3534 -0.3964  0.3565
  109OSM    O1211180   5.592   5.813  10.278 -0.7851  0.3731 -0.0172
  109OSM    C1S11181   5.697   5.732  10.012 -0.0071  0.0765 -0.4499
  109OSM    H1S11182   5.632   5.823  10.011 -0.6130 -0.3217  0.7058
  109OSM    H1T11183   5.629   5.645  10.001  0.9018 -0.7759  0.5880
  109OSM     NF11184   5.714   5.757   9.771 -0.7718 -0.1231 -0.1435
  109OSM    HNF11185   5.665   5.687   9.719 -1.5726  0.9634 -0.8883
  109OSM    C2S11186   5.789   5.717   9.888 -0.4176 -0.8114 -0.8201
  109OSM    H2S11187   5.869   5.794   9.899 -1.6458  0.7638 -2.2483
  109OSM    C3S11188   5.854   5.580   9.878 -0.8383 -0.1291  0.4070
  109OSM    H3S11189   5.778   5.499   9.889 -0.7092 -0.1574  1.1534
  109OSM     O311190   5.944   5.546   9.991 -0.1324 -0.2543  0.3290
  109OSM    HO311191   5.930   5.619  10.053  1.8448  0.5090 -0.0464
  109OSM    C4S11192   5.930   5.556   9.752 -0.0028 -0.5695 -0.2997
  109OSM    H4S11193   5.880   5.481   9.688 -0.5316  0.4380 -1.0988
  109OSM    C5S11194   6.046   5.611   9.714 -0.2657 -0.1722 -0.0581
  109OSM    H5S11195   6.100   5.683   9.778 -0.4500 -0.1260  0.0469
  109OSM    C6S11196   6.108   5.587   9.583 -0.8047 -0.0227  0.5750
  109OSM    H6S11197   6.153   5.486   9.579  1.5007  0.9804 -1.2680
  109OSM    H6T11198   6.196   5.656   9.585 -0.9689  0.2044  0.1217
  109OSM    C7S11199   6.026   5.596   9.458 -0.3951 -0.1479  0.0847
  109OSM    H7S11200   5.964   5.688   9.466  0.6010  0.4165  1.8131
  109OSM    H7T11201   5.965   5.503   9.463 -0.0811 -0.3040  1.5016
  109OSM    C8S11202   6.106   5.593   9.327  0.0009 -0.3255 -0.1003
  109OSM    H8S11203   6.152   5.493   9.336 -2.1070 -1.3235  0.2354
  109OSM    H8T11204   6.183   5.671   9.312  0.7936 -1.0701  0.0222
  109OSM    C9S11205   5.996   5.606   9.219  1.2185  0.1350  0.4884
  109OSM    H9S11206   5.984   5.715   9.198 -1.7399  0.2443  2.1465
  109OSM    H9T11207   5.890   5.596   9.252  1.8955  2.6008  4.1000
  109OSM   C10S11208   6.039   5.539   9.088  0.2608 -0.9411 -0.4335
  109OSM   H10S11209   6.053   5.431   9.108  0.9221 -0.9369 -0.8539
  109OSM   H10T11210   6.142   5.565   9.054 -0.4351 -1.4255 -3.0928
  109OSM   C11S11211   5.946   5.566   8.972 -0.2360  0.2915 -0.4950
  109OSM   H11S11212   5.986   5.651   8.912  1.6157 -0.0706  0.1658
  109OSM   H11T11213   5.848   5.603   9.011  0.1288  1.1636 -0.3926
  109OSM   C12S11214   5.915   5.435   8.896 -0.1334  0.0004 -0.8648
  109OSM   H12S11215   5.859   5.359   8.954  2.2738 -1.3659 -0.1958
  109OSM   H12T11216   6.011   5.379   8.891  0.9476  1.6296  0.2696
  109OSM   C13S11217   5.856   5.453   8.755  0.4909  0.5336 -0.0048
  109OSM   H13S11218   5.825   5.352   8.720 -0.7236  0.2010  1.8764
  109OSM   H13T11219   5.935   5.503   8.695 -0.3036  0.0672 -1.4846
  109OSM   C14S11220   5.734   5.551   8.756  0.1395  0.0368 -0.3659
  109OSM   H14S11221   5.781   5.650   8.777  0.4070 -0.0348 -0.6264
  109OSM   H14T11222   5.656   5.520   8.829 -0.8856 -0.7445 -1.7415
  109OSM   C15S11223   5.653   5.546   8.625  0.0539 -0.5535  0.2299
  109OSM   H15S11224   5.624   5.443   8.595  2.2864 -1.1389 -0.1396
  109OSM   H15T11225   5.733   5.591   8.562 -0.0143  0.6120  0.9602
  109OSM   C16S11226   5.532   5.640   8.611  0.2114  0.2101 -0.0595
  109OSM   H16S11227   5.495   5.617   8.508  1.0448 -1.6222  0.0133
  109OSM   H16T11228   5.566   5.745   8.624  0.7139  0.1289 -0.6663
  109OSM   C17S11229   5.405   5.615   8.694  0.6010  0.0741  0.3236
  109OSM   H17S11230   5.424   5.624   8.803 -2.6880 -2.5746  1.3028
  109OSM   H17T11231   5.367   5.511   8.680  1.8797 -0.5214  1.0884
  109OSM   C18S11232   5.297   5.721   8.657  0.0197 -0.4389 -0.2858
  109OSM   H18S11233   5.354   5.816   8.651  1.1461 -0.9959  1.0986
  109OSM   H18T11234   5.221   5.725   8.738  0.8139  0.6511  0.4407
  109OSM   H18U11235   5.245   5.695   8.563  0.2900  1.3371 -0.9619
  109OSM    C1F11236   5.690   5.883   9.730  0.1874  0.1217  0.3031
  109OSM     OF11237   5.741   5.977   9.798  0.0613 -0.8423  0.2388
  109OSM    C2F11238   5.613   5.902   9.607 -0.7426  0.3983 -0.1028
  109OSM    H2F11239   5.578   6.007   9.609  1.6013  1.2644 -1.5291
  109OSM    H2G11240   5.524   5.836   9.613 -2.2503  2.2790 -0.9518
  109OSM    C3F11241   5.681   5.876   9.474 -0.1586  0.4826 -0.7102
  109OSM    H3F11242   5.732   5.777   9.475 -1.2928 -0.1633  1.4780
  109OSM    H3G11243   5.760   5.948   9.445  2.3340 -1.4227  0.9687
  109OSM    C4F11244   5.576   5.877   9.362 -0.4660 -0.0901 -0.7373
  109OSM    H4F11245   5.535   5.980   9.349  0.8493  0.6806  0.9176
  109OSM    H4G11246   5.505   5.796   9.389 -1.2043  1.1028  1.1592
  109OSM    C5F11247   5.640   5.840   9.225  0.4240 -0.3140 -0.0753
  109OSM    H5F11248   5.560   5.810   9.154  0.5894  0.1200 -0.4516
  109OSM    H5G11249   5.711   5.755   9.230  1.4111  0.5453  0.7311
  109OSM    C6F11250   5.723   5.948   9.149 -0.4563  0.1867 -0.0125
  109OSM    H6F11251   5.815   5.959   9.210 -0.8014  1.7817  0.2566
  109OSM    H6G11252   5.671   6.046   9.146 -1.8069 -0.4300  1.5759
  109OSM    C7F11253   5.767   5.904   9.006  0.8339 -0.3142  0.6690
  109OSM    H7F11254   5.817   5.806   9.017  1.4623 -0.1203 -0.3784
  109OSM    H7G11255   5.837   5.980   8.966  0.0404 -0.8503 -1.8817
  109OSM    C8F11256   5.656   5.891   8.894 -0.1720  0.4826  0.5788
  109OSM    H8F11257   5.598   5.797   8.909  1.4609 -1.6312 -4.3938
  109OSM    H8G11258   5.716   5.882   8.801 -0.6334 -1.0239  0.4014
  109OSM    C9F11259   5.568   6.017   8.897 -0.4574  0.5127  0.0504
  109OSM    H9F11260   5.497   6.006   8.980  1.2819 -1.5110  1.3452
  109OSM   C10F11261   5.568   6.130   8.823  1.0435 -0.3271  1.1507
  109OSM   H10F11262   5.495   6.207   8.852  0.6632 -0.9547  1.8929
  109OSM   C11F11263   5.656   6.163   8.705  0.1479  0.0968  0.2153
  109OSM   H11F11264   5.757   6.121   8.724 -0.1825 -0.9119 -0.2038
  109OSM   H11G11265   5.672   6.273   8.696 -1.0110  0.2431 -0.2818
  109OSM   C12F11266   5.602   6.110   8.570  0.3101 -0.0292 -0.2062
  109OSM   H12F11267   5.582   6.003   8.589  0.0605  0.1078  0.3239
  109OSM   H12G11268   5.677   6.106   8.487  1.7218  2.4609  0.8298
  109OSM   C13F11269   5.463   6.160   8.518 -0.6548  0.0265 -0.2980
  109OSM   H13F11270   5.390   6.191   8.595 -1.0046 -0.0248 -0.6068
  109OSM   H13G11271   5.418   6.101   8.435  2.2094 -1.1537 -1.1783
  109OSM   C14F11272   5.479   6.294   8.447  0.1942  0.3166  0.2752
  109OSM   H14F11273   5.540   6.277   8.356  0.1166  1.1587  0.0485
  109OSM   H14G11274   5.535   6.367   8.510  2.5734 -1.2421  0.0773
  109OSM   C15F11275   5.348   6.361   8.403 -0.2591 -0.2675 -0.2735
  109OSM   H15F11276   5.291   6.410   8.484  0.9939 -2.0409  1.7844
  109OSM   H15G11277   5.288   6.289   8.343  1.3232  0.2797 -2.7007
  109OSM   C16F11278   5.376   6.466   8.293 -0.1369 -0.5762 -0.6254
  109OSM   H16F11279   5.284   6.495   8.238  0.3416  0.6969 -0.7749
  109OSM   H16G11280   5.443   6.413   8.222 -1.0048  1.0330 -2.7446
  109OSM   C17F11281   5.452   6.597   8.335  0.2178  0.1888 -0.4121
  109OSM   H17F11282   5.547   6.557   8.377 -1.1929 -2.7251  0.2273
  109OSM   H17G11283   5.402   6.641   8.424 -1.8154 -3.1711  0.2860
  109OSM   C18F11284   5.471   6.706   8.236 -0.5030 -0.0061  0.1754
  109OSM   H18F11285   5.521   6.655   8.152 -4.3354 -3.3126 -0.4246
  109OSM   H18G11286   5.536   6.778   8.292 -0.9512  0.0515  0.6362
  109OSM   H18H11287   5.374   6.746   8.198 -2.0852 -0.3630  3.4096
  110OSM      N11288   0.502   4.595  10.443  0.1108  0.0577 -1.2830
  110OSM    C1511289   0.495   4.469  10.522  0.1487  0.2913 -0.5032
  110OSM   H15A11290   0.591   4.445  10.565 -0.3076 -1.9518 -0.5891
  110OSM   H15B11291   0.460   4.384  10.465 -1.5410 -0.0461  0.9219
  110OSM   H15C11292   0.433   4.485  10.609 -0.1274  1.0864 -0.8421
  110OSM    C1411293   0.363   4.626  10.398 -0.1861  0.8950  0.4184
  110OSM   H14A11294   0.319   4.532  10.371 -0.8138  1.4231 -0.4342
  110OSM   H14B11295   0.367   4.705  10.325 -0.1852  0.0946 -0.4596
  110OSM   H14C11296   0.303   4.656  10.484 -0.8454  0.2962  0.1715
  110OSM    C1311297   0.537   4.719  10.517  0.1962 -0.0633 -0.0943
  110OSM   H13A11298   0.624   4.710  10.581 -0.1766 -2.6789  0.1734
  110OSM   H13B11299   0.463   4.749  10.590  0.1267 -1.6479  0.5494
  110OSM   H13C11300   0.553   4.805  10.454 -2.8442  1.8140  1.4655
  110OSM    C1211301   0.599   4.576  10.326  0.3283 -0.0853  0.2451
  110OSM   H12A11302   0.568   4.497  10.259  0.0992  0.4026 -0.2418
  110OSM   H12B11303   0.693   4.536  10.360 -0.0985 -1.3338  0.0018
  110OSM    C1111304   0.632   4.689  10.233 -0.6270 -0.4452  0.1129
  110OSM   H11A11305   0.541   4.735  10.189 -1.1017  0.8775  2.2806
  110OSM   H11B11306   0.680   4.635  10.149 -1.5536 -0.0976 -0.6474
  110OSM      P11307   0.723   4.943  10.257  0.2631 -0.3478 -0.2866
  110OSM    O1311308   0.580   4.987  10.287 -0.0062  0.0105  0.4509
  110OSM    O1411309   0.827   5.011  10.335 -0.1300  0.0879 -0.0951
  110OSM    O1111310   0.748   4.953  10.106 -0.3742  0.3577 -0.0840
  110OSM    O1211311   0.727   4.786  10.282  0.4826  0.0229 -0.5488
  110OSM    C1S11312   0.851   4.889  10.032  0.3347 -0.1045 -0.0052
  110OSM    H1S11313   0.897   4.801  10.082  0.5574 -0.0613 -0.1314
  110OSM    H1T11314   0.931   4.964  10.015 -0.0081  0.1355 -0.5708
  110OSM     NF11315   0.891   4.751   9.817  0.6806 -0.1486 -0.4058
  110OSM    HNF11316   0.930   4.777   9.729  1.2701 -1.3319 -0.5239
  110OSM    C2S11317   0.802   4.846   9.894  0.5253 -1.1172  0.0075
  110OSM    H2S11318   0.706   4.790   9.895  0.9899 -1.9769  1.8650
  110OSM    C3S11319   0.773   4.978   9.816  0.0664  0.0816 -0.8275
  110OSM    H3S11320   0.869   5.030   9.798 -0.0683  1.6951  2.2999
  110OSM     O311321   0.701   5.079   9.884  1.1107  0.1694  0.3553
  110OSM    HO311322   0.714   5.050   9.975  0.1167  0.8480  0.7445
  110OSM    C4S11323   0.708   4.963   9.684 -0.3105 -0.4472 -0.5094
  110OSM    H4S11324   0.780   4.954   9.602 -1.1949  0.2641 -1.3778
  110OSM    C5S11325   0.581   4.923   9.655 -0.1744  0.0596 -0.4841
  110OSM    H5S11326   0.499   4.914   9.729 -0.2685  1.3318 -0.4077
  110OSM    C6S11327   0.517   4.896   9.522  0.6159  1.1476 -0.7753
  110OSM    H6S11328   0.462   4.989   9.496 -1.1456  0.2722 -0.3058
  110OSM    H6T11329   0.445   4.812   9.518  1.9895 -0.0959 -0.4156
  110OSM    C7S11330   0.627   4.866   9.419 -0.0960 -0.1208  0.6745
  110OSM    H7S11331   0.684   4.781   9.463  4.5476  1.3494 -1.9331
  110OSM    H7T11332   0.704   4.945   9.410  1.9022 -2.1866 -2.6561
  110OSM    C8S11333   0.587   4.826   9.277 -0.0290 -0.6337  0.3722
  110OSM    H8S11334   0.522   4.908   9.239  1.2367  1.5630  2.6416
  110OSM    H8T11335   0.531   4.730   9.286 -0.8666 -0.0839  1.3015
  110OSM    C9S11336   0.699   4.814   9.173 -0.2117 -0.1888  0.3257
  110OSM    H9S11337   0.772   4.742   9.213  1.0695  1.0303  0.2628
  110OSM    H9T11338   0.752   4.911   9.159 -0.7950  0.3626  1.6450
  110OSM   C10S11339   0.653   4.769   9.037  0.0096  0.0094 -0.1321
  110OSM   H10S11340   0.614   4.858   8.983  2.5154  0.7464 -0.8758
  110OSM   H10T11341   0.585   4.681   9.043 -0.3024  0.3280  1.3459
  110OSM   C11S11342   0.772   4.718   8.948 -0.8525  0.1691  0.7816
  110OSM   H11S11343   0.798   4.621   8.996 -1.4945 -1.8514 -2.6216
  110OSM   H11T11344   0.851   4.795   8.956 -1.0563  0.3479  1.1297
  110OSM   C12S11345   0.734   4.707   8.802 -0.3376  0.2706  0.0312
  110OSM   H12S11346   0.720   4.812   8.768 -0.9521  0.7175  1.5552
  110OSM   H12T11347   0.635   4.660   8.788 -0.5641  1.3415 -2.4851
  110OSM   C13S11348   0.817   4.599   8.723 -0.1086 -0.0304  0.0947
  110OSM   H13S11349   0.789   4.495   8.752  0.6864 -0.1696  0.3836
  110OSM   H13T11350   0.924   4.598   8.750 -0.5210  0.9947  1.9127
  110OSM   C14S11351   0.808   4.630   8.570 -0.6455  0.1438  0.7411
  110OSM   H14S11352   0.852   4.728   8.544 -2.4245  0.5940 -0.8810
  110OSM   H14T11353   0.703   4.627   8.532 -1.2624 -0.3100  2.3766
  110OSM   C15S11354   0.873   4.527   8.485 -0.0395  0.0315 -0.6073
  110OSM   H15S11355   0.808   4.437   8.473  1.6032 -1.4432  0.8617
  110OSM   H15T11356   0.964   4.485   8.535 -0.1724 -1.9645 -1.9178
  110OSM   C16S11357   0.903   4.572   8.335  0.0287 -1.0426  0.5644
  110OSM   H16S11358   0.982   4.650   8.344 -2.4536  1.6934  0.3936
  110OSM   H16T11359   0.811   4.621   8.296  0.1994 -0.5453  0.7775
  110OSM   C17S11360   0.933   4.456   8.240 -0.9382  0.3372  0.1467
  110OSM   H17S11361   0.841   4.395   8.226 -0.1166 -0.6266 -1.4011
  110OSM   H17T11362   1.001   4.384   8.290  1.1992  2.2957  0.2031
  110OSM   C18S11363   0.981   4.495   8.096  0.0083  0.2690 -0.7686
  110OSM   H18S11364   1.090   4.518   8.100  0.1938 -0.2835 -2.1710
  110OSM   H18T11365   0.915   4.570   8.048  1.5260  1.1027 -1.6371
  110OSM   H18U11366   0.985   4.400   8.038  1.9710 -1.0141  1.3057
  110OSM    C1F11367   0.919   4.624   9.859 -0.5682  0.2966  0.1027
  110OSM     OF11368   0.889   4.589   9.974  0.4060  0.4732 -0.0355
  110OSM    C2F11369   0.993   4.535   9.759  0.1349  0.1412 -0.1706
  110OSM    H2F11370   1.067   4.475   9.817 -0.6321  0.9233  1.6986
  110OSM    H2G11371   1.056   4.593   9.687  0.1878 -0.9925 -1.0570
  110OSM    C3F11372   0.904   4.427   9.690 -0.5293 -0.0273  0.1311
  110OSM    H3F11373   0.844   4.368   9.763 -3.5352 -0.0099 -2.1446
  110OSM    H3G11374   0.979   4.360   9.643  1.7471  2.3261  0.2304
  110OSM    C4F11375   0.805   4.482   9.585  0.1569 -0.2481  0.0265
  110OSM    H4F11376   0.874   4.525   9.508  0.5215  0.4506  0.7244
  110OSM    H4G11377   0.744   4.561   9.635  1.7469 -0.1618  1.9636
  110OSM    C5F11378   0.725   4.366   9.530  0.4216 -0.2466 -0.4552
  110OSM    H5F11379   0.678   4.322   9.620  2.0147  2.0240  1.6173
  110OSM    H5G11380   0.799   4.287   9.501  0.6055  0.4147 -1.8988
  110OSM    C6F11381   0.617   4.402   9.424 -0.3324 -0.0554 -0.1352
  110OSM    H6F11382   0.556   4.490   9.455  1.4427  1.0978  0.2286
  110OSM    H6G11383   0.539   4.323   9.420  0.2699 -0.6162 -3.0266
  110OSM    C7F11384   0.662   4.442   9.286  0.6058 -0.0077  0.1471
  110OSM    H7F11385   0.750   4.378   9.263  0.4187 -0.6987  1.2878
  110OSM    H7G11386   0.695   4.548   9.282 -2.7080  1.1682  1.2038
  110OSM    C8F11387   0.552   4.409   9.179  0.0085 -0.7959  0.1599
  110OSM    H8F11388   0.575   4.472   9.091 -1.1367 -0.6292 -0.0322
  110OSM    H8G11389   0.456   4.456   9.208 -0.6964 -1.1921 -1.4614
  110OSM    C9F11390   0.540   4.258   9.156  0.4074  0.6783 -0.3894
  110OSM    H9F11391   0.523   4.208   9.252  1.2417  2.7119  0.8686
  110OSM   C10F11392   0.562   4.197   9.035 -0.1165  0.0776 -0.1938
  110OSM   H10F11393   0.532   4.091   9.038 -1.6100  0.4674 -0.3992
  110OSM   C11F11394   0.602   4.269   8.909 -0.2210  0.1986 -0.1465
  110OSM   H11F11395   0.698   4.240   8.863  0.0395  0.0697  0.4772
  110OSM   H11G11396   0.610   4.380   8.918  0.8649  0.0159  1.6040
  110OSM   C12F11397   0.506   4.226   8.796 -0.2719  0.3288  0.4586
  110OSM   H12F11398   0.498   4.304   8.717  0.6468  1.1425  1.1432
  110OSM   H12G11399   0.400   4.226   8.830 -0.7708  0.6865 -1.0401
  110OSM   C13F11400   0.528   4.079   8.743  0.2245 -0.7475  0.3852
  110OSM   H13F11401   0.548   4.017   8.833  0.4215  0.3546  1.1287
  110OSM   H13G11402   0.625   4.074   8.689 -0.1058 -0.8713 -0.1940
  110OSM   C14F11403   0.410   4.019   8.659 -0.5490 -0.0677  0.3148
  110OSM   H14F11404   0.315   4.023   8.716 -0.7240  0.1084  0.0130
  110OSM   H14G11405   0.430   3.916   8.620 -1.4546  0.0351 -0.4640
  110OSM   C15F11406   0.382   4.100   8.533  0.3833  0.3256 -0.0462
  110OSM   H15F11407   0.478   4.114   8.480 -0.2586  2.0147 -0.8347
  110OSM   H15G11408   0.357   4.204   8.566 -0.8338 -0.6267  2.2848
  110OSM   C16F11409   0.287   4.039   8.443 -0.1735  0.2483  0.4469
  110OSM   H16F11410   0.242   4.123   8.386 -0.1841 -0.7425 -1.0748
  110OSM   H16G11411   0.216   3.979   8.503  0.7756 -1.2399  0.1502
  110OSM   C17F11412   0.354   3.946   8.332 -0.4528 -0.1739 -0.4702
  110OSM   H17F11413   0.384   3.859   8.395 -0.0820  1.1203  1.2216
  110OSM   H17G11414   0.439   3.994   8.280  0.7218 -0.2817  1.2459
  110OSM   C18F11415   0.247   3.903   8.234 -0.5401  0.2103 -0.3790
  110OSM   H18F11416   0.178   3.825   8.273 -0.8692  0.3531 -0.6702
  110OSM   H18G11417   0.291   3.863   8.139 -0.6138 -3.3739  0.9186
  110OSM   H18H11418   0.183   3.991   8.213 -0.2631  0.8671  1.3729
  111OSM      N11419   5.744   3.861  10.790 -0.0005 -0.7231 -0.6258
  111OSM    C1511420   5.617   3.930  10.752 -0.5992 -0.1242  0.6062
  111OSM   H15A11421   5.564   3.974  10.835  1.0438  3.6997 -0.1869
  111OSM   H15B11422   5.556   3.849  10.717 -0.6098 -0.8591  2.2025
  111OSM   H15C11423   5.638   4.004  10.677 -0.5993  1.4565  2.0886
  111OSM    C1411424   5.837   3.960  10.861  0.4625  0.6859  0.5923
  111OSM   H14A11425   5.924   3.905  10.892  0.2787  0.4303  0.6619
  111OSM   H14B11426   5.791   4.002  10.949  1.4288  3.1032  0.0348
  111OSM   H14C11427   5.868   4.038  10.793  2.1537 -1.3710 -1.1653
  111OSM    C1311428   5.723   3.752  10.893 -0.0998  0.4506  0.6709
  111OSM   H13A11429   5.821   3.712  10.913  0.3126  1.6807  1.1548
  111OSM   H13B11430   5.671   3.664  10.858 -2.6775  1.3103  2.0972
  111OSM   H13C11431   5.679   3.788  10.984 -2.3695  0.8977 -0.5377
  111OSM    C1211432   5.805   3.803  10.664 -0.1702 -0.4554  0.2324
  111OSM   H12A11433   5.911   3.790  10.681 -0.3148  0.0346  1.7225
  111OSM   H12B11434   5.799   3.886  10.596 -0.9599  0.6253  1.5544
  111OSM    C1111435   5.743   3.685  10.605 -0.9613  0.4901  0.1452
  111OSM   H11A11436   5.747   3.675  10.495  0.9216 -0.7571  0.2818
  111OSM   H11B11437   5.634   3.693  10.624 -0.7537  0.5807  1.3689
  111OSM      P11438   5.943   3.532  10.674  0.1868 -0.1199  0.3020
  111OSM    O1311439   6.017   3.635  10.756 -0.0035 -0.7730  0.0858
  111OSM    O1411440   5.955   3.389  10.715 -0.1669 -0.5839 -0.2906
  111OSM    O1111441   5.985   3.539  10.519  0.0591  0.2155 -0.0708
  111OSM    O1211442   5.793   3.569  10.673 -0.0095  0.6525  0.0698
  111OSM    C1S11443   5.902   3.456  10.430  0.1772 -0.1884  0.5318
  111OSM    H1S11444   5.797   3.489  10.438  0.6130  1.2962  0.4774
  111OSM    H1T11445   5.904   3.346  10.448 -1.0138 -0.5156 -1.1181
  111OSM     NF11446   5.866   3.405  10.189 -0.2565 -0.2243 -0.1176
  111OSM    HNF11447   5.909   3.322  10.153  0.3978  0.2565 -0.4558
  111OSM    C2S11448   5.949   3.477  10.280 -0.8497 -0.1166  0.7907
  111OSM    H2S11449   5.941   3.584  10.253 -0.2438  0.2224  1.8879
  111OSM    C3S11450   6.103   3.440  10.273 -0.1513  0.0764 -0.0115
  111OSM    H3S11451   6.136   3.338  10.303  3.1429  1.3265  1.0114
  111OSM     O311452   6.184   3.519  10.359  0.1845 -0.2281  0.3134
  111OSM    HO311453   6.115   3.564  10.409  1.2091  0.6731  0.9531
  111OSM    C4S11454   6.146   3.468  10.129  0.7056 -0.5018 -0.6187
  111OSM    H4S11455   6.146   3.575  10.102 -0.4474 -0.7078 -1.4970
  111OSM    C5S11456   6.181   3.381  10.034 -0.1972  0.1957 -0.1375
  111OSM    H5S11457   6.184   3.273  10.054  0.5777  0.5987  2.3768
  111OSM    C6S11458   6.213   3.418   9.897  0.2995  0.2354 -0.1930
  111OSM    H6S11459   6.321   3.394   9.888  0.1023 -0.6714 -0.2468
  111OSM    H6T11460   6.193   3.524   9.869  0.4634  0.1127 -0.7879
  111OSM    C7S11461   6.137   3.330   9.797  0.2970 -0.0195 -1.2322
  111OSM    H7S11462   6.030   3.357   9.810  0.1156 -1.4626  0.7688
  111OSM    H7T11463   6.129   3.224   9.832 -2.7086  0.3170 -0.5866
  111OSM    C8S11464   6.182   3.358   9.654 -0.0226  1.0697  0.5080
  111OSM    H8S11465   6.292   3.367   9.644 -0.0144  1.5255  0.9271
  111OSM    H8T11466   6.150   3.463   9.636  0.3415  1.6880  3.0001
  111OSM    C9S11467   6.136   3.260   9.551  0.0582  0.1223 -0.5749
  111OSM    H9S11468   6.026   3.247   9.566  0.3146 -0.1814  1.2879
  111OSM    H9T11469   6.177   3.160   9.576 -1.0762 -0.4113 -0.7872
  111OSM   C10S11470   6.181   3.291   9.406  0.1793 -0.1628  0.4196
  111OSM   H10S11471   6.287   3.323   9.405  0.2865 -0.4376 -1.3164
  111OSM   H10T11472   6.109   3.360   9.357  0.6800 -1.0892 -1.7603
  111OSM   C11S11473   6.201   3.164   9.327 -0.8003 -0.1429  0.0108
  111OSM   H11S11474   6.119   3.092   9.343 -1.6546  0.7143 -0.4176
  111OSM   H11T11475   6.298   3.120   9.361 -1.4811 -2.0976 -0.4797
  111OSM   C12S11476   6.211   3.189   9.172  0.1908 -0.1190 -0.8395
  111OSM   H12S11477   6.294   3.258   9.148 -2.4462  2.7011 -2.4860
  111OSM   H12T11478   6.128   3.258   9.148  0.7369  1.0837  0.5558
  111OSM   C13S11479   6.208   3.071   9.085 -0.8208  0.5358 -0.3971
  111OSM   H13S11480   6.128   3.003   9.122  1.4170 -1.3218  1.3617
  111OSM   H13T11481   6.299   3.009   9.098  0.1631  1.7313 -1.3123
  111OSM   C14S11482   6.192   3.107   8.943 -0.1147  0.4104 -0.2583
  111OSM   H14S11483   6.233   3.019   8.888  0.7119  1.9320 -2.2001
  111OSM   H14T11484   6.255   3.192   8.908  2.1712 -0.6170  1.1306
  111OSM   C15S11485   6.040   3.137   8.905 -0.1284  0.1372  0.9778
  111OSM   H15S11486   5.999   3.227   8.956  0.1637  0.6824  0.2523
  111OSM   H15T11487   5.975   3.049   8.922 -2.4084  1.8024  1.2865
  111OSM   C16S11488   6.017   3.181   8.761  0.7509 -1.1492 -0.6120
  111OSM   H16S11489   6.055   3.102   8.693 -1.6248 -1.9270 -1.1561
  111OSM   H16T11490   6.068   3.277   8.737 -1.6407  0.6683  1.0872
  111OSM   C17S11491   5.865   3.221   8.733  0.0650 -0.3723 -0.5175
  111OSM   H17S11492   5.842   3.303   8.805  0.7073  0.3209 -1.0792
  111OSM   H17T11493   5.801   3.132   8.750  0.4224 -0.7117 -0.9114
  111OSM   C18S11494   5.845   3.275   8.591 -0.0829 -0.4492  1.1395
  111OSM   H18S11495   5.914   3.361   8.582 -0.3601 -0.1295  2.0206
  111OSM   H18T11496   5.736   3.297   8.580 -0.6815 -3.1878  0.8027
  111OSM   H18U11497   5.866   3.199   8.512  0.1604  0.9781 -0.2212
  111OSM    C1F11498   5.737   3.423  10.160  0.0198 -0.3873  0.8243
  111OSM     OF11499   5.670   3.510  10.218 -0.1050 -0.5728  0.3884
  111OSM    C2F11500   5.671   3.337  10.045  0.0156 -0.1561 -0.2254
  111OSM    H2F11501   5.629   3.240  10.078 -0.8920  0.4910  0.5800
  111OSM    H2G11502   5.752   3.319   9.971  1.0696 -0.5998  0.9933
  111OSM    C3F11503   5.550   3.418   9.992 -0.2782  0.2482  0.3195
  111OSM    H3F11504   5.569   3.527   9.976 -0.7796  0.1901 -0.6758
  111OSM    H3G11505   5.461   3.419  10.058  0.0294 -1.1029  0.7938
  111OSM    C4F11506   5.499   3.357   9.868 -0.1643  0.4028  0.0851
  111OSM    H4F11507   5.472   3.253   9.899 -1.0057  0.9789  1.3741
  111OSM    H4G11508   5.576   3.366   9.788 -0.5003  3.4795 -0.0040
  111OSM    C5F11509   5.369   3.426   9.810 -0.3022 -0.3828 -0.2739
  111OSM    H5F11510   5.375   3.536   9.822 -0.2195 -0.4383  0.2247
  111OSM    H5G11511   5.282   3.383   9.865  0.6371 -0.7947  0.9264
  111OSM    C6F11512   5.353   3.389   9.660 -0.0342  0.2567 -0.8587
  111OSM    H6F11513   5.322   3.284   9.642 -1.7090  0.6914 -0.7523
  111OSM    H6G11514   5.454   3.411   9.621  0.4105  1.2964  0.7688
  111OSM    C7F11515   5.263   3.489   9.589  0.4430  0.1079 -0.5093
  111OSM    H7F11516   5.301   3.587   9.625 -0.7152  0.0171  1.0694
  111OSM    H7G11517   5.156   3.478   9.619  0.5404  0.4789 -0.0093
  111OSM    C8F11518   5.284   3.486   9.442 -0.5458  0.2157 -0.5298
  111OSM    H8F11519   5.392   3.498   9.419 -0.4120 -0.1601 -0.1197
  111OSM    H8G11520   5.239   3.581   9.407 -1.7612 -0.3992 -0.6834
  111OSM    C9F11521   5.225   3.366   9.373  0.0213  0.1728 -0.3004
  111OSM    H9F11522   5.208   3.274   9.430 -0.8976  0.4048 -0.1813
  111OSM   C10F11523   5.165   3.379   9.253  0.0431 -0.1771  0.2381
  111OSM   H10F11524   5.128   3.294   9.194  1.9771  0.0369 -1.3869
  111OSM   C11F11525   5.160   3.507   9.173  0.2550 -0.5264  0.9067
  111OSM   H11F11526   5.248   3.570   9.193 -0.5347  0.3822  1.6177
  111OSM   H11G11527   5.064   3.563   9.172  1.7342  2.1788 -0.4585
  111OSM   C12F11528   5.170   3.458   9.026  0.3197  0.1836  0.7297
  111OSM   H12F11529   5.254   3.386   9.011 -0.2084 -0.2489 -0.2060
  111OSM   H12G11530   5.195   3.547   8.964  0.3375  1.3416  2.3315
  111OSM   C13F11531   5.042   3.408   8.955  0.4545 -0.0279  0.9205
  111OSM   H13F11532   4.979   3.498   8.939 -0.6294 -0.8025  0.6924
  111OSM   H13G11533   4.983   3.336   9.016 -2.3651  1.1918 -0.1872
  111OSM   C14F11534   5.088   3.344   8.825 -0.0039 -0.2279 -0.1129
  111OSM   H14F11535   5.144   3.249   8.842  2.1082  0.9400 -0.1541
  111OSM   H14G11536   5.156   3.416   8.775 -1.4557  0.8553 -0.5882
  111OSM   C15F11537   4.966   3.307   8.735 -0.5847 -0.6868  0.9159
  111OSM   H15F11538   4.913   3.399   8.703  0.9563 -0.5760 -1.5743
  111OSM   H15G11539   4.894   3.241   8.788 -3.0692  0.1946 -1.1639
  111OSM   C16F11540   5.017   3.250   8.606 -0.4495 -0.5522  0.4450
  111OSM   H16F11541   5.072   3.156   8.632  0.0173 -0.0707  1.2692
  111OSM   H16G11542   5.076   3.327   8.552 -1.6838 -1.9550 -3.1672
  111OSM   C17F11543   4.899   3.222   8.507  0.6360 -0.4784 -0.6677
  111OSM   H17F11544   4.951   3.225   8.409 -2.1537  1.1279 -2.2330
  111OSM   H17G11545   4.831   3.309   8.506  0.3035 -0.7254 -0.0097
  111OSM   C18F11546   4.830   3.088   8.527  0.8270  0.0955 -0.0288
  111OSM   H18F11547   4.898   3.001   8.517 -1.4282 -1.6989 -0.6081
  111OSM   H18G11548   4.745   3.076   8.456  0.6077  0.4419  0.1720
  111OSM   H18H11549   4.783   3.075   8.627 -0.1826  0.6179 -0.4146
  112OSM      N11550   1.016   1.388  10.615  0.1578 -1.0198  0.2828
  112OSM    C1511551   1.120   1.272  10.630 -0.6379 -0.1830 -0.2042
  112OSM   H15A11552   1.193   1.304  10.703 -0.8871 -0.4211  0.1521
  112OSM   H15B11553   1.172   1.270  10.536  0.3640  1.4361  0.2616
  112OSM   H15C11554   1.061   1.184  10.650  0.0334 -0.7205 -0.5566
  112OSM    C1411555   0.938   1.407  10.742  0.9265  0.8333  0.7850
  112OSM   H14A11556   0.883   1.500  10.741  1.8517  1.5345  3.9967
  112OSM   H14B11557   1.008   1.417  10.823  0.7408  1.6614  0.8576
  112OSM   H14C11558   0.879   1.320  10.767  0.1871  1.6600  2.0268
  112OSM    C1311559   1.105   1.513  10.608  0.3113  0.4775  0.4248
  112OSM   H13A11560   1.167   1.520  10.696  0.4813 -3.1541  0.7240
  112OSM   H13B11561   1.039   1.598  10.594 -1.9019 -1.4798 -2.0132
  112OSM   H13C11562   1.165   1.503  10.519 -0.9830 -0.1846 -0.4120
  112OSM    C1211563   0.926   1.373  10.495  0.2330  0.2137 -0.0227
  112OSM   H12A11564   0.875   1.467  10.483  2.3005  1.5181  0.9794
  112OSM   H12B11565   0.857   1.290  10.493 -1.5999  1.6153 -3.1332
  112OSM    C1111566   0.998   1.356  10.356 -0.6111 -0.0795  0.4024
  112OSM   H11A11567   1.027   1.456  10.319  2.2996 -1.1865 -0.5865
  112OSM   H11B11568   0.914   1.322  10.291  0.4327  0.0526 -1.0784
  112OSM      P11569   1.212   1.233  10.251 -0.2780 -0.0831  0.3608
  112OSM    O1311570   1.326   1.328  10.260 -0.0074 -0.2042  0.0196
  112OSM    O1411571   1.245   1.087  10.257  0.0712 -0.3016 -0.3308
  112OSM    O1111572   1.137   1.271  10.114  0.5006 -0.0445  0.4234
  112OSM    O1211573   1.096   1.252  10.351  0.6284  0.2109 -0.8101
  112OSM    C1S11574   1.058   1.173  10.048 -0.6624  0.0020 -0.3070
  112OSM    H1S11575   0.955   1.180  10.088 -0.0488  0.5228  1.2848
  112OSM    H1T11576   1.099   1.070  10.054  0.4451  0.3426 -1.5514
  112OSM     NF11577   0.947   1.110   9.828  0.7408 -0.7624  0.6951
  112OSM    HNF11578   0.966   1.016   9.802 -2.0059 -1.1232 -0.3141
  112OSM    C2S11579   1.058   1.186   9.886 -0.5209  0.5416  0.1780
  112OSM    H2S11580   1.047   1.295   9.867 -2.1914  0.3148 -0.3912
  112OSM    C3S11581   1.198   1.151   9.837 -0.8582 -1.1018  0.1301
  112OSM    H3S11582   1.231   1.045   9.850  0.7521 -0.5253  1.0079
  112OSM     O311583   1.292   1.242   9.896 -0.1807  0.1208  0.4505
  112OSM    HO311584   1.240   1.297   9.955 -0.6176  1.1106 -0.8078
  112OSM    C4S11585   1.188   1.180   9.695  0.3935  0.5936 -0.4433
  112OSM    H4S11586   1.207   1.282   9.660  1.3468  0.4789 -0.2735
  112OSM    C5S11587   1.181   1.080   9.598  0.1508  0.2410 -0.3148
  112OSM    H5S11588   1.169   0.976   9.633  2.5393  0.6793  2.1312
  112OSM    C6S11589   1.178   1.101   9.449 -0.3126  0.1563 -0.2935
  112OSM    H6S11590   1.238   1.192   9.431  0.0156  0.0780  0.3867
  112OSM    H6T11591   1.076   1.131   9.415 -0.1881 -0.3267 -1.1364
  112OSM    C7S11592   1.236   0.983   9.377  0.8181 -0.5699  0.2405
  112OSM    H7S11593   1.162   0.900   9.378 -0.1197  0.2273 -1.0919
  112OSM    H7T11594   1.335   0.950   9.416  1.8707  1.2500 -0.7915
  112OSM    C8S11595   1.258   1.002   9.231 -0.3119 -0.3919  0.0684
  112OSM    H8S11596   1.327   1.085   9.205 -0.6808 -0.4676 -1.2249
  112OSM    H8T11597   1.170   1.036   9.172 -0.5294  1.9486  1.6055
  112OSM    C9S11598   1.314   0.873   9.169 -0.0377 -0.2961 -0.1803
  112OSM    H9S11599   1.237   0.792   9.173  0.3044 -0.6032  0.4568
  112OSM    H9T11600   1.405   0.835   9.220  0.1246 -0.4415 -0.5736
  112OSM   C10S11601   1.359   0.897   9.021 -0.1811  0.0552 -0.0826
  112OSM   H10S11602   1.403   0.804   8.980  2.1097 -0.1112  2.4708
  112OSM   H10T11603   1.439   0.974   9.019 -0.4259  0.3002 -0.8431
  112OSM   C11S11604   1.250   0.940   8.926  0.3022 -0.5390 -0.1387
  112OSM   H11S11605   1.209   1.033   8.971 -1.7245 -0.5578 -1.7672
  112OSM   H11T11606   1.181   0.854   8.916 -1.2250  0.8452 -2.7553
  112OSM   C12S11607   1.297   0.959   8.787  0.4277  0.3355  0.1173
  112OSM   H12S11608   1.223   0.946   8.706  1.3896 -0.9311 -0.5928
  112OSM   H12T11609   1.375   0.886   8.756 -0.4582 -0.7068  0.2843
  112OSM   C13S11610   1.386   1.081   8.765 -0.3735 -0.0988  0.3830
  112OSM   H13S11611   1.460   1.086   8.847  0.8101  1.9146 -0.7371
  112OSM   H13T11612   1.317   1.168   8.772 -0.7728 -0.4809  1.3807
  112OSM   C14S11613   1.448   1.090   8.625 -0.1075  1.2846  0.0044
  112OSM   H14S11614   1.535   1.022   8.636 -2.4779 -2.2320 -1.0731
  112OSM   H14T11615   1.478   1.195   8.607  0.4047  0.9581 -1.1931
  112OSM   C15S11616   1.360   1.041   8.504  0.2381  0.0909 -0.3286
  112OSM   H15S11617   1.254   1.064   8.524  0.6442 -0.2707  2.5682
  112OSM   H15T11618   1.385   0.934   8.517 -0.5079 -0.1818 -1.0722
  112OSM   C16S11619   1.417   1.089   8.367  0.3760  0.1125 -0.9319
  112OSM   H16S11620   1.528   1.085   8.368  0.3753 -0.0264 -1.1879
  112OSM   H16T11621   1.391   1.196   8.354  1.0466  0.1815 -1.8535
  112OSM   C17S11622   1.351   1.011   8.248  0.3442 -0.3027  0.3078
  112OSM   H17S11623   1.254   1.062   8.232  1.8076  1.8873 -2.6567
  112OSM   H17T11624   1.338   0.901   8.263 -0.1989 -0.4257 -0.9933
  112OSM   C18S11625   1.429   1.031   8.122 -0.8055  0.1647  0.6965
  112OSM   H18S11626   1.464   1.135   8.105  0.5212 -0.5416 -1.1944
  112OSM   H18T11627   1.372   0.994   8.034 -0.8025  1.0829  0.3028
  112OSM   H18U11628   1.524   0.973   8.129 -1.1558 -0.8515 -1.9688
  112OSM    C1F11629   0.818   1.151   9.843  0.6240 -0.2119 -0.0232
  112OSM     OF11630   0.787   1.257   9.900 -0.2497  0.3819 -0.0136
  112OSM    C2F11631   0.705   1.057   9.798  0.1043 -1.0711  0.2697
  112OSM    H2F11632   0.613   1.087   9.853 -1.8677 -1.9660 -2.3479
  112OSM    H2G11633   0.730   0.952   9.825  0.1991 -0.5846  2.2834
  112OSM    C3F11634   0.680   1.081   9.648 -0.4763  0.3146 -0.9550
  112OSM    H3F11635   0.751   1.015   9.592  0.2990 -0.6201  1.0461
  112OSM    H3G11636   0.692   1.186   9.614 -1.6605  0.3856 -1.2025
  112OSM    C4F11637   0.532   1.049   9.611  0.2253  0.8956 -0.2387
  112OSM    H4F11638   0.463   1.132   9.635 -0.0002  0.0774  2.1656
  112OSM    H4G11639   0.493   0.961   9.667  1.1040 -0.5760 -1.8128
  112OSM    C5F11640   0.521   1.007   9.463  0.2999  0.4154 -0.1372
  112OSM    H5F11641   0.584   0.916   9.450  0.0152  0.5161 -2.8877
  112OSM    H5G11642   0.562   1.087   9.398  0.1588  0.5082 -0.1119
  112OSM    C6F11643   0.379   0.978   9.411  0.6308  0.5661  0.0739
  112OSM    H6F11644   0.320   1.072   9.399 -0.1582  0.0953  0.1825
  112OSM    H6G11645   0.319   0.922   9.486 -0.8409  0.7021 -0.9590
  112OSM    C7F11646   0.390   0.890   9.284 -0.3496 -0.4591  0.3007
  112OSM    H7F11647   0.462   0.805   9.284 -0.1052 -0.2578 -0.8643
  112OSM    H7G11648   0.441   0.957   9.213  0.5649 -0.1839  1.1903
  112OSM    C8F11649   0.256   0.835   9.229  0.1506  0.2212  0.4713
  112OSM    H8F11650   0.187   0.922   9.221  0.3702  0.3961  0.4536
  112OSM    H8G11651   0.227   0.771   9.315  3.8033 -0.5887  1.2656
  112OSM    C9F11652   0.284   0.766   9.094 -0.2486  0.6960 -0.1511
  112OSM    H9F11653   0.302   0.658   9.089 -1.8064  0.4569 -1.7820
  112OSM   C10F11654   0.290   0.828   8.976  0.4565 -0.6934 -0.1780
  112OSM   H10F11655   0.311   0.774   8.883 -1.0800 -2.1484  0.2749
  112OSM   C11F11656   0.283   0.975   8.952  0.8031  0.0317 -0.0911
  112OSM   H11F11657   0.365   1.016   8.889  0.1169  1.1857 -0.2521
  112OSM   H11G11658   0.312   1.029   9.045 -0.7778  1.4094 -0.3742
  112OSM   C12F11659   0.151   1.023   8.901  0.5994 -0.3377 -0.1262
  112OSM   H12F11660   0.162   1.133   8.894  0.8854 -0.3280  0.3890
  112OSM   H12G11661   0.063   1.000   8.965 -0.7849 -0.8590 -2.1344
  112OSM   C13F11662   0.104   0.967   8.767  0.4221  0.3420 -0.1884
  112OSM   H13F11663   0.071   0.861   8.781  1.6393 -0.0437 -0.0966
  112OSM   H13G11664   0.191   0.950   8.700  0.3850  0.3897 -0.2484
  112OSM   C14F11665  -0.012   1.045   8.697  0.3567  0.3598 -0.0214
  112OSM   H14F11666   0.035   1.135   8.652 -0.6230  0.2905 -1.2344
  112OSM   H14G11667  -0.079   1.079   8.779  3.1805 -0.5063  2.8439
  112OSM   C15F11668  -0.072   0.969   8.579 -0.2029  0.5599  0.1836
  112OSM   H15F11669  -0.153   0.906   8.620  0.7693 -1.3512 -0.6801
  112OSM   H15G11670   0.005   0.907   8.527 -0.5703  0.0150  0.2862
  112OSM   C16F11671  -0.131   1.057   8.472  0.3382 -0.5120  0.6836
  112OSM   H16F11672  -0.175   0.993   8.392  0.5485 -0.1422  0.2708
  112OSM   H16G11673  -0.054   1.125   8.431  2.1583 -1.7089  1.9348
  112OSM   C17F11674  -0.234   1.152   8.530 -0.5636 -0.2964  0.2674
  112OSM   H17F11675  -0.171   1.229   8.578  0.4411 -0.1927 -1.1657
  112OSM   H17G11676  -0.301   1.104   8.605  0.0667 -0.5977  0.6392
  112OSM   C18F11677  -0.321   1.222   8.425 -0.0325  0.1462 -0.0015
  112OSM   H18F11678  -0.268   1.274   8.342  0.5517  1.3951  1.1269
  112OSM   H18G11679  -0.374   1.300   8.482 -2.0018 -0.8011 -0.4536
  112OSM   H18H11680  -0.398   1.153   8.384  0.9257 -1.4673  0.8280
  113OSM      N11681   0.416   5.927  10.944  0.2066  0.3211 -0.1844
  113OSM    C1511682   0.461   5.782  10.944  0.6019 -0.4748 -0.0059
  113OSM   H15A11683   0.382   5.725  10.991  2.2768  0.3009  4.2268
  113OSM   H15B11684   0.553   5.766  10.998  0.0073 -0.7182  0.9668
  113OSM   H15C11685   0.479   5.756  10.841  0.8408 -1.0104  0.1664
  113OSM    C1411686   0.300   5.945  10.844  0.2499  0.2224 -0.3137
  113OSM   H14A11687   0.227   5.866  10.855  0.8131 -0.7722 -2.9430
  113OSM   H14B11688   0.331   5.934  10.741  1.0266 -0.1863 -0.0410
  113OSM   H14C11689   0.263   6.045  10.856  2.2957  0.8885  0.9392
  113OSM    C1311690   0.366   5.939  11.086  0.3944 -0.0794  0.5835
  113OSM   H13A11691   0.454   5.943  11.148  0.8164 -0.7584  0.0426
  113OSM   H13B11692   0.313   5.848  11.106  0.5696 -0.2839  0.1311
  113OSM   H13C11693   0.308   6.029  11.102  2.1699  1.2424 -0.1445
  113OSM    C1211694   0.530   6.024  10.905  0.9554  0.1453 -0.5995
  113OSM   H12A11695   0.554   6.005  10.802  1.7016 -0.7127 -0.2832
  113OSM   H12B11696   0.614   5.990  10.965  1.2055  3.3210  1.0471
  113OSM    C1111697   0.494   6.172  10.938  0.8374 -0.5372 -0.2594
  113OSM   H11A11698   0.581   6.238  10.919  0.6611 -0.0223  0.6919
  113OSM   H11B11699   0.494   6.179  11.049 -1.4607 -1.7926 -0.1105
  113OSM      P11700   0.342   6.309  10.765 -0.2720  0.0805  0.7369
  113OSM    O1311701   0.231   6.247  10.686  0.0848 -0.2486 -0.0235
  113OSM    O1411702   0.329   6.452  10.798 -0.1931 -0.6970 -0.4981
  113OSM    O1111703   0.475   6.283  10.679  0.1377  0.2353 -0.2639
  113OSM    O1211704   0.372   6.220  10.889 -0.2082  0.1469 -0.3296
  113OSM    C1S11705   0.453   6.279  10.539 -0.1005 -0.2932  0.5102
  113OSM    H1S11706   0.391   6.364  10.502  0.4676 -0.0384  0.1258
  113OSM    H1T11707   0.410   6.187  10.495  0.1835 -0.4625  0.5880
  113OSM     NF11708   0.549   6.311  10.305 -0.2674  0.4183 -0.4332
  113OSM    HNF11709   0.580   6.242  10.240  0.8623  1.7590 -1.3658
  113OSM    C2S11710   0.581   6.297  10.444 -0.0826 -0.3844  0.1732
  113OSM    H2S11711   0.627   6.394  10.473  2.0395 -1.2934  0.0084
  113OSM    C3S11712   0.693   6.190  10.479  0.4956 -0.8815  0.5987
  113OSM    H3S11713   0.670   6.090  10.435 -0.1863 -0.6078  0.3044
  113OSM     O311714   0.713   6.158  10.616 -1.2948 -0.4272 -0.4613
  113OSM    HO311715   0.638   6.196  10.661 -0.0861  0.7889  0.6147
  113OSM    C4S11716   0.822   6.230  10.417  0.8587  0.0986  0.1271
  113OSM    H4S11717   0.864   6.330  10.438 -0.1972  0.9854 -1.7256
  113OSM    C5S11718   0.899   6.147  10.343  0.1887  0.5490  0.1203
  113OSM    H5S11719   0.863   6.047  10.316  0.9587  1.2151 -4.1549
  113OSM    C6S11720   1.035   6.178  10.291  0.3135 -0.2625  0.5510
  113OSM    H6S11721   1.123   6.128  10.336  1.6196  1.1250 -0.3542
  113OSM    H6T11722   1.063   6.283  10.314  0.0252  0.0892 -0.6340
  113OSM    C7S11723   1.049   6.168  10.143  0.1271 -0.6587  0.5412
  113OSM    H7S11724   0.970   6.220  10.084  0.3453  0.1822  0.9790
  113OSM    H7T11725   1.022   6.067  10.107  0.3045 -0.3015 -0.6578
  113OSM    C8S11726   1.182   6.223  10.093  0.2771  0.3219  0.1238
  113OSM    H8S11727   1.266   6.165  10.137  1.6256  1.8759 -0.2815
  113OSM    H8T11728   1.195   6.330  10.121 -1.0169  0.5653 -0.1421
  113OSM    C9S11729   1.190   6.225   9.937 -0.3090 -0.4015  0.1340
  113OSM    H9S11730   1.108   6.291   9.901 -2.0967 -2.3467  0.4298
  113OSM    H9T11731   1.154   6.130   9.891 -1.5165 -0.4766  1.1602
  113OSM   C10S11732   1.314   6.271   9.864 -0.2638  0.0021  0.2641
  113OSM   H10S11733   1.402   6.222   9.912  1.5772  1.3352 -1.5688
  113OSM   H10T11734   1.349   6.374   9.890  1.0288 -0.5701  0.9208
  113OSM   C11S11735   1.296   6.255   9.713 -0.2761 -0.1106 -0.0261
  113OSM   H11S11736   1.199   6.297   9.680 -1.0721  0.2178  2.4921
  113OSM   H11T11737   1.288   6.145   9.698  0.7495 -0.0296 -1.2658
  113OSM   C12S11738   1.421   6.312   9.636 -0.0337 -0.1026 -0.3811
  113OSM   H12S11739   1.506   6.245   9.662 -0.0916  0.5401  1.6169
  113OSM   H12T11740   1.439   6.413   9.679 -3.4078  0.6980 -0.5839
  113OSM   C13S11741   1.377   6.327   9.484 -0.3451 -0.3227 -0.1471
  113OSM   H13S11742   1.462   6.362   9.423  1.0738 -1.4475  1.0888
  113OSM   H13T11743   1.292   6.398   9.474 -1.0279 -1.0436  0.3757
  113OSM   C14S11744   1.350   6.189   9.420  0.0863 -0.4961 -0.1634
  113OSM   H14S11745   1.256   6.144   9.458  1.3707 -2.6208  0.6871
  113OSM   H14T11746   1.432   6.124   9.457  0.8299 -0.1996 -1.2539
  113OSM   C15S11747   1.351   6.188   9.270 -0.5766  0.5625 -0.4293
  113OSM   H15S11748   1.323   6.085   9.238  2.6246 -1.5474  2.7293
  113OSM   H15T11749   1.457   6.200   9.239 -0.7634  0.9990 -0.9032
  113OSM   C16S11750   1.261   6.298   9.213 -0.4569  0.5846  0.6436
  113OSM   H16S11751   1.324   6.384   9.184 -0.8729  0.0097 -2.2745
  113OSM   H16T11752   1.186   6.329   9.289 -0.3248  3.8866 -0.4458
  113OSM   C17S11753   1.188   6.243   9.080  0.5992  0.3336  0.0706
  113OSM   H17S11754   1.082   6.220   9.102 -0.6218  2.4517 -2.9494
  113OSM   H17T11755   1.241   6.148   9.054 -0.0942  0.4753 -2.0548
  113OSM   C18S11756   1.176   6.337   8.955  0.1034 -0.1369  0.6805
  113OSM   H18S11757   1.105   6.294   8.881  1.1595 -0.2437 -0.2897
  113OSM   H18T11758   1.267   6.358   8.897 -1.3070  0.8360 -1.2900
  113OSM   H18U11759   1.135   6.435   8.988 -1.0788 -0.8459  1.4177
  113OSM    C1F11760   0.474   6.410  10.259  0.0119  0.4513  0.0589
  113OSM     OF11761   0.454   6.501  10.337 -0.0419 -0.0192  0.6153
  113OSM    C2F11762   0.423   6.411  10.112  0.1225 -0.1708 -0.6215
  113OSM    H2F11763   0.374   6.314  10.092  1.1336 -1.2207  1.6861
  113OSM    H2G11764   0.515   6.420  10.049  0.3441  1.0010 -0.1667
  113OSM    C3F11765   0.316   6.525  10.085  0.3299 -0.2073 -0.4980
  113OSM    H3F11766   0.370   6.621  10.101  2.1042 -1.5196  2.2574
  113OSM    H3G11767   0.237   6.532  10.163  1.3391  0.8888  0.4653
  113OSM    C4F11768   0.251   6.524   9.943  0.0591 -0.3368 -0.2216
  113OSM    H4F11769   0.180   6.607   9.922  0.5665  0.1502 -0.0605
  113OSM    H4G11770   0.187   6.434   9.934 -2.4294  1.2116  0.9719
  113OSM    C5F11771   0.358   6.526   9.827  0.2715  0.1728 -1.3150
  113OSM    H5F11772   0.397   6.423   9.813 -0.0591  0.1072 -1.7850
  113OSM    H5G11773   0.439   6.598   9.852  1.6463 -1.2171 -1.6207
  113OSM    C6F11774   0.289   6.559   9.693 -0.7300 -0.2604  0.1940
  113OSM    H6F11775   0.367   6.556   9.614 -2.5182 -0.9122 -1.6359
  113OSM    H6G11776   0.228   6.651   9.694  0.7490  0.7698  2.0137
  113OSM    C7F11777   0.190   6.448   9.655  0.6739  0.4777 -0.2387
  113OSM    H7F11778   0.096   6.465   9.712  0.8337  0.4501  0.0349
  113OSM    H7G11779   0.230   6.351   9.693  1.4438  0.9912  0.2963
  113OSM    C8F11780   0.175   6.439   9.508  0.0155 -0.2104 -0.1854
  113OSM    H8F11781   0.124   6.344   9.482  0.6670 -0.3943 -0.8198
  113OSM    H8G11782   0.280   6.435   9.472  0.1888  1.2698  0.0950
  113OSM    C9F11783   0.103   6.556   9.453  0.1342  0.1945  0.6161
  113OSM    H9F11784   0.009   6.580   9.506 -1.8569 -0.7751 -2.2810
  113OSM   C10F11785   0.141   6.637   9.346 -0.2318  0.5401  0.1424
  113OSM   H10F11786   0.081   6.722   9.313  0.2938  0.7065 -0.3960
  113OSM   C11F11787   0.261   6.617   9.260  0.3098 -0.5482  0.1767
  113OSM   H11F11788   0.334   6.548   9.308  0.4383 -0.0399  0.7201
  113OSM   H11G11789   0.309   6.716   9.246 -0.7634 -0.2619 -1.8229
  113OSM   C12F11790   0.241   6.573   9.113 -0.3482 -0.1833 -0.1897
  113OSM   H12F11791   0.341   6.566   9.064  0.4879  0.6623  1.3355
  113OSM   H12G11792   0.171   6.639   9.058  1.6242  1.8548 -0.3793
  113OSM   C13F11793   0.196   6.431   9.104  0.8443 -0.5114  0.6350
  113OSM   H13F11794   0.131   6.413   9.192  0.4106 -0.7701  0.2683
  113OSM   H13G11795   0.290   6.372   9.104  2.1409  1.3362 -1.9192
  113OSM   C14F11796   0.124   6.409   8.967 -0.8017  0.3539  0.0741
  113OSM   H14F11797   0.052   6.493   8.956 -0.6060  0.4683 -0.3616
  113OSM   H14G11798   0.065   6.315   8.978  0.9602 -0.9379 -0.9946
  113OSM   C15F11799   0.227   6.392   8.853  0.3489  0.4033 -0.1525
  113OSM   H15F11800   0.288   6.304   8.883  1.1761  1.8276  2.7733
  113OSM   H15G11801   0.295   6.480   8.841  0.5123  0.2708 -0.1969
  113OSM   C16F11802   0.163   6.374   8.714 -0.3097  0.5105 -0.4983
  113OSM   H16F11803   0.099   6.463   8.694  3.9725  3.5269 -2.5254
  113OSM   H16G11804   0.103   6.281   8.717 -1.4691  1.2399  2.0890
  113OSM   C17F11805   0.273   6.375   8.609 -0.5455  0.0819  0.2226
  113OSM   H17F11806   0.338   6.287   8.629 -0.2709  0.2016 -0.1290
  113OSM   H17G11807   0.327   6.470   8.629 -1.4788  0.2731  2.1182
  113OSM   C18F11808   0.220   6.379   8.459  0.2741 -0.2175 -0.6626
  113OSM   H18F11809   0.307   6.391   8.390  0.9316  0.2958  0.2363
  113OSM   H18G11810   0.151   6.464   8.440  0.0178 -0.3173 -0.1879
  113OSM   H18H11811   0.178   6.282   8.426 -1.8054  0.5846 -0.5188
  114OSM      N11812   1.706   6.753  10.792  0.2999  0.4480  0.5751
  114OSM    C1511813   1.628   6.627  10.792  0.8309 -0.4681 -0.1008
  114OSM   H15A11814   1.675   6.552  10.853  3.2747  1.7957  0.9751
  114OSM   H15B11815   1.607   6.584  10.695  4.0809 -0.4780 -0.8910
  114OSM   H15C11816   1.536   6.642  10.847  0.6518 -0.4427 -0.4017
  114OSM    C1411817   1.741   6.793  10.932 -0.5376  0.3305  0.8731
  114OSM   H14A11818   1.655   6.813  10.995 -1.0944  0.9901 -0.0791
  114OSM   H14B11819   1.792   6.888  10.928 -1.0029  0.5755  0.7097
  114OSM   H14C11820   1.809   6.726  10.982 -0.8649  0.2094  1.1641
  114OSM    C1311821   1.838   6.735  10.735 -0.1833 -0.3017  0.0007
  114OSM   H13A11822   1.898   6.824  10.723  2.7866 -2.0096  1.0901
  114OSM   H13B11823   1.815   6.683  10.642 -0.5840  0.2467 -0.2102
  114OSM   H13C11824   1.896   6.661  10.789  2.1142  1.4311  0.0589
  114OSM    C1211825   1.626   6.869  10.729 -0.1671  0.2281  0.0302
  114OSM   H12A11826   1.591   6.837  10.631  1.5825 -0.5195 -0.3972
  114OSM   H12B11827   1.690   6.954  10.710 -1.9810  1.3576 -1.3388
  114OSM    C1111828   1.491   6.920  10.791 -0.4944  0.2809 -0.5699
  114OSM   H11A11829   1.501   6.923  10.902 -1.0530 -0.4391 -0.4845
  114OSM   H11B11830   1.409   6.852  10.760 -0.8306 -0.1000  1.0232
  114OSM      P11831   1.388   7.102  10.628  0.0431 -0.2141 -0.1354
  114OSM    O1311832   1.250   7.093  10.667  0.3149 -0.2536  0.0022
  114OSM    O1411833   1.434   7.237  10.584  0.3625  0.3262 -0.4464
  114OSM    O1111834   1.405   6.993  10.512  0.2547  0.1503  0.0982
  114OSM    O1211835   1.482   7.051  10.744  0.2154  0.1415 -0.0415
  114OSM    C1S11836   1.491   7.035  10.407 -1.0573 -0.1031  0.0413
  114OSM    H1S11837   1.597   7.014  10.433 -0.2573  0.7546 -2.2996
  114OSM    H1T11838   1.485   7.142  10.379 -0.4340 -0.3373 -1.0609
  114OSM     NF11839   1.574   6.983  10.188  0.4091  0.1476 -0.6816
  114OSM    HNF11840   1.568   7.057  10.121 -0.0435  1.4930  0.7659
  114OSM    C2S11841   1.458   6.962  10.279 -0.0370 -0.2272  0.5005
  114OSM    H2S11842   1.451   6.854  10.304 -0.6144 -0.3079  0.0318
  114OSM    C3S11843   1.318   7.012  10.223  0.3154 -0.2154 -0.0013
  114OSM    H3S11844   1.339   7.115  10.189  1.3785  0.0741  1.4424
  114OSM     O311845   1.213   7.026  10.315  0.5703  0.4867  0.1788
  114OSM    HO311846   1.255   7.018  10.401 -0.1480 -1.7688  0.3747
  114OSM    C4S11847   1.279   6.945  10.093 -0.5369  0.1777 -0.2662
  114OSM    H4S11848   1.307   6.993   9.998 -1.2174 -2.1697 -1.7191
  114OSM    C5S11849   1.209   6.827  10.091  0.0903 -0.3418 -0.5489
  114OSM    H5S11850   1.180   6.780  10.186 -0.2731 -1.0052 -0.9802
  114OSM    C6S11851   1.158   6.745   9.974  0.0402  0.2015  0.3393
  114OSM    H6S11852   1.049   6.764   9.973 -0.2583 -1.3611  0.2624
  114OSM    H6T11853   1.179   6.637   9.986 -0.4253 -0.0977 -1.2607
  114OSM    C7S11854   1.225   6.794   9.842 -0.2544  0.2843 -0.3848
  114OSM    H7S11855   1.336   6.793   9.846 -0.2733  0.7185  0.6757
  114OSM    H7T11856   1.189   6.898   9.829 -0.1636  0.4706  0.7232
  114OSM    C8S11857   1.169   6.713   9.727  0.2267  0.0062  0.8186
  114OSM    H8S11858   1.061   6.736   9.718  0.0114 -1.4890 -1.4036
  114OSM    H8T11859   1.187   6.604   9.742  0.1576  0.0249  1.0391
  114OSM    C9S11860   1.226   6.770   9.596  0.0839  0.1816  0.0281
  114OSM    H9S11861   1.335   6.747   9.590  0.1840  0.6690 -0.0895
  114OSM    H9T11862   1.220   6.881   9.595  1.7919  0.3107  0.4811
  114OSM   C10S11863   1.158   6.719   9.463 -0.0157 -0.3491 -0.2366
  114OSM   H10S11864   1.049   6.737   9.479  0.0918 -1.3359  1.9898
  114OSM   H10T11865   1.180   6.611   9.448  2.9062  0.2417 -0.8954
  114OSM   C11S11866   1.208   6.807   9.345 -0.6620  0.8087  0.0721
  114OSM   H11S11867   1.307   6.843   9.378  0.8037 -0.9377 -2.1310
  114OSM   H11T11868   1.133   6.890   9.348 -2.9679 -1.1718  1.1965
  114OSM   C12S11869   1.205   6.730   9.211 -0.5776  0.7851 -0.7384
  114OSM   H12S11870   1.099   6.709   9.185 -0.5190 -0.5762 -0.0080
  114OSM   H12T11871   1.245   6.627   9.226 -3.7417 -0.4160  0.3472
  114OSM   C13S11872   1.273   6.796   9.102 -0.1551 -0.0840 -0.0572
  114OSM   H13S11873   1.381   6.818   9.112  0.2727 -1.9328 -0.2848
  114OSM   H13T11874   1.238   6.901   9.097  0.5044  0.1123 -0.7939
  114OSM   C14S11875   1.257   6.722   8.965 -0.2573 -0.8406 -0.5065
  114OSM   H14S11876   1.279   6.615   8.988 -2.6308 -0.9678  1.6199
  114OSM   H14T11877   1.332   6.759   8.892  0.2153  1.7710  1.1839
  114OSM   C15S11878   1.117   6.731   8.904  0.6039 -0.2108  0.2219
  114OSM   H15S11879   1.090   6.836   8.926 -2.4043 -1.2232  1.8881
  114OSM   H15T11880   1.053   6.658   8.957  1.5086 -0.7666  0.5660
  114OSM   C16S11881   1.115   6.714   8.748 -0.1178 -0.7792 -0.5632
  114OSM   H16S11882   1.189   6.783   8.703 -1.2975  0.0340 -1.3169
  114OSM   H16T11883   1.019   6.758   8.714 -0.2037 -0.2829  0.2791
  114OSM   C17S11884   1.120   6.568   8.695 -1.3219  0.4103 -0.2420
  114OSM   H17S11885   1.043   6.504   8.742 -0.1634 -0.8029  0.0698
  114OSM   H17T11886   1.218   6.537   8.738 -0.5592  0.5347 -1.8250
  114OSM   C18S11887   1.123   6.547   8.548  0.4903 -0.5094  0.9235
  114OSM   H18S11888   1.038   6.584   8.488  2.2640  0.2743 -1.2564
  114OSM   H18T11889   1.151   6.440   8.532  1.6561 -0.0667 -0.2178
  114OSM   H18U11890   1.212   6.601   8.511 -1.4020  1.9726 -0.2624
  114OSM    C1F11891   1.690   6.924  10.204  0.2059 -0.1588 -0.2590
  114OSM     OF11892   1.713   6.847  10.297 -0.0379  0.1593 -0.2874
  114OSM    C2F11893   1.799   6.966  10.106 -0.1446 -0.1085 -0.1909
  114OSM    H2F11894   1.824   7.071  10.134 -0.1276  0.1727 -1.1920
  114OSM    H2G11895   1.764   6.976  10.001  2.8299  2.2031 -1.1146
  114OSM    C3F11896   1.922   6.879  10.118 -0.6193 -0.2772 -0.2145
  114OSM    H3F11897   1.900   6.782  10.068  0.5720  0.0691 -1.4760
  114OSM    H3G11898   1.946   6.850  10.222 -1.9053 -1.5751 -0.2430
  114OSM    C4F11899   2.034   6.945  10.047 -0.5851 -0.3520  0.0795
  114OSM    H4F11900   2.124   6.880  10.044  1.8006  2.7235 -0.3652
  114OSM    H4G11901   2.067   7.037  10.100  0.2851 -1.8106  2.2046
  114OSM    C5F11902   2.001   6.981   9.901 -0.4800  0.6573  0.1438
  114OSM    H5F11903   1.924   7.058   9.878 -0.3806  0.7403  0.0861
  114OSM    H5G11904   1.965   6.886   9.856 -2.0859  1.4003 -0.2183
  114OSM    C6F11905   2.126   7.026   9.829 -0.3680 -0.1055 -0.1587
  114OSM    H6F11906   2.211   6.956   9.851 -1.6581 -1.8880 -0.6086
  114OSM    H6G11907   2.165   7.127   9.854 -0.8883  0.8039 -2.8115
  114OSM    C7F11908   2.107   7.025   9.676 -0.3998 -0.0666 -0.1647
  114OSM    H7F11909   2.084   6.918   9.653 -1.5993 -0.1619  1.3691
  114OSM    H7G11910   2.208   7.047   9.635 -0.0794  1.3461  1.2951
  114OSM    C8F11911   2.003   7.120   9.620  0.0868  0.6266 -0.7493
  114OSM    H8F11912   2.013   7.212   9.681  0.0488  1.5971 -2.1593
  114OSM    H8G11913   1.902   7.074   9.631  1.2168 -1.8389  0.0637
  114OSM    C9F11914   2.020   7.158   9.473 -0.9259  0.3251 -0.3051
  114OSM    H9F11915   1.988   7.078   9.404 -1.0841 -0.8831  1.1113
  114OSM   C10F11916   2.081   7.264   9.415  0.5431  0.2193  0.3212
  114OSM   H10F11917   2.103   7.268   9.307  4.5791  2.1229  1.0268
  114OSM   C11F11918   2.155   7.378   9.484  0.4672  0.5871  0.2657
  114OSM   H11F11919   2.261   7.382   9.453  0.9646 -1.3013  1.5694
  114OSM   H11G11920   2.155   7.355   9.592 -1.1390 -1.0156 -0.0312
  114OSM   C12F11921   2.070   7.503   9.469  0.1438 -0.5037 -0.8491
  114OSM   H12F11922   1.981   7.481   9.532 -0.3579  0.7718 -1.0820
  114OSM   H12G11923   2.045   7.520   9.362 -0.5046 -0.8842 -0.7623
  114OSM   C13F11924   2.134   7.633   9.522 -0.4431  0.2359 -0.4090
  114OSM   H13F11925   2.132   7.633   9.633 -1.4648 -0.6051 -0.4073
  114OSM   H13G11926   2.057   7.708   9.491  0.2224  0.0034 -2.8663
  114OSM   C14F11927   2.265   7.673   9.452  0.0242 -0.2098  0.6159
  114OSM   H14F11928   2.340   7.601   9.492 -1.0524 -0.6169  1.9709
  114OSM   H14G11929   2.298   7.776   9.478 -0.8148  0.3842 -0.5555
  114OSM   C15F11930   2.278   7.689   9.299 -0.1202  0.2921 -1.0410
  114OSM   H15F11931   2.249   7.599   9.241 -1.2329  0.6545 -1.0762
  114OSM   H15G11932   2.387   7.699   9.278  0.6833  0.2252  2.5078
  114OSM   C16F11933   2.192   7.807   9.244 -0.7474 -0.0672  0.4759
  114OSM   H16F11934   2.215   7.901   9.298 -0.0875  0.4281 -0.6472
  114OSM   H16G11935   2.085   7.791   9.270 -0.6974 -0.6692  0.3249
  114OSM   C17F11936   2.194   7.820   9.085 -0.0937  0.0317  0.5168
  114OSM   H17F11937   2.301   7.819   9.055  0.2370  0.4883  1.6021
  114OSM   H17G11938   2.146   7.913   9.050  0.4217  1.4987  3.3541
  114OSM   C18F11939   2.134   7.696   9.015 -0.0334 -0.2824 -0.4961
  114OSM   H18F11940   2.025   7.690   9.034  0.1698  0.2152  0.9924
  114OSM   H18G11941   2.176   7.600   9.053 -1.4882 -0.4152  0.9176
  114OSM   H18H11942   2.151   7.708   8.906 -0.5295  1.2734 -0.4267
  115OSM      N11943   4.234   4.086   5.679  0.4788  0.0734  0.1887
  115OSM    C1511944   4.162   4.214   5.693  0.2730  0.3013 -0.3817
  115OSM   H15A11945   4.225   4.297   5.720  0.2026  0.3947 -0.5045
  115OSM   H15B11946   4.083   4.206   5.767  0.9372  1.1222  0.4421
  115OSM   H15C11947   4.123   4.244   5.597  1.3536  4.2339  0.2540
  115OSM    C1411948   4.134   3.984   5.633  0.1115 -0.7134 -0.9153
  115OSM   H14A11949   4.176   3.886   5.614  0.5536 -0.1921 -2.8264
  115OSM   H14B11950   4.066   4.015   5.555 -0.0575 -2.2821 -1.4345
  115OSM   H14C11951   4.063   3.966   5.712 -1.3080 -0.0168 -1.9830
  115OSM    C1311952   4.341   4.100   5.572  0.3114  0.3777  0.5065
  115OSM   H13A11953   4.406   4.185   5.590 -0.5077  0.9846  0.6392
  115OSM   H13B11954   4.304   4.125   5.474  1.4562 -0.3122 -0.1136
  115OSM   H13C11955   4.405   4.014   5.560 -0.5398  0.1472 -3.4633
  115OSM    C1211956   4.293   4.039   5.809 -0.0630  0.7173 -0.6822
  115OSM   H12A11957   4.352   4.122   5.844  3.5306 -2.2801  1.1275
  115OSM   H12B11958   4.367   3.962   5.789 -0.8122  0.0192 -0.8290
  115OSM    C1111959   4.201   3.986   5.925  0.5981 -0.0526  0.0445
  115OSM   H11A11960   4.264   3.938   6.003  1.5312 -0.0204 -0.6798
  115OSM   H11B11961   4.139   3.903   5.885  1.3586 -0.7929  0.3712
  115OSM      P11962   4.172   4.185   6.090 -0.0403  0.3019  0.3212
  115OSM    O1311963   4.220   4.311   6.026 -1.0770  0.3178  0.3871
  115OSM    O1411964   4.061   4.210   6.187  0.5447  0.1970  0.1722
  115OSM    O1111965   4.289   4.115   6.168  0.5389 -0.0261  0.0596
  115OSM    O1211966   4.119   4.082   5.991 -0.0047  0.2499  0.5565
  115OSM    C1S11967   4.325   4.180   6.295 -0.5267  0.4582  0.4689
  115OSM    H1S11968   4.244   4.176   6.370  0.0465 -4.5639  1.1747
  115OSM    H1T11969   4.365   4.282   6.279  1.0532  0.1999  2.3661
  115OSM     NF11970   4.479   4.180   6.479 -1.0994  0.0170  0.0896
  115OSM    HNF11971   4.551   4.249   6.468 -1.4820  0.4958  0.5190
  115OSM    C2S11972   4.441   4.102   6.364  0.4155 -0.1401 -0.0505
  115OSM    H2S11973   4.393   4.010   6.403 -1.1963  0.4449 -0.5477
  115OSM    C3S11974   4.555   4.070   6.257  0.3860 -0.1722  2.0065
  115OSM    H3S11975   4.589   4.166   6.213 -1.7777 -0.1670  0.1391
  115OSM     O311976   4.513   3.989   6.144 -0.2224 -0.1852  0.2731
  115OSM    HO311977   4.422   4.017   6.130  0.1293 -0.2716 -3.0279
  115OSM    C4S11978   4.659   4.001   6.321  0.2692 -1.0441  0.8759
  115OSM    H4S11979   4.644   3.897   6.355  1.5009 -1.0961  1.3020
  115OSM    C5S11980   4.763   4.076   6.366  0.0739  0.0705 -0.7140
  115OSM    H5S11981   4.763   4.185   6.350  0.0043 -0.2051 -2.8724
  115OSM    C6S11982   4.877   4.027   6.454  0.1637 -0.9086  0.5891
  115OSM    H6S11983   4.966   4.013   6.389  1.0110  1.1034  1.2372
  115OSM    H6T11984   4.864   3.920   6.481  1.2287 -1.2441 -0.1527
  115OSM    C7S11985   4.919   4.121   6.570  0.0148  0.5729  0.6470
  115OSM    H7S11986   4.929   4.227   6.538 -0.3704  0.0715 -1.2360
  115OSM    H7T11987   5.017   4.086   6.608  0.4220  1.8842  0.8510
  115OSM    C8S11988   4.808   4.120   6.681 -0.0304  0.0918 -0.0422
  115OSM    H8S11989   4.762   4.019   6.678  1.0491 -0.3960 -1.3738
  115OSM    H8T11990   4.729   4.196   6.660 -1.3481 -0.6003  2.1832
  115OSM    C9S11991   4.870   4.145   6.812  0.5419  0.4255  0.1363
  115OSM    H9S11992   4.964   4.087   6.826  0.6210  0.1723 -1.3521
  115OSM    H9T11993   4.807   4.118   6.900  1.6884 -1.9806  0.3175
  115OSM   C10S11994   4.907   4.288   6.851  0.3948 -0.4782  0.1726
  115OSM   H10S11995   4.834   4.353   6.798  0.5126 -3.5433 -4.2829
  115OSM   H10T11996   5.007   4.316   6.812 -0.5828  3.2675 -0.0227
  115OSM   C11S11997   4.919   4.298   7.009  0.0878 -0.8998 -0.5034
  115OSM   H11S11998   4.972   4.212   7.056  1.6140  0.6518  0.7616
  115OSM   H11T11999   4.815   4.312   7.047  0.6843  4.9647 -0.1826
  115OSM   C12S12000   5.001   4.417   7.059 -0.0204 -0.0735  0.5292
  115OSM   H12S12001   4.984   4.508   6.998 -0.5378 -1.6156 -1.7354
  115OSM   H12T12002   5.110   4.393   7.055 -0.7478 -4.4499  1.7025
  115OSM   C13S12003   4.976   4.446   7.203  0.4458  0.2319 -0.0812
  115OSM   H13S12004   4.868   4.434   7.227  0.2932  2.2466  0.4543
  115OSM   H13T12005   4.988   4.555   7.222 -1.6230  0.7463 -1.4244
  115OSM   C14S12006   5.059   4.369   7.318 -0.4182  0.6305  0.5882
  115OSM   H14S12007   5.166   4.378   7.288 -0.6716  5.8436  0.3230
  115OSM   H14T12008   5.030   4.262   7.317 -3.2323  1.2819 -1.5071
  115OSM   C15S12009   5.036   4.425   7.460 -0.1085  0.8626  0.0615
  115OSM   H15S12010   5.108   4.510   7.461  2.3171 -1.0425 -1.3638
  115OSM   H15T12011   5.079   4.345   7.524  0.0849 -0.5088 -1.6901
  115OSM   C16S12012   4.900   4.455   7.518 -0.1378  0.1582  0.2076
  115OSM   H16S12013   4.820   4.387   7.483 -0.0721  0.6857 -1.0367
  115OSM   H16T12014   4.871   4.555   7.481 -1.1569  0.4204  1.6434
  115OSM   C17S12015   4.904   4.435   7.670 -0.5350 -0.5339 -0.0981
  115OSM   H17S12016   4.952   4.335   7.680 -0.8859 -0.6767  0.2127
  115OSM   H17T12017   4.801   4.444   7.711 -0.7022  0.9439 -0.7662
  115OSM   C18S12018   4.984   4.539   7.740  0.8360 -0.0355  0.0956
  115OSM   H18S12019   4.986   4.516   7.849 -1.3017 -0.0678  0.1716
  115OSM   H18T12020   4.948   4.641   7.716  2.8109  0.4432 -1.0671
  115OSM   H18U12021   5.089   4.555   7.706  0.6506 -1.9486 -1.5219
  115OSM    C1F12022   4.418   4.185   6.590  0.6737  0.0598 -0.2331
  115OSM     OF12023   4.318   4.113   6.602  0.1309  0.2787  0.0704
  115OSM    C2F12024   4.451   4.295   6.683 -0.2971  0.2273  0.2244
  115OSM    H2F12025   4.397   4.384   6.643  0.1299 -0.1707 -1.2908
  115OSM    H2G12026   4.559   4.313   6.668 -0.1785 -0.4202  0.2636
  115OSM    C3F12027   4.415   4.259   6.836  0.7975 -0.5111  0.3209
  115OSM    H3F12028   4.449   4.154   6.848  0.9369 -0.7325 -1.6675
  115OSM    H3G12029   4.306   4.243   6.850  0.5526  0.9640  0.3274
  115OSM    C4F12030   4.464   4.355   6.937  0.0717 -0.1953 -0.5439
  115OSM    H4F12031   4.400   4.445   6.953  2.9425  1.5898  1.9471
  115OSM    H4G12032   4.564   4.387   6.903 -0.8478  1.7295 -1.6186
  115OSM    C5F12033   4.477   4.277   7.075 -0.5116  0.0112 -0.1034
  115OSM    H5F12034   4.549   4.197   7.047 -0.7798 -0.4779  0.5745
  115OSM    H5G12035   4.377   4.244   7.110  0.6709 -0.7944  2.8327
  115OSM    C6F12036   4.531   4.366   7.181  0.6021 -0.6721  0.7089
  115OSM    H6F12037   4.454   4.430   7.230  0.1265 -1.0977  0.5256
  115OSM    H6G12038   4.606   4.437   7.141 -1.0533  0.0024 -1.4152
  115OSM    C7F12039   4.577   4.285   7.306 -0.7051  0.2970 -0.0054
  115OSM    H7F12040   4.654   4.336   7.368  0.7346 -0.6676 -0.9316
  115OSM    H7G12041   4.628   4.197   7.262 -0.5630  0.7371 -0.7333
  115OSM    C8F12042   4.462   4.238   7.396  0.2814  0.4983 -0.0147
  115OSM    H8F12043   4.478   4.131   7.422  0.3996  0.3744 -0.5917
  115OSM    H8G12044   4.361   4.244   7.352  0.2115  0.4040  0.1321
  115OSM    C9F12045   4.454   4.308   7.525  0.0161 -0.4260  0.0891
  115OSM    H9F12046   4.415   4.410   7.514  0.4167 -0.4085 -1.5501
  115OSM   C10F12047   4.470   4.260   7.649  0.5497  0.2329 -0.2697
  115OSM   H10F12048   4.461   4.332   7.731 -0.1202 -1.0562  0.8217
  115OSM   C11F12049   4.516   4.118   7.685  0.0396  0.3089 -0.2292
  115OSM   H11F12050   4.608   4.092   7.628  1.8435  1.0137  2.2004
  115OSM   H11G12051   4.429   4.057   7.652 -1.7318  1.2883  2.2833
  115OSM   C12F12052   4.531   4.080   7.838  0.0466 -0.2373 -0.2534
  115OSM   H12F12053   4.613   4.144   7.878  3.4091 -4.8995  1.1011
  115OSM   H12G12054   4.568   3.975   7.835 -0.9465 -0.6355  0.9942
  115OSM   C13F12055   4.401   4.080   7.919  0.8139  0.5652 -0.1266
  115OSM   H13F12056   4.367   4.182   7.947  2.7446  0.5477  2.6389
  115OSM   H13G12057   4.424   4.032   8.016 -2.0029  0.1438  0.4092
  115OSM   C14F12058   4.284   3.983   7.880 -0.6498  0.2885  0.3353
  115OSM   H14F12059   4.327   3.881   7.881  1.5471  0.9819 -3.4620
  115OSM   H14G12060   4.257   4.010   7.775  0.8379 -1.9690 -0.7123
  115OSM   C15F12061   4.161   4.000   7.977 -0.0957 -0.5264  1.0310
  115OSM   H15F12062   4.140   4.109   7.969  1.8818 -0.2502 -1.9253
  115OSM   H15G12063   4.185   3.986   8.084  0.3918 -0.4989  0.9273
  115OSM   C16F12064   4.041   3.924   7.924 -0.3249  0.3510 -0.5591
  115OSM   H16F12065   4.064   3.901   7.817  0.0941  0.8962 -0.5897
  115OSM   H16G12066   3.951   3.989   7.915 -1.1875 -0.6883  0.3108
  115OSM   C17F12067   3.989   3.800   7.998 -0.2030 -0.4191 -0.5219
  115OSM   H17F12068   3.976   3.810   8.108  0.6749 -1.6214 -0.2846
  115OSM   H17G12069   4.072   3.726   8.001  1.0506  0.9084 -0.7717
  115OSM   C18F12070   3.867   3.732   7.938  0.5618 -0.6451 -0.3812
  115OSM   H18F12071   3.774   3.787   7.963  0.0815 -2.0513  1.1906
  115OSM   H18G12072   3.842   3.634   7.986 -2.5847 -0.7027 -1.8893
  115OSM   H18H12073   3.880   3.722   7.828  1.0463 -1.6612 -0.2428
  116OSM      N12074   4.249   2.495   5.755 -0.1623 -0.1315  1.1005
  116OSM    C1512075   4.134   2.455   5.672 -0.3313 -0.0435 -0.4877
  116OSM   H15A12076   4.094   2.366   5.719 -0.1632  0.0225 -0.2178
  116OSM   H15B12077   4.169   2.439   5.571  0.0437  0.9116 -0.5161
  116OSM   H15C12078   4.047   2.519   5.668 -2.8722 -3.1833  0.2610
  116OSM    C1412079   4.345   2.375   5.765  0.4239 -0.7661 -0.8081
  116OSM   H14A12080   4.293   2.290   5.806 -0.3969  0.3496  0.5836
  116OSM   H14B12081   4.417   2.406   5.839 -1.4002  1.0463  0.3259
  116OSM   H14C12082   4.387   2.344   5.670 -1.7090  0.1265 -2.1167
  116OSM    C1312083   4.314   2.610   5.682  0.0158 -0.3733  0.3088
  116OSM   H13A12084   4.327   2.590   5.576 -0.4314 -1.3091  0.4130
  116OSM   H13B12085   4.405   2.627   5.737  0.2795  0.1113 -0.2661
  116OSM   H13C12086   4.262   2.704   5.684 -1.0982 -0.8899 -1.6647
  116OSM    C1212087   4.207   2.543   5.893 -0.0097  0.2897 -0.7671
  116OSM   H12A12088   4.137   2.626   5.898  0.5871  0.8440 -1.4111
  116OSM   H12B12089   4.295   2.588   5.939 -0.7170  1.4853 -0.5277
  116OSM    C1112090   4.150   2.441   6.000  0.0368 -0.5925  0.0614
  116OSM   H11A12091   4.132   2.496   6.095  0.8150 -0.0953 -0.0697
  116OSM   H11B12092   4.237   2.373   6.012 -0.9925 -1.8138  0.8073
  116OSM      P12093   3.975   2.259   6.034  0.1065  0.2635 -0.1028
  116OSM    O1312094   3.835   2.254   5.995 -0.1447 -0.3146 -0.3366
  116OSM    O1412095   4.053   2.132   6.024  0.2759 -0.6900  0.2177
  116OSM    O1112096   3.982   2.321   6.175 -0.4432  0.1470  0.4005
  116OSM    O1212097   4.042   2.372   5.948 -0.2686 -0.6518  0.2877
  116OSM    C1S12098   4.054   2.249   6.278 -0.9754  0.1946 -0.1029
  116OSM    H1S12099   4.159   2.255   6.243 -1.6465 -2.6599 -3.1094
  116OSM    H1T12100   4.026   2.142   6.278  0.7384 -0.2763 -0.2353
  116OSM     NF12101   4.129   2.232   6.507  0.1532 -0.3775  0.0370
  116OSM    HNF12102   4.099   2.158   6.567  1.0915 -0.5481  0.3290
  116OSM    C2S12103   4.036   2.304   6.418 -0.3507  0.5432 -0.1238
  116OSM    H2S12104   4.069   2.409   6.427  1.1869  0.0586  0.2397
  116OSM    C3S12105   3.889   2.290   6.461  0.6611 -0.2707 -0.1873
  116OSM    H3S12106   3.860   2.183   6.450  0.6104 -0.2634 -0.1228
  116OSM     O312107   3.799   2.351   6.367 -0.0840 -0.5356 -0.6752
  116OSM    HO312108   3.858   2.365   6.293  0.2103  0.4085 -0.2797
  116OSM    C4S12109   3.865   2.353   6.596 -0.0204 -0.3032 -0.3276
  116OSM    H4S12110   3.910   2.453   6.593  0.6924 -0.6024  0.1071
  116OSM    C5S12111   3.817   2.300   6.711 -0.3298 -0.0854  0.8366
  116OSM    H5S12112   3.796   2.192   6.710 -0.1826 -0.1673 -2.0436
  116OSM    C6S12113   3.825   2.364   6.849  0.8291 -0.3966  0.2246
  116OSM    H6S12114   3.725   2.377   6.894  0.0729  0.3953 -1.5960
  116OSM    H6T12115   3.857   2.470   6.839  2.0571 -0.9580 -3.4994
  116OSM    C7S12116   3.932   2.300   6.940  0.4151 -0.5223 -0.6764
  116OSM    H7S12117   4.026   2.352   6.912 -0.3636  0.5378 -1.4194
  116OSM    H7T12118   3.947   2.192   6.921  0.3888 -0.8710  1.1111
  116OSM    C8S12119   3.898   2.321   7.087 -0.6496  0.5242  0.3710
  116OSM    H8S12120   3.796   2.281   7.105 -1.5881  2.8693  0.5308
  116OSM    H8T12121   3.899   2.428   7.113 -0.9552  1.7472 -3.8334
  116OSM    C9S12122   3.999   2.234   7.168 -0.4014 -0.2221 -0.2920
  116OSM    H9S12123   4.104   2.264   7.150 -0.2997  0.9463  1.8280
  116OSM    H9T12124   3.996   2.128   7.136 -1.5125  0.3284 -2.1660
  116OSM   C10S12125   3.955   2.229   7.315  0.0968 -0.6510  0.2728
  116OSM   H10S12126   3.999   2.146   7.375 -1.3428 -2.4449 -1.0375
  116OSM   H10T12127   3.845   2.231   7.326  0.2056 -0.8061  1.4869
  116OSM   C11S12128   4.012   2.347   7.405 -0.3564 -0.1780 -0.3926
  116OSM   H11S12129   3.952   2.437   7.379  0.1531  0.0514 -0.7839
  116OSM   H11T12130   4.117   2.366   7.375 -0.1398  0.3350  0.6438
  116OSM   C12S12131   4.008   2.309   7.551 -0.0469  0.0074  1.0954
  116OSM   H12S12132   4.077   2.223   7.565  0.6178  0.3260 -0.0747
  116OSM   H12T12133   3.908   2.277   7.584 -0.5488  1.3688  0.9690
  116OSM   C13S12134   4.070   2.417   7.633  0.4227 -0.1151 -0.5424
  116OSM   H13S12135   4.020   2.517   7.637 -1.3231 -0.9370 -0.6897
  116OSM   H13T12136   4.169   2.432   7.585 -0.6154  3.0486 -1.9665
  116OSM   C14S12137   4.089   2.380   7.787  0.4817 -0.8104 -0.0469
  116OSM   H14S12138   4.159   2.296   7.805  0.9183 -0.1475  1.5995
  116OSM   H14T12139   3.985   2.353   7.817  0.4030 -1.5134 -0.9268
  116OSM   C15S12140   4.136   2.497   7.875 -0.2203 -0.1625 -0.5555
  116OSM   H15S12141   4.053   2.567   7.898 -1.1772 -0.9162 -1.6496
  116OSM   H15T12142   4.217   2.558   7.828 -0.4769  1.2962  0.8086
  116OSM   C16S12143   4.193   2.445   8.011  0.2419  0.0192  0.1274
  116OSM   H16S12144   4.265   2.362   7.993 -4.1138 -3.5854 -3.5181
  116OSM   H16T12145   4.104   2.405   8.065 -0.6381  2.3693  0.5155
  116OSM   C17S12146   4.247   2.560   8.098  0.4060  0.0097  0.9615
  116OSM   H17S12147   4.173   2.642   8.110 -1.5256 -1.1790 -1.8499
  116OSM   H17T12148   4.333   2.604   8.041  1.7461 -0.2532  2.6949
  116OSM   C18S12149   4.285   2.506   8.239 -0.1508  0.0731 -0.1510
  116OSM   H18S12150   4.314   2.583   8.313 -1.7473  1.3881 -0.8194
  116OSM   H18T12151   4.367   2.431   8.231 -0.6452 -0.3440 -1.7989
  116OSM   H18U12152   4.197   2.455   8.283 -1.0114  1.6179 -0.0138
  116OSM    C1F12153   4.261   2.258   6.501 -0.5668 -0.2325  0.0706
  116OSM     OF12154   4.302   2.354   6.440  0.6674  0.0662  1.0787
  116OSM    C2F12155   4.353   2.163   6.570 -0.1125 -0.7117  0.3059
  116OSM    H2F12156   4.425   2.124   6.494  0.2297 -0.7024  0.6230
  116OSM    H2G12157   4.293   2.078   6.609 -1.2098 -0.6113 -1.0974
  116OSM    C3F12158   4.415   2.224   6.694 -0.0893  0.2062  0.5428
  116OSM    H3F12159   4.347   2.302   6.736 -1.3257 -0.3486 -0.3894
  116OSM    H3G12160   4.506   2.286   6.680  1.9090 -2.6506  0.0758
  116OSM    C4F12161   4.449   2.131   6.811  0.7440 -0.4611  0.7094
  116OSM    H4F12162   4.499   2.183   6.894 -0.3215  0.4175  0.8247
  116OSM    H4G12163   4.521   2.054   6.776  1.2603  0.8171 -1.1725
  116OSM    C5F12164   4.333   2.078   6.891 -0.5252  0.3506  0.9050
  116OSM    H5F12165   4.264   2.017   6.829  0.2280 -0.2803  0.6714
  116OSM    H5G12166   4.264   2.159   6.922 -0.6672  0.6080 -0.0799
  116OSM    C6F12167   4.371   1.992   7.009 -0.5473  0.5330  0.1435
  116OSM    H6F12168   4.453   2.034   7.071  0.4883 -2.4092  0.9118
  116OSM    H6G12169   4.424   1.901   6.974 -0.0283  0.6398  0.6345
  116OSM    C7F12170   4.261   1.948   7.102 -0.1189 -0.7930 -0.0765
  116OSM    H7F12171   4.190   1.895   7.034 -2.3774  0.8518  0.8629
  116OSM    H7G12172   4.214   2.045   7.132  1.7982  0.4661 -0.9471
  116OSM    C8F12173   4.318   1.866   7.216 -0.1195 -0.1156  0.2381
  116OSM    H8F12174   4.386   1.940   7.262 -1.5662  2.2255 -1.1883
  116OSM    H8G12175   4.381   1.784   7.176  0.7539  0.9220 -0.5469
  116OSM    C9F12176   4.204   1.830   7.311 -0.1634 -0.0890  0.1405
  116OSM    H9F12177   4.116   1.778   7.272  0.2605  0.2399 -1.3235
  116OSM   C10F12178   4.186   1.870   7.443  0.3356 -0.3718 -0.3055
  116OSM   H10F12179   4.090   1.844   7.489 -0.8517  1.2699 -1.7233
  116OSM   C11F12180   4.279   1.937   7.539 -0.4178  0.4476 -0.2219
  116OSM   H11F12181   4.241   2.016   7.608  0.0546 -0.9728  1.7566
  116OSM   H11G12182   4.363   1.986   7.485 -0.6998  1.5235  0.2759
  116OSM   C12F12183   4.338   1.824   7.621 -0.3180  0.3324  0.5018
  116OSM   H12F12184   4.413   1.769   7.560  0.9272  1.5984  0.8272
  116OSM   H12G12185   4.272   1.742   7.655  1.3982 -0.8010  1.2395
  116OSM   C13F12186   4.410   1.890   7.740  0.0333 -0.1788 -0.4492
  116OSM   H13F12187   4.372   1.990   7.770  0.0933  0.0080 -0.9825
  116OSM   H13G12188   4.513   1.920   7.709  0.1474  1.3017  1.1905
  116OSM   C14F12189   4.412   1.800   7.867 -0.3700  0.4216  0.8370
  116OSM   H14F12190   4.470   1.709   7.839 -1.0244  0.6824 -1.5862
  116OSM   H14G12191   4.313   1.753   7.885  0.2785 -2.5039 -2.1901
  116OSM   C15F12192   4.474   1.867   7.985 -0.4647 -0.3557  0.4335
  116OSM   H15F12193   4.407   1.950   8.018 -2.9579 -1.4965 -1.3604
  116OSM   H15G12194   4.572   1.912   7.958 -0.4102  0.0873  1.3613
  116OSM   C16F12195   4.489   1.775   8.101 -0.5928  0.8928 -0.0123
  116OSM   H16F12196   4.556   1.689   8.079 -1.8424  0.1056 -0.8287
  116OSM   H16G12197   4.387   1.736   8.118 -0.5921  1.7248  2.4267
  116OSM   C17F12198   4.546   1.846   8.226 -0.3592  0.9059  0.6272
  116OSM   H17F12199   4.499   1.945   8.242 -1.2884  0.4028  1.1177
  116OSM   H17G12200   4.653   1.873   8.216 -1.0919  3.0649 -2.5004
  116OSM   C18F12201   4.521   1.768   8.356 -0.0158 -0.0950  0.3491
  116OSM   H18F12202   4.554   1.832   8.441 -2.4191 -2.0846  2.9279
  116OSM   H18G12203   4.582   1.675   8.353  2.5829  1.5232 -0.5134
  116OSM   H18H12204   4.411   1.759   8.369  0.1799 -0.3465  1.9565
  117OSM      N12205   3.583   3.723   5.639  0.7557 -0.4506  0.2790
  117OSM    C1512206   3.707   3.642   5.624 -0.8890 -0.2352 -0.5443
  117OSM   H15A12207   3.752   3.647   5.526  1.7854 -0.2485  0.6084
  117OSM   H15B12208   3.687   3.538   5.643  0.1970 -0.9341 -2.9431
  117OSM   H15C12209   3.777   3.680   5.697 -2.4851  0.6883  0.5808
  117OSM    C1412210   3.629   3.863   5.616  0.8342 -0.0198 -0.1901
  117OSM   H14A12211   3.701   3.859   5.535  0.5627 -3.2543 -0.3962
  117OSM   H14B12212   3.677   3.896   5.706 -1.6256 -0.8708  1.5310
  117OSM   H14C12213   3.544   3.926   5.592 -0.8847 -2.4417 -0.8697
  117OSM    C1312214   3.485   3.672   5.538  0.1652  0.3926  0.1612
  117OSM   H13A12215   3.483   3.728   5.446 -1.5850  0.1228  0.0066
  117OSM   H13B12216   3.384   3.690   5.573  0.6379 -0.0383  1.8000
  117OSM   H13C12217   3.511   3.568   5.532  0.5615  0.5504 -1.0066
  117OSM    C1212218   3.512   3.711   5.769 -0.3027  0.0539 -0.5378
  117OSM   H12A12219   3.580   3.731   5.851  0.2995 -0.9630 -0.7646
  117OSM   H12B12220   3.494   3.605   5.768  0.2824 -0.0479 -1.8686
  117OSM    C1112221   3.378   3.786   5.793 -0.1039  0.6357 -0.1448
  117OSM   H11A12222   3.378   3.883   5.740 -0.2075  0.4053 -0.5658
  117OSM   H11B12223   3.379   3.808   5.902 -0.9467 -0.5795  0.1256
  117OSM      P12224   3.169   3.640   5.842 -0.2233  0.0823  0.6185
  117OSM    O1312225   3.038   3.623   5.765 -0.7464 -0.1647  0.3594
  117OSM    O1412226   3.227   3.516   5.889  0.1012  0.1593  0.0794
  117OSM    O1112227   3.164   3.735   5.961 -0.0490  0.2822  0.3595
  117OSM    O1212228   3.271   3.708   5.746 -0.4134 -0.6699  0.1758
  117OSM    C1S12229   3.041   3.760   6.032 -0.0820  0.3525 -0.0366
  117OSM    H1S12230   3.010   3.662   6.075  2.5235 -1.5332 -2.1519
  117OSM    H1T12231   2.967   3.807   5.964  0.3201  0.8864 -0.1190
  117OSM     NF12232   2.957   3.825   6.260  0.2029 -0.2503 -0.3342
  117OSM    HNF12233   2.910   3.911   6.275  2.0484  1.5923 -3.7419
  117OSM    C2S12234   3.069   3.840   6.169 -0.6282  0.5195  0.2049
  117OSM    H2S12235   3.152   3.783   6.218 -0.1314 -0.2310 -1.4374
  117OSM    C3S12236   3.115   3.978   6.130 -0.0785  0.5343  0.3582
  117OSM    H3S12237   3.022   4.025   6.092 -1.3668 -2.7630 -0.9298
  117OSM     O312238   3.212   3.989   6.021 -0.7708 -0.3992 -0.3430
  117OSM    HO312239   3.236   3.899   5.998  2.0087  0.4993 -1.3975
  117OSM    C4S12240   3.145   4.062   6.247 -0.1188  0.1232  0.2343
  117OSM    H4S12241   3.052   4.101   6.292 -0.0269 -0.3267  0.8187
  117OSM    C5S12242   3.265   4.081   6.308  0.6868 -0.2411  0.4247
  117OSM    H5S12243   3.356   4.037   6.266  1.7571 -0.7954  3.1400
  117OSM    C6S12244   3.294   4.154   6.436 -0.0784 -0.0981 -0.5084
  117OSM    H6S12245   3.388   4.213   6.426 -0.3314  0.6674  1.2384
  117OSM    H6T12246   3.328   4.078   6.510 -0.2968 -1.1249 -1.4481
  117OSM    C7S12247   3.177   4.236   6.502  0.6647 -0.0241  0.0142
  117OSM    H7S12248   3.092   4.169   6.527  0.6852  0.4433  1.4272
  117OSM    H7T12249   3.144   4.314   6.430 -2.4896  1.5581  2.9301
  117OSM    C8S12250   3.212   4.298   6.635  0.0231 -0.3523 -0.2577
  117OSM    H8S12251   3.309   4.351   6.617 -0.1762 -0.2160 -0.9584
  117OSM    H8T12252   3.227   4.217   6.710 -1.6764  0.1167  0.6415
  117OSM    C9S12253   3.102   4.397   6.679 -0.3362 -0.4857  0.4029
  117OSM    H9S12254   3.005   4.344   6.689 -1.6205  1.1030 -2.3399
  117OSM    H9T12255   3.090   4.480   6.607  0.8585 -2.9082 -2.7903
  117OSM   C10S12256   3.118   4.470   6.813  0.0816  0.5676 -0.3140
  117OSM   H10S12257   3.027   4.530   6.831  0.3421  0.8572  0.0609
  117OSM   H10T12258   3.196   4.549   6.813  0.4159  0.2851  1.7745
  117OSM   C11S12259   3.125   4.377   6.936 -0.2868 -0.4398  0.5743
  117OSM   H11S12260   3.206   4.304   6.914 -2.0956 -1.6222 -3.2608
  117OSM   H11T12261   3.037   4.308   6.936 -0.0894 -0.7017 -0.0507
  117OSM   C12S12262   3.147   4.446   7.066 -0.4051 -0.0850  0.0060
  117OSM   H12S12263   3.060   4.508   7.096 -0.8387  0.2012 -1.7212
  117OSM   H12T12264   3.236   4.510   7.050 -1.3671  0.4750 -4.3744
  117OSM   C13S12265   3.178   4.332   7.168  0.3131 -0.7251  0.3371
  117OSM   H13S12266   3.268   4.275   7.137  2.2976  2.4892 -0.2759
  117OSM   H13T12267   3.089   4.265   7.175 -0.5925  0.6199  2.8916
  117OSM   C14S12268   3.207   4.403   7.300 -0.2498  0.0347  0.1128
  117OSM   H14S12269   3.295   4.468   7.279 -0.5183  0.5131  0.4466
  117OSM   H14T12270   3.224   4.324   7.376 -2.1910  1.0800  1.7367
  117OSM   C15S12271   3.100   4.499   7.359  0.0099 -0.0854  0.2110
  117OSM   H15S12272   3.007   4.437   7.356  0.6783 -1.1446 -3.2950
  117OSM   H15T12273   3.090   4.595   7.304  0.2898  0.8636  1.7415
  117OSM   C16S12274   3.127   4.520   7.512  0.1941  0.6983  0.7696
  117OSM   H16S12275   3.234   4.550   7.520  0.1910  0.7760  0.5239
  117OSM   H16T12276   3.118   4.428   7.573 -2.9133 -0.8983 -1.7666
  117OSM   C17S12277   3.025   4.615   7.572 -0.3937  0.0385 -0.7816
  117OSM   H17S12278   2.989   4.690   7.499 -0.2591 -0.8923 -1.8190
  117OSM   H17T12279   3.078   4.683   7.642  0.4844 -0.3442 -1.0615
  117OSM   C18S12280   2.907   4.542   7.639  0.3795  0.2446  0.0310
  117OSM   H18S12281   2.942   4.493   7.732  2.2376  0.5589 -0.4594
  117OSM   H18T12282   2.870   4.458   7.577  0.0511  0.1002  0.4245
  117OSM   H18U12283   2.825   4.613   7.662  0.5101 -0.0999  1.6217
  117OSM    C1F12284   2.923   3.716   6.320  1.1458  0.1029 -0.0572
  117OSM     OF12285   2.975   3.610   6.300 -0.7817 -0.4766  0.4840
  117OSM    C2F12286   2.810   3.709   6.420 -0.5769 -0.0691 -0.3844
  117OSM    H2F12287   2.762   3.611   6.401 -0.7638  0.2498 -1.7070
  117OSM    H2G12288   2.743   3.795   6.398  1.7314  2.4218  1.6372
  117OSM    C3F12289   2.849   3.736   6.573 -0.3553 -0.4043 -0.0485
  117OSM    H3F12290   2.904   3.650   6.617  0.2276  0.9965  2.1266
  117OSM    H3G12291   2.753   3.751   6.627  0.5583 -0.6254  1.6956
  117OSM    C4F12292   2.946   3.856   6.585 -0.1805 -0.2677 -0.1299
  117OSM    H4F12293   2.909   3.943   6.526 -0.5779  0.1475  0.7209
  117OSM    H4G12294   3.039   3.825   6.532 -0.7786 -1.2897 -0.6042
  117OSM    C5F12295   2.971   3.894   6.736 -0.3028 -0.0737 -0.3451
  117OSM    H5F12296   2.878   3.923   6.789  0.1639 -1.0847  1.0670
  117OSM    H5G12297   3.036   3.983   6.736  0.2520 -0.3993  2.5819
  117OSM    C6F12298   3.026   3.787   6.829  0.2711  0.6559  0.0807
  117OSM    H6F12299   3.103   3.730   6.773  0.2119 -0.4108  1.0597
  117OSM    H6G12300   2.954   3.716   6.874 -1.4120  2.1443 -0.1297
  117OSM    C7F12301   3.108   3.854   6.943 -0.5599 -0.0231 -0.3323
  117OSM    H7F12302   3.038   3.933   6.976  0.0250  0.5989 -0.5552
  117OSM    H7G12303   3.200   3.889   6.892  0.6618 -4.1607 -1.3492
  117OSM    C8F12304   3.134   3.767   7.064 -0.0360 -0.5270 -0.6956
  117OSM    H8F12305   3.219   3.815   7.117  2.3707 -3.2312 -1.7946
  117OSM    H8G12306   3.181   3.670   7.034  0.2416 -0.0198 -1.9835
  117OSM    C9F12307   3.015   3.743   7.155  0.1117  0.3169  0.0781
  117OSM    H9F12308   2.927   3.711   7.099  0.2193 -3.6304  1.8374
  117OSM   C10F12309   2.995   3.756   7.283 -0.4039 -0.4296  0.1753
  117OSM   H10F12310   2.891   3.741   7.315 -0.6799  1.6816  0.4614
  117OSM   C11F12311   3.094   3.808   7.385 -0.0027  0.9202  0.7657
  117OSM   H11F12312   3.194   3.827   7.341 -0.4854  1.4273 -0.1381
  117OSM   H11G12313   3.113   3.726   7.458  0.0904  0.1535 -0.1077
  117OSM   C12F12314   3.037   3.929   7.467 -0.2087 -0.0387  0.3325
  117OSM   H12F12315   2.931   3.906   7.492 -0.8146  2.1073 -0.0558
  117OSM   H12G12316   3.039   4.018   7.400  1.8894  0.8329  1.4351
  117OSM   C13F12317   3.116   3.954   7.596  0.1484  0.2225 -0.4140
  117OSM   H13F12318   3.223   3.973   7.575  0.6638  0.9344  2.4005
  117OSM   H13G12319   3.106   3.854   7.645 -1.9507 -1.0788 -3.1714
  117OSM   C14F12320   3.051   4.064   7.686 -0.8837 -0.1521  0.3555
  117OSM   H14F12321   2.944   4.037   7.680 -0.7285 -1.0890  1.4235
  117OSM   H14G12322   3.071   4.165   7.644  1.1492  0.0303  1.5744
  117OSM   C15F12323   3.103   4.066   7.830 -0.2172  0.1522 -0.6927
  117OSM   H15F12324   3.201   4.116   7.837 -0.7902  1.1935  0.1383
  117OSM   H15G12325   3.121   3.963   7.869  0.4678  1.6616  3.3794
  117OSM   C16F12326   3.010   4.150   7.912 -0.0796 -0.3483  0.2597
  117OSM   H16F12327   2.909   4.109   7.889  0.0977 -1.4422  1.3253
  117OSM   H16G12328   3.021   4.253   7.873  0.2585 -0.0153  1.2116
  117OSM   C17F12329   3.045   4.140   8.066  0.0003 -0.4000  0.9486
  117OSM   H17F12330   3.046   4.031   8.086  0.6362 -0.1370  2.4437
  117OSM   H17G12331   3.141   4.189   8.094 -1.1858  2.4990  0.3385
  117OSM   C18F12332   2.926   4.210   8.129 -1.0486 -0.7788 -0.4556
  117OSM   H18F12333   2.923   4.320   8.114 -1.7538 -0.7078  0.1400
  117OSM   H18G12334   2.926   4.196   8.239 -1.7642  0.8858 -0.2161
  117OSM   H18H12335   2.823   4.174   8.105 -1.5242 -0.1180  0.5471
  118OSM      N12336   5.214   6.495   5.899  0.0985  0.4252 -0.0774
  118OSM    C1512337   5.088   6.571   5.915 -0.0142  0.6706  0.0120
  118OSM   H15A12338   5.087   6.666   5.863 -0.5518  0.7179  0.0991
  118OSM   H15B12339   5.064   6.593   6.019 -2.3575  0.5103 -0.4226
  118OSM   H15C12340   5.006   6.520   5.867 -0.1051  2.7578 -2.2441
  118OSM    C1412341   5.246   6.509   5.748 -0.1644 -0.1493  0.4064
  118OSM   H14A12342   5.164   6.475   5.687  0.1250  0.7572 -0.5172
  118OSM   H14B12343   5.340   6.464   5.722 -0.4358 -0.0973 -0.7026
  118OSM   H14C12344   5.259   6.614   5.727 -0.3169  0.0052  1.0608
  118OSM    C1312345   5.324   6.573   5.966 -0.2347 -0.1314  0.5418
  118OSM   H13A12346   5.329   6.668   5.915  2.0691  0.0742  1.0669
  118OSM   H13B12347   5.422   6.527   5.967 -0.6245 -1.1717  4.2286
  118OSM   H13C12348   5.304   6.588   6.071  0.3190 -1.0714  0.7983
  118OSM    C1212349   5.206   6.344   5.936  0.2658 -0.1026 -0.3202
  118OSM   H12A12350   5.307   6.305   5.939  0.3740  0.2376  1.3360
  118OSM   H12B12351   5.160   6.295   5.851  1.7825  2.8623 -3.0784
  118OSM    C1112352   5.153   6.317   6.081 -0.2543  0.1265  0.2554
  118OSM   H11A12353   5.117   6.214   6.103 -2.3139  0.6060 -0.6002
  118OSM   H11B12354   5.061   6.375   6.103 -1.4301 -1.3565 -0.5592
  118OSM      P12355   5.382   6.271   6.196 -0.1402 -0.1704 -0.0550
  118OSM    O1312356   5.344   6.126   6.198 -0.1944 -0.2721  0.3858
  118OSM    O1412357   5.478   6.315   6.093 -0.4848 -0.3095 -0.3088
  118OSM    O1112358   5.438   6.306   6.336 -0.0750 -0.2167  0.1584
  118OSM    O1212359   5.250   6.363   6.178  0.0191  0.1960 -0.1441
  118OSM    C1S12360   5.369   6.266   6.456 -0.7386 -0.3338  0.0896
  118OSM    H1S12361   5.386   6.160   6.486 -0.0387  0.3834  2.3951
  118OSM    H1T12362   5.260   6.288   6.455 -1.0093 -1.3477  2.0610
  118OSM     NF12363   5.339   6.300   6.697 -0.0710 -0.0209 -0.6539
  118OSM    HNF12364   5.261   6.349   6.735  0.7794 -0.2392  1.5063
  118OSM    C2S12365   5.415   6.347   6.578 -0.3322  0.2602 -0.5824
  118OSM    H2S12366   5.522   6.322   6.596 -0.2328  0.7481 -0.4828
  118OSM    C3S12367   5.417   6.503   6.545  0.0510 -0.1101 -0.5113
  118OSM    H3S12368   5.311   6.524   6.519 -0.1133 -1.1144 -0.7259
  118OSM     O312369   5.478   6.544   6.426 -0.0225  0.7351  0.5780
  118OSM    HO312370   5.486   6.464   6.374  0.9775  1.8952 -1.1320
  118OSM    C4S12371   5.462   6.588   6.668  0.1634  0.0147  0.2050
  118OSM    H4S12372   5.381   6.627   6.732 -1.3611 -2.0105 -0.3842
  118OSM    C5S12373   5.591   6.624   6.692  0.3139 -0.1935  0.1205
  118OSM    H5S12374   5.664   6.609   6.611 -0.3846  1.5604 -0.9081
  118OSM    C6S12375   5.630   6.692   6.820 -0.8583 -0.4374 -0.1948
  118OSM    H6S12376   5.598   6.798   6.806 -0.4779 -0.5442 -2.1524
  118OSM    H6T12377   5.739   6.692   6.843 -1.0013 -2.2370  0.6606
  118OSM    C7S12378   5.577   6.636   6.952  0.8887 -0.4099  0.2947
  118OSM    H7S12379   5.600   6.529   6.970 -0.9361 -0.9347 -0.2543
  118OSM    H7T12380   5.466   6.641   6.949  0.9408  1.2819 -0.1902
  118OSM    C8S12381   5.616   6.720   7.076  0.1227 -0.9036 -0.0917
  118OSM    H8S12382   5.579   6.825   7.077 -0.7795 -1.2000 -0.6831
  118OSM    H8T12383   5.726   6.726   7.093 -0.2363 -1.0479  2.8349
  118OSM    C9S12384   5.551   6.658   7.205 -0.3856  0.1203  1.6002
  118OSM    H9S12385   5.569   6.548   7.214  1.1463  0.3485  1.5879
  118OSM    H9T12386   5.443   6.678   7.188 -0.0367  0.7576 -0.0870
  118OSM   C10S12387   5.590   6.725   7.339 -0.7264 -0.1461 -0.1272
  118OSM   H10S12388   5.520   6.811   7.349 -1.3317 -0.4377 -1.5748
  118OSM   H10T12389   5.693   6.766   7.335 -0.6325 -0.4372 -0.8125
  118OSM   C11S12390   5.565   6.631   7.457  0.1296  0.1562 -0.0715
  118OSM   H11S12391   5.633   6.547   7.434 -1.4177 -1.2613  0.2777
  118OSM   H11T12392   5.456   6.607   7.449  0.1440  0.6973 -3.2179
  118OSM   C12S12393   5.589   6.701   7.594 -0.0604 -0.3548  1.0883
  118OSM   H12S12394   5.517   6.782   7.619  1.5151  1.8004 -0.9316
  118OSM   H12T12395   5.689   6.748   7.586  0.7833 -2.2599 -0.1985
  118OSM   C13S12396   5.589   6.608   7.717 -0.1517 -0.1414 -0.1610
  118OSM   H13S12397   5.666   6.530   7.697  1.5065  0.9754  1.5065
  118OSM   H13T12398   5.490   6.560   7.721 -1.1542  1.8713  1.1928
  118OSM   C14S12399   5.619   6.684   7.843  0.0410  0.2466  1.0066
  118OSM   H14S12400   5.576   6.625   7.926  0.3301  0.5701  1.3889
  118OSM   H14T12401   5.560   6.778   7.843 -1.6843 -0.7778 -0.0977
  118OSM   C15S12402   5.767   6.708   7.862 -0.4074 -0.0717 -0.0253
  118OSM   H15S12403   5.796   6.795   7.799 -2.9333  1.8039  1.2102
  118OSM   H15T12404   5.827   6.621   7.829 -1.1977 -0.8484  0.5384
  118OSM   C16S12405   5.794   6.737   8.007 -0.7763  0.3508 -0.2196
  118OSM   H16S12406   5.774   6.645   8.066  0.0232 -0.0950 -0.6348
  118OSM   H16T12407   5.726   6.819   8.040 -1.2480 -0.8743  2.1188
  118OSM   C17S12408   5.949   6.765   8.038 -0.1362  0.3550  0.2459
  118OSM   H17S12409   5.984   6.849   7.974  2.6783  0.6128  1.9334
  118OSM   H17T12410   6.017   6.680   8.013  3.1497  2.6590  0.7470
  118OSM   C18S12411   5.974   6.810   8.183  0.9642 -0.3063  0.5246
  118OSM   H18S12412   5.921   6.905   8.205 -0.8375 -0.6557 -1.8857
  118OSM   H18T12413   6.083   6.807   8.203  1.2067 -3.7334 -0.6706
  118OSM   H18U12414   5.917   6.743   8.250 -0.6548 -2.0113 -2.3331
  118OSM    C1F12415   5.371   6.177   6.742 -0.3217 -0.1619 -0.0554
  118OSM     OF12416   5.460   6.103   6.696 -0.0187 -0.1347 -0.5775
  118OSM    C2F12417   5.295   6.137   6.865  0.2048  0.1561  0.5799
  118OSM    H2F12418   5.286   6.027   6.854 -3.5732  0.2891  1.0676
  118OSM    H2G12419   5.190   6.175   6.860  0.6418  1.4106  0.6414
  118OSM    C3F12420   5.360   6.167   6.999 -0.3192 -0.2689 -0.8983
  118OSM    H3F12421   5.372   6.277   6.999 -1.1145 -0.1731  0.0602
  118OSM    H3G12422   5.457   6.114   7.009 -0.4578 -0.3254  0.2844
  118OSM    C4F12423   5.269   6.139   7.121 -0.4304 -0.1153  0.1620
  118OSM    H4F12424   5.296   6.035   7.150  0.2607 -0.0954 -0.4004
  118OSM    H4G12425   5.160   6.151   7.107 -0.0934  1.4336 -1.3362
  118OSM    C5F12426   5.319   6.234   7.232  0.0445  0.1377 -0.4123
  118OSM    H5F12427   5.310   6.337   7.191  1.8159  0.8436  0.8794
  118OSM    H5G12428   5.428   6.214   7.235 -0.1519 -0.8952  0.3823
  118OSM    C6F12429   5.264   6.194   7.372 -0.4728  0.1390 -0.0230
  118OSM    H6F12430   5.289   6.089   7.396  0.4596  0.0359 -1.3695
  118OSM    H6G12431   5.153   6.201   7.369 -0.3995  1.5344 -2.4532
  118OSM    C7F12432   5.311   6.281   7.494  0.3519  0.0867  0.1061
  118OSM    H7F12433   5.262   6.381   7.490 -0.6426 -0.3331  1.1003
  118OSM    H7G12434   5.419   6.302   7.482 -0.0207  1.5127 -1.0626
  118OSM    C8F12435   5.289   6.207   7.621  0.1463 -0.3213  0.4078
  118OSM    H8F12436   5.361   6.123   7.626 -0.6341 -1.1211 -1.2032
  118OSM    H8G12437   5.187   6.164   7.615  0.7246 -1.5214 -1.3834
  118OSM    C9F12438   5.309   6.301   7.738  0.0818 -0.2414 -0.4260
  118OSM    H9F12439   5.391   6.374   7.734 -2.0623  2.5578  1.8607
  118OSM   C10F12440   5.229   6.329   7.847  0.2394  0.2768  0.1080
  118OSM   H10F12441   5.258   6.415   7.909 -0.6133  0.8636 -0.2801
  118OSM   C11F12442   5.105   6.259   7.899  0.0720 -0.5077 -0.5142
  118OSM   H11F12443   5.131   6.211   7.996 -0.3625 -0.5507 -0.4194
  118OSM   H11G12444   5.095   6.173   7.829  0.7265  0.0446 -1.3014
  118OSM   C12F12445   4.980   6.348   7.909 -1.1441 -0.2548  0.0415
  118OSM   H12F12446   4.883   6.294   7.919 -0.6086 -0.9818  1.6653
  118OSM   H12G12447   4.973   6.400   7.811  0.3656 -1.2135 -0.6086
  118OSM   C13F12448   4.966   6.450   8.027  0.4086  0.4848 -0.3805
  118OSM   H13F12449   5.051   6.522   8.030  0.2843  0.6194  2.7364
  118OSM   H13G12450   4.961   6.393   8.122 -0.4994 -0.5195 -1.0149
  118OSM   C14F12451   4.825   6.516   8.025 -0.6302  0.2997  0.2095
  118OSM   H14F12452   4.745   6.439   8.041  0.5722 -0.9638  0.3752
  118OSM   H14G12453   4.806   6.556   7.923 -1.5883 -0.9231 -0.1311
  118OSM   C15F12454   4.824   6.624   8.136 -0.1561  0.5269 -0.2922
  118OSM   H15F12455   4.914   6.688   8.130  0.2400  0.0952  0.7224
  118OSM   H15G12456   4.826   6.558   8.226  2.7657  0.2060 -0.5119
  118OSM   C16F12457   4.698   6.720   8.140 -1.4928  1.0274 -0.9061
  118OSM   H16F12458   4.617   6.646   8.127 -0.6816  0.1111 -0.9216
  118OSM   H16G12459   4.721   6.790   8.057 -0.4928  1.1833 -0.5153
  118OSM   C17F12460   4.676   6.799   8.264  0.8293  0.8145 -0.7370
  118OSM   H17F12461   4.769   6.855   8.286  0.8420  0.0433  1.4031
  118OSM   H17G12462   4.667   6.717   8.339  1.5736  2.5059  1.2812
  118OSM   C18F12463   4.547   6.880   8.259 -0.1097  0.2188 -0.2881
  118OSM   H18F12464   4.466   6.815   8.219 -0.4109  0.9283 -0.8504
  118OSM   H18G12465   4.558   6.957   8.180  0.0956  0.7629  0.2601
  118OSM   H18H12466   4.510   6.919   8.356 -0.2881 -0.5923 -0.0250
  119OSM      N12467   5.751   5.756   5.830  0.0720  0.0988  0.1449
  119OSM    C1512468   5.753   5.733   5.684 -0.4114  0.7358  0.3866
  119OSM   H15A12469   5.808   5.644   5.657 -1.1185  0.5551 -0.4875
  119OSM   H15B12470   5.796   5.813   5.625  0.0332 -1.1093 -1.9445
  119OSM   H15C12471   5.652   5.715   5.653  0.3623  0.5122 -2.2382
  119OSM    C1412472   5.670   5.638   5.884  0.0508 -0.1186  0.1966
  119OSM   H14A12473   5.699   5.542   5.842 -1.2059  0.3917 -1.9615
  119OSM   H14B12474   5.567   5.647   5.854  0.1671 -1.6764 -0.8097
  119OSM   H14C12475   5.675   5.631   5.992  0.3227  0.3767  0.2184
  119OSM    C1312476   5.884   5.750   5.882 -0.9209 -0.4785  0.5298
  119OSM   H13A12477   5.882   5.758   5.990 -0.0792  1.3741  0.4430
  119OSM   H13B12478   5.945   5.830   5.844 -1.5043 -0.3324 -0.1249
  119OSM   H13C12479   5.934   5.657   5.857 -1.8497 -0.2944 -2.3655
  119OSM    C1212480   5.675   5.884   5.875  0.0776  0.1274 -0.5923
  119OSM   H12A12481   5.581   5.897   5.823  1.6315  0.8695 -3.4266
  119OSM   H12B12482   5.734   5.968   5.841  1.0986 -0.6198 -0.7146
  119OSM    C1112483   5.633   5.895   6.027  0.4928 -0.4935  0.0365
  119OSM   H11A12484   5.570   5.809   6.056 -0.7798  1.1996  2.7299
  119OSM   H11B12485   5.557   5.976   6.028 -0.7295 -1.5921 -0.8431
  119OSM      P12486   5.825   6.050   6.114  0.2810 -0.4565 -0.2102
  119OSM    O1312487   5.957   6.017   6.164  0.2145  0.2212  0.3802
  119OSM    O1412488   5.805   6.121   5.989  0.1981 -0.7850  0.6195
  119OSM    O1112489   5.761   6.127   6.231 -0.8790  0.4116 -0.2339
  119OSM    O1212490   5.743   5.920   6.114 -1.1612  0.2207 -0.3675
  119OSM    C1S12491   5.704   6.058   6.347  0.1166 -0.2084 -0.6954
  119OSM    H1S12492   5.708   5.947   6.344  2.3852 -0.4313  3.1382
  119OSM    H1T12493   5.599   6.095   6.348 -1.3733 -3.9400  2.0444
  119OSM     NF12494   5.726   6.023   6.594  0.6257  0.5383  0.3643
  119OSM    HNF12495   5.665   6.070   6.658  0.4988  2.2006 -0.8902
  119OSM    C2S12496   5.782   6.097   6.479  0.3506 -0.2976  0.1493
  119OSM    H2S12497   5.885   6.059   6.467  0.4051 -0.6351  1.4876
  119OSM    C3S12498   5.798   6.254   6.490 -0.5872 -0.4087 -0.1444
  119OSM    H3S12499   5.703   6.311   6.481  0.3996  1.3382  0.0848
  119OSM     O312500   5.889   6.312   6.394 -0.2085 -0.5635  0.4940
  119OSM    HO312501   5.898   6.249   6.323  3.7695 -0.4941  0.7211
  119OSM    C4S12502   5.857   6.275   6.629 -0.6130 -0.3876 -0.5420
  119OSM    H4S12503   5.957   6.232   6.642  0.2133  0.7131 -2.6477
  119OSM    C5S12504   5.788   6.329   6.729  0.0759  0.1596 -0.2949
  119OSM    H5S12505   5.689   6.372   6.710 -0.2427 -0.2617  0.3729
  119OSM    C6S12506   5.840   6.352   6.868 -0.1116 -0.3545 -0.1122
  119OSM    H6S12507   5.841   6.462   6.883  1.4215 -0.3363 -0.2354
  119OSM    H6T12508   5.943   6.314   6.885  1.0853  1.6040 -2.3981
  119OSM    C7S12509   5.754   6.284   6.976  0.0897  0.4509 -0.2372
  119OSM    H7S12510   5.748   6.173   6.975 -1.9576  0.5112  0.2207
  119OSM    H7T12511   5.650   6.321   6.967 -0.2718 -0.9882 -3.1907
  119OSM    C8S12512   5.816   6.313   7.113 -0.1642 -0.0518  1.0584
  119OSM    H8S12513   5.832   6.421   7.130 -0.7646  0.3343 -0.6097
  119OSM    H8T12514   5.919   6.271   7.112 -0.1859 -0.2930 -2.3026
  119OSM    C9S12515   5.728   6.264   7.228  0.2812  0.1104 -0.0751
  119OSM    H9S12516   5.706   6.155   7.223  0.2545  0.1113  0.0124
  119OSM    H9T12517   5.627   6.310   7.223  0.5287  0.8057  1.0058
  119OSM   C10S12518   5.784   6.298   7.362  0.5576 -0.4022  0.2934
  119OSM   H10S12519   5.777   6.408   7.377 -1.0187 -0.4581  0.0874
  119OSM   H10T12520   5.893   6.274   7.365  0.4731 -0.8715 -0.2201
  119OSM   C11S12521   5.707   6.223   7.473 -0.0545 -0.7753 -0.1112
  119OSM   H11S12522   5.704   6.115   7.450  2.8423 -0.6452 -1.6093
  119OSM   H11T12523   5.603   6.259   7.481 -0.3036 -1.4107 -0.4642
  119OSM   C12S12524   5.766   6.258   7.615 -0.1736  0.4370  0.2077
  119OSM   H12S12525   5.771   6.368   7.626  1.7330  0.8875 -3.4092
  119OSM   H12T12526   5.872   6.223   7.616  0.3106  1.5708 -2.5962
  119OSM   C13S12527   5.685   6.198   7.732  0.0059 -0.1429  0.0139
  119OSM   H13S12528   5.680   6.089   7.711 -1.3442 -0.0094 -0.4599
  119OSM   H13T12529   5.581   6.234   7.736 -0.7605 -2.2691  0.8414
  119OSM   C14S12530   5.741   6.235   7.866 -0.0448  0.2152  0.6360
  119OSM   H14S12531   5.756   6.345   7.858  1.4939  0.0535  0.9817
  119OSM   H14T12532   5.843   6.192   7.870  0.6040  1.7620  2.2666
  119OSM   C15S12533   5.676   6.186   7.994 -0.1700 -0.3114 -0.1017
  119OSM   H15S12534   5.676   6.075   7.983 -2.7026 -0.2735 -1.2947
  119OSM   H15T12535   5.568   6.212   7.984 -0.2158 -0.8777 -1.2528
  119OSM   C16S12536   5.758   6.230   8.116 -0.1215 -0.3351  0.0504
  119OSM   H16S12537   5.856   6.179   8.119 -0.5635 -1.2279 -0.3438
  119OSM   H16T12538   5.712   6.193   8.210  1.1301  0.7650  1.1395
  119OSM   C17S12539   5.777   6.387   8.121 -0.3181 -0.3249 -0.6039
  119OSM   H17S12540   5.685   6.446   8.104  0.1451  0.0276 -2.0040
  119OSM   H17T12541   5.846   6.418   8.040  0.6315 -0.4236  0.1448
  119OSM   C18S12542   5.843   6.417   8.259  0.0146 -0.7119 -0.1963
  119OSM   H18S12543   5.872   6.523   8.271  0.5030 -0.6016 -1.9984
  119OSM   H18T12544   5.933   6.354   8.276  0.6806  0.8236  2.5466
  119OSM   H18U12545   5.774   6.400   8.344  0.2695 -0.1227  0.1365
  119OSM    C1F12546   5.743   5.891   6.611  0.0786  0.7128  1.0650
  119OSM     OF12547   5.822   5.829   6.545  0.2788 -0.4853  0.8978
  119OSM    C2F12548   5.671   5.824   6.723 -0.3260 -0.2394 -0.6936
  119OSM    H2F12549   5.690   5.715   6.728  0.1373 -0.1022  1.3360
  119OSM    H2G12550   5.563   5.840   6.701 -0.2794  1.4631  0.1657
  119OSM    C3F12551   5.707   5.888   6.858 -0.0781  0.2694 -0.9128
  119OSM    H3F12552   5.676   5.994   6.864 -0.0541  0.2332 -0.0053
  119OSM    H3G12553   5.817   5.878   6.874 -0.1275 -1.6436 -1.5944
  119OSM    C4F12554   5.641   5.810   6.971 -0.2604  0.6280 -0.4484
  119OSM    H4F12555   5.676   5.705   6.975 -0.7434  0.5020  1.0674
  119OSM    H4G12556   5.532   5.801   6.952 -0.8909  0.6295  2.5271
  119OSM    C5F12557   5.655   5.866   7.114  0.6620  0.2867 -0.5872
  119OSM    H5F12558   5.618   5.971   7.115 -1.1899 -0.3261  0.1209
  119OSM    H5G12559   5.759   5.863   7.152  0.7299  2.3011 -0.5391
  119OSM    C6F12560   5.552   5.794   7.199  0.3782 -0.0550 -0.0005
  119OSM    H6F12561   5.571   5.684   7.197  2.0642  0.1381  1.8583
  119OSM    H6G12562   5.448   5.816   7.167  1.5557 -1.6232 -6.2142
  119OSM    C7F12563   5.569   5.826   7.352  0.5362  0.0987  0.0165
  119OSM    H7F12564   5.563   5.935   7.374  2.5078  0.1499  0.4791
  119OSM    H7G12565   5.674   5.799   7.376  0.4495  0.3102  0.6641
  119OSM    C8F12566   5.492   5.727   7.440  0.3009 -0.9347  0.3586
  119OSM    H8F12567   5.534   5.744   7.541  1.3780  1.0769 -0.3719
  119OSM    H8G12568   5.519   5.625   7.404  0.1425 -1.1581  0.8734
  119OSM    C9F12569   5.348   5.759   7.433 -0.0525  0.0097  0.2687
  119OSM    H9F12570   5.309   5.785   7.333  1.2427 -0.4777 -0.3842
  119OSM   C10F12571   5.261   5.768   7.540 -0.3971 -0.0270 -0.6077
  119OSM   H10F12572   5.156   5.787   7.517 -1.0384  1.8916  3.0416
  119OSM   C11F12573   5.290   5.729   7.684 -0.0371  0.6861  0.5891
  119OSM   H11F12574   5.384   5.671   7.684 -0.6484 -0.3473 -0.3216
  119OSM   H11G12575   5.209   5.663   7.721  0.3922 -0.0709  0.1975
  119OSM   C12F12576   5.304   5.842   7.779  0.5328 -1.0452 -0.4455
  119OSM   H12F12577   5.213   5.906   7.773 -1.4134 -3.3698  1.8070
  119OSM   H12G12578   5.392   5.906   7.757 -0.4818  1.3409  1.8719
  119OSM   C13F12579   5.316   5.790   7.921 -0.0537 -0.0231 -0.3655
  119OSM   H13F12580   5.406   5.728   7.940 -0.5565 -0.9819 -1.0457
  119OSM   H13G12581   5.227   5.725   7.928  0.2306 -0.4879 -1.0226
  119OSM   C14F12582   5.306   5.912   8.025 -0.6060  0.7284  0.3557
  119OSM   H14F12583   5.202   5.950   8.013 -0.6082  0.4186 -0.6434
  119OSM   H14G12584   5.381   5.988   7.994 -0.3670  0.0032 -0.8930
  119OSM   C15F12585   5.320   5.877   8.179  0.3060  0.1645  0.0806
  119OSM   H15F12586   5.240   5.802   8.196 -0.3311  0.8675  0.2391
  119OSM   H15G12587   5.306   5.971   8.236  0.6365  0.4144 -0.2478
  119OSM   C16F12588   5.458   5.820   8.230  0.2995  0.8091 -0.5421
  119OSM   H16F12589   5.453   5.717   8.191 -4.3022 -0.4026  2.4534
  119OSM   H16G12590   5.454   5.798   8.338 -1.8665 -0.6588 -0.8606
  119OSM   C17F12591   5.574   5.910   8.209 -0.1823  0.2647 -0.1901
  119OSM   H17F12592   5.572   5.997   8.278 -1.1192  0.1093 -0.0113
  119OSM   H17G12593   5.575   5.957   8.108  1.7086 -2.2106 -1.4541
  119OSM   C18F12594   5.708   5.836   8.227 -0.6220 -0.2472 -0.2232
  119OSM   H18F12595   5.705   5.744   8.166 -1.3611 -0.3712 -0.0067
  119OSM   H18G12596   5.713   5.805   8.333  1.8769 -0.1732 -0.2554
  119OSM   H18H12597   5.797   5.899   8.204 -0.3673 -0.4224  0.2581
  120OSM      N12598   3.776   2.680   5.989 -0.0119 -0.2089 -0.1166
  120OSM    C1512599   3.640   2.696   5.917 -0.4702  0.1180 -0.3416
  120OSM   H15A12600   3.563   2.727   5.985 -1.9998  0.5232 -2.1649
  120OSM   H15B12601   3.623   2.595   5.882  0.8369 -0.2425 -0.0094
  120OSM   H15C12602   3.642   2.754   5.826 -0.0315 -1.1988 -1.2126
  120OSM    C1412603   3.769   2.589   6.104  0.3656 -0.4648  0.7560
  120OSM   H14A12604   3.747   2.487   6.074 -0.8695  0.1621 -0.5884
  120OSM   H14B12605   3.694   2.613   6.178 -0.7520 -2.2891  0.2710
  120OSM   H14C12606   3.868   2.583   6.148  0.3345 -2.0651  0.6571
  120OSM    C1312607   3.862   2.602   5.893 -0.4281  0.6008 -0.6128
  120OSM   H13A12608   3.956   2.572   5.937 -2.2110 -1.0355  2.4389
  120OSM   H13B12609   3.878   2.662   5.805  0.2603  0.2276 -0.7536
  120OSM   H13C12610   3.821   2.508   5.859 -1.3719  0.9007 -0.3246
  120OSM    C1212611   3.846   2.814   6.028  0.1685 -0.2029  0.2380
  120OSM   H12A12612   3.764   2.869   6.073 -1.3660 -1.8201 -0.4410
  120OSM   H12B12613   3.880   2.858   5.935  0.7767 -1.7133 -0.2821
  120OSM    C1112614   3.969   2.811   6.125  0.9290  0.3949 -0.1514
  120OSM   H11A12615   3.944   2.744   6.210  3.8589 -0.4395  0.1613
  120OSM   H11B12616   3.978   2.913   6.168  0.1307  0.4443 -0.0885
  120OSM      P12617   4.210   2.868   6.042 -0.0080  0.0885 -0.1254
  120OSM    O1312618   4.316   2.824   5.953  0.1376  0.9570  0.2348
  120OSM    O1412619   4.154   3.002   6.022 -0.7190  0.0432 -0.3889
  120OSM    O1112620   4.273   2.871   6.186  0.0266 -0.3332  0.2436
  120OSM    O1212621   4.092   2.768   6.067  0.0426 -0.4234  0.2505
  120OSM    C1S12622   4.362   2.765   6.232  0.3339 -0.1297  0.2529
  120OSM    H1S12623   4.465   2.794   6.203  0.2829 -0.4909 -0.3027
  120OSM    H1T12624   4.337   2.667   6.185  0.0370  0.3088 -0.5313
  120OSM     NF12625   4.441   2.616   6.418  0.3116 -0.3112  0.6856
  120OSM    HNF12626   4.396   2.533   6.450  1.2376 -0.7617  0.8595
  120OSM    C2S12627   4.358   2.737   6.387 -0.4406 -0.0281 -0.5474
  120OSM    H2S12628   4.421   2.814   6.436 -0.4813 -0.5325  0.3155
  120OSM    C3S12629   4.220   2.736   6.453 -0.0942  0.1648 -0.1491
  120OSM    H3S12630   4.162   2.660   6.396 -0.5158  1.1053 -0.9900
  120OSM     O312631   4.149   2.858   6.424 -0.1166  0.9235  0.3876
  120OSM    HO312632   4.192   2.889   6.344 -0.6142 -2.7127 -1.4821
  120OSM    C4S12633   4.225   2.701   6.601  0.3923 -0.3498  0.5031
  120OSM    H4S12634   4.292   2.770   6.653  0.4882  0.3593 -0.5222
  120OSM    C5S12635   4.155   2.602   6.661  0.4486  0.0704  0.6017
  120OSM    H5S12636   4.102   2.531   6.596  0.2573  1.4977 -0.8444
  120OSM    C6S12637   4.159   2.580   6.808  0.0639 -0.5836 -0.3851
  120OSM    H6S12638   4.170   2.469   6.817  0.5707 -0.5750 -0.8395
  120OSM    H6T12639   4.062   2.611   6.853  0.0997 -1.0916  0.0530
  120OSM    C7S12640   4.278   2.631   6.900 -0.0102 -0.5262 -1.1543
  120OSM    H7S12641   4.281   2.742   6.909  0.8416 -0.6958  1.3948
  120OSM    H7T12642   4.376   2.615   6.851  0.7997  1.4887 -0.2984
  120OSM    C8S12643   4.280   2.575   7.039  0.3516 -0.0765 -0.5841
  120OSM    H8S12644   4.381   2.601   7.079  0.7195  0.2282 -1.6693
  120OSM    H8T12645   4.287   2.464   7.036  0.5005 -0.1432  1.3558
  120OSM    C9S12646   4.175   2.650   7.130  0.4410  0.6218 -0.6232
  120OSM    H9S12647   4.080   2.592   7.130  0.4610  0.5098 -2.6397
  120OSM    H9T12648   4.145   2.746   7.083 -1.5879  0.2251 -0.2483
  120OSM   C10S12649   4.224   2.684   7.274  0.0063 -0.2793 -0.7958
  120OSM   H10S12650   4.326   2.727   7.269 -1.5081  3.6859 -2.1608
  120OSM   H10T12651   4.233   2.582   7.315  1.0831 -0.1545 -0.7074
  120OSM   C11S12652   4.126   2.773   7.351  0.3951 -0.3777 -0.2032
  120OSM   H11S12653   4.018   2.746   7.353 -0.1170  1.5499  0.5044
  120OSM   H11T12654   4.123   2.873   7.304  0.9061 -0.4444 -0.3795
  120OSM   C12S12655   4.170   2.784   7.493  0.0750  1.0951  1.1687
  120OSM   H12S12656   4.276   2.817   7.489  0.6471 -0.7503 -1.1611
  120OSM   H12T12657   4.167   2.689   7.551  0.7516  0.0852 -0.3605
  120OSM   C13S12658   4.093   2.898   7.552 -0.1406 -0.0220  0.0876
  120OSM   H13S12659   3.982   2.886   7.554 -0.2080  0.5895  0.0673
  120OSM   H13T12660   4.109   2.993   7.497 -1.2194  0.4270  0.5092
  120OSM   C14S12661   4.128   2.906   7.703 -0.0889 -0.1562  0.4901
  120OSM   H14S12662   4.236   2.925   7.722  0.1388 -1.5105  0.6257
  120OSM   H14T12663   4.107   2.807   7.748  1.6337 -1.2333 -0.9423
  120OSM   C15S12664   4.057   3.019   7.784 -0.5823 -0.5550  0.2627
  120OSM   H15S12665   3.950   2.992   7.782 -0.3561 -1.7847  2.1414
  120OSM   H15T12666   4.087   3.119   7.746  1.3232 -1.7651 -1.7214
  120OSM   C16S12667   4.089   3.013   7.933 -0.5622  0.0379  0.5066
  120OSM   H16S12668   4.198   3.009   7.954 -0.5938  1.6397  1.0935
  120OSM   H16T12669   4.062   2.914   7.976  1.0131 -1.3123 -1.3872
  120OSM   C17S12670   4.022   3.116   8.014  0.1552  0.9764  0.6604
  120OSM   H17S12671   3.912   3.097   8.015  0.3584 -0.5744 -1.1710
  120OSM   H17T12672   4.035   3.214   7.964 -0.2503  1.5151  1.5860
  120OSM   C18S12673   4.075   3.134   8.154 -0.2368 -0.0525  0.4104
  120OSM   H18S12674   4.179   3.172   8.152 -1.2967  3.4242  2.1201
  120OSM   H18T12675   4.079   3.031   8.195 -2.6230 -1.0047 -1.4629
  120OSM   H18U12676   4.007   3.200   8.212 -2.9804 -0.0235 -2.5868
  120OSM    C1F12677   4.572   2.611   6.399 -0.3777  0.1695 -0.5287
  120OSM     OF12678   4.635   2.707   6.352  0.0556  0.1186 -0.7402
  120OSM    C2F12679   4.634   2.493   6.462 -0.2227 -0.2620  0.1632
  120OSM    H2F12680   4.684   2.425   6.389  0.0622  1.3238 -1.1909
  120OSM    H2G12681   4.554   2.431   6.507 -2.2996  0.6421 -2.0314
  120OSM    C3F12682   4.731   2.535   6.574  0.4028  0.4475  0.4827
  120OSM    H3F12683   4.828   2.576   6.539  0.5659 -0.3766 -0.0614
  120OSM    H3G12684   4.760   2.441   6.626 -1.9858  0.7201  2.5272
  120OSM    C4F12685   4.673   2.629   6.679  0.2437 -0.9047 -0.0823
  120OSM    H4F12686   4.573   2.607   6.722 -0.2118  1.0935 -0.0082
  120OSM    H4G12687   4.668   2.734   6.642  0.7746 -0.6651  0.5081
  120OSM    C5F12688   4.767   2.643   6.808 -0.2777 -0.2483  0.4168
  120OSM    H5F12689   4.845   2.713   6.771 -0.3381 -1.0287 -1.2734
  120OSM    H5G12690   4.812   2.544   6.830  1.3331  0.1158 -1.0624
  120OSM    C6F12691   4.688   2.700   6.930 -0.1667 -0.0234 -0.3736
  120OSM    H6F12692   4.610   2.625   6.952  1.3786 -1.3464  0.8540
  120OSM    H6G12693   4.640   2.793   6.893  0.8496 -0.5112 -3.1795
  120OSM    C7F12694   4.774   2.713   7.058 -0.2929 -0.6177  0.5693
  120OSM    H7F12695   4.870   2.763   7.034 -1.0588  0.6163 -0.0262
  120OSM    H7G12696   4.795   2.611   7.096 -0.4272 -0.5269  0.8844
  120OSM    C8F12697   4.706   2.793   7.165  0.7305  0.2479 -0.2736
  120OSM    H8F12698   4.605   2.749   7.185  0.0293  2.3552  1.2179
  120OSM    H8G12699   4.677   2.893   7.129 -3.9661  0.1674  2.4093
  120OSM    C9F12700   4.788   2.816   7.296  0.3068  0.6264 -0.0256
  120OSM    H9F12701   4.874   2.884   7.289 -0.8296  2.0646 -0.6609
  120OSM   C10F12702   4.738   2.780   7.413 -0.2162  0.0531 -0.0065
  120OSM   H10F12703   4.803   2.822   7.491 -0.6393  0.5708  0.0690
  120OSM   C11F12704   4.610   2.706   7.454  0.4772  0.4532 -1.2106
  120OSM   H11F12705   4.629   2.597   7.449  1.3764  0.6549 -3.9780
  120OSM   H11G12706   4.538   2.704   7.370  0.7975 -2.2679 -1.5251
  120OSM   C12F12707   4.554   2.733   7.588 -0.7888 -0.2166 -0.6339
  120OSM   H12F12708   4.466   2.667   7.601 -1.5216  0.3827 -2.3639
  120OSM   H12G12709   4.528   2.838   7.611  0.8119 -0.3932  2.5107
  120OSM   C13F12710   4.638   2.707   7.707 -0.4341  0.0827 -0.6038
  120OSM   H13F12711   4.721   2.781   7.708 -0.5490  0.2116 -0.2793
  120OSM   H13G12712   4.683   2.606   7.697  0.6539  0.4523  0.3807
  120OSM   C14F12713   4.571   2.718   7.841 -0.0554  0.2032  0.0455
  120OSM   H14F12714   4.482   2.651   7.834 -0.4474  0.6911  0.2591
  120OSM   H14G12715   4.537   2.824   7.836  1.2403  0.6122 -0.5628
  120OSM   C15F12716   4.655   2.695   7.969 -0.2488  0.2026 -0.9011
  120OSM   H15F12717   4.690   2.591   7.983 -0.3800  0.2368 -0.2811
  120OSM   H15G12718   4.585   2.703   8.056  2.1506 -1.2100  1.3011
  120OSM   C16F12719   4.768   2.796   7.982 -0.1293  0.0462 -0.1280
  120OSM   H16F12720   4.725   2.896   7.960  1.6659  0.0446 -5.0635
  120OSM   H16G12721   4.845   2.779   7.903 -0.4958  2.4096 -1.0836
  120OSM   C17F12722   4.833   2.793   8.125 -0.0233 -0.2344  0.0160
  120OSM   H17F12723   4.887   2.696   8.119 -0.9060 -0.6525 -2.3049
  120OSM   H17G12724   4.750   2.786   8.199 -1.5057  0.3117 -1.5485
  120OSM   C18F12725   4.923   2.915   8.152 -0.7410  0.2829  0.8558
  120OSM   H18F12726   4.857   3.004   8.161 -1.0213  0.5036 -2.1754
  120OSM   H18G12727   5.001   2.944   8.077 -1.5549  0.4526  0.0546
  120OSM   H18H12728   4.977   2.891   8.246  0.4417  0.5643  0.2754
  121OSM      N12729   1.849   4.466   5.610  0.0495  0.2692 -0.7554
  121OSM    C1512730   1.731   4.413   5.536  0.6820 -0.4687 -0.4440
  121OSM   H15A12731   1.761   4.349   5.455 -0.5027  3.3734 -4.3142
  121OSM   H15B12732   1.662   4.490   5.506 -0.1742 -1.0001  0.1250
  121OSM   H15C12733   1.664   4.358   5.600 -2.3316  1.0843 -2.0483
  121OSM    C1412734   1.936   4.353   5.658 -0.2968 -0.8988 -0.5229
  121OSM   H14A12735   1.967   4.295   5.573  0.2745  0.4303 -1.2493
  121OSM   H14B12736   1.879   4.285   5.720 -1.9215  0.6436 -0.2458
  121OSM   H14C12737   2.019   4.394   5.715  0.6355  0.2276 -2.5822
  121OSM    C1312738   1.937   4.542   5.515  0.0219 -0.1699 -0.7186
  121OSM   H13A12739   1.872   4.598   5.449 -1.9091 -0.9280  0.4342
  121OSM   H13B12740   1.998   4.480   5.450  0.4331  1.6175 -2.1112
  121OSM   H13C12741   2.001   4.614   5.562  0.8467  0.0239 -2.0759
  121OSM    C1212742   1.812   4.552   5.722  0.2929 -0.1227 -0.3689
  121OSM   H12A12743   1.762   4.640   5.685  1.0038  0.7154  0.6314
  121OSM   H12B12744   1.897   4.601   5.767 -1.3174  0.0174  2.8292
  121OSM    C1112745   1.716   4.494   5.832 -0.0119  0.6960  0.2014
  121OSM   H11A12746   1.709   4.562   5.920  1.1271  1.5825 -0.3794
  121OSM   H11B12747   1.758   4.405   5.883 -0.8161 -0.9391 -1.8518
  121OSM      P12748   1.489   4.583   5.763  0.0757 -0.1517  0.4211
  121OSM    O1312749   1.553   4.698   5.829 -0.4993 -0.2156  0.0236
  121OSM    O1412750   1.448   4.590   5.622 -0.6786 -0.4814  0.6741
  121OSM    O1112751   1.373   4.542   5.859 -0.3494  0.0866  0.9737
  121OSM    O1212752   1.590   4.458   5.774 -0.1877  0.1100 -0.3569
  121OSM    C1S12753   1.394   4.458   5.975  0.6562 -0.2257  1.0348
  121OSM    H1S12754   1.480   4.390   5.958  2.5336  2.2212  0.1545
  121OSM    H1T12755   1.308   4.389   5.993  0.3271 -1.0580 -2.9265
  121OSM     NF12756   1.425   4.447   6.222 -0.1012 -0.3482 -0.3432
  121OSM    HNF12757   1.358   4.461   6.294 -0.8342  1.9499 -1.3892
  121OSM    C2S12758   1.418   4.539   6.108  0.7833  0.8241 -0.4341
  121OSM    H2S12759   1.518   4.585   6.095  0.6595  0.9675 -0.9022
  121OSM    C3S12760   1.311   4.655   6.138 -1.3765 -0.0143 -0.0167
  121OSM    H3S12761   1.209   4.612   6.134 -1.1998 -0.8652  2.4527
  121OSM     O312762   1.307   4.752   6.039  0.1646 -0.5770  0.6740
  121OSM    HO312763   1.347   4.713   5.960  1.0220  0.8610  0.3563
  121OSM    C4S12764   1.335   4.730   6.270  0.0731  0.2048  0.6605
  121OSM    H4S12765   1.259   4.700   6.343 -0.8990 -1.3312 -0.8903
  121OSM    C5S12766   1.422   4.829   6.291  0.3393  0.3312 -0.2411
  121OSM    H5S12767   1.486   4.864   6.209  1.7933 -1.3280  0.1249
  121OSM    C6S12768   1.414   4.920   6.416  0.4322  0.0078  0.0395
  121OSM    H6S12769   1.388   5.019   6.372  0.1718 -0.0030  0.1676
  121OSM    H6T12770   1.517   4.939   6.454  0.4214 -1.6515  0.9596
  121OSM    C7S12771   1.309   4.901   6.529 -0.0888 -0.4955 -0.5692
  121OSM    H7S12772   1.321   4.800   6.574  4.0865  0.1225  0.1600
  121OSM    H7T12773   1.202   4.904   6.499 -0.6310 -2.5681  0.9715
  121OSM    C8S12774   1.341   5.014   6.629 -1.1115 -0.3141 -0.0244
  121OSM    H8S12775   1.301   5.109   6.589 -2.5695 -0.3149  1.3058
  121OSM    H8T12776   1.451   5.025   6.630 -1.1593  0.2013  0.9655
  121OSM    C9S12777   1.283   4.999   6.771 -0.0379 -0.2649 -0.1286
  121OSM    H9S12778   1.173   4.994   6.757 -0.5835  2.2324  2.4329
  121OSM    H9T12779   1.296   5.097   6.821 -1.8101 -0.1875  0.2337
  121OSM   C10S12780   1.328   4.872   6.842 -0.0288 -0.6002  0.2456
  121OSM   H10S12781   1.439   4.880   6.852 -0.1377  1.5270  0.2532
  121OSM   H10T12782   1.302   4.784   6.779  1.6543 -1.1252  0.2214
  121OSM   C11S12783   1.267   4.848   6.977  0.0208  0.0368 -1.0029
  121OSM   H11S12784   1.304   4.749   7.011  1.1297 -0.3032 -3.0478
  121OSM   H11T12785   1.157   4.847   6.964 -0.0131 -0.2097 -0.6995
  121OSM   C12S12786   1.293   4.964   7.077  1.0319  0.7508  0.3655
  121OSM   H12S12787   1.261   5.065   7.044  0.8487  0.3483 -0.7650
  121OSM   H12T12788   1.403   4.967   7.088  1.0822 -0.3314  0.2757
  121OSM   C13S12789   1.217   4.942   7.216 -0.1444 -0.1641  0.6989
  121OSM   H13S12790   1.251   5.025   7.283  1.1720 -0.2512  0.1691
  121OSM   H13T12791   1.264   4.850   7.257  2.0266  0.2744 -0.6527
  121OSM   C14S12792   1.067   4.932   7.223 -0.5580 -0.1744  0.0157
  121OSM   H14S12793   1.030   4.853   7.155 -1.3905  1.2227 -1.2172
  121OSM   H14T12794   1.024   5.024   7.177 -1.3080  0.0432  1.1131
  121OSM   C15S12795   1.015   4.897   7.361  0.3170 -0.1074  0.2733
  121OSM   H15S12796   1.040   4.986   7.422 -2.6413 -0.5453  2.3637
  121OSM   H15T12797   1.069   4.809   7.403 -3.6979 -3.3764 -0.7156
  121OSM   C16S12798   0.867   4.858   7.378 -0.2167  0.0791  0.2198
  121OSM   H16S12799   0.846   4.760   7.330  0.8599 -0.5893  1.0534
  121OSM   H16T12800   0.804   4.934   7.327 -0.0249  1.0898  1.4485
  121OSM   C17S12801   0.832   4.858   7.524 -0.1251  0.0761 -0.3840
  121OSM   H17S12802   0.851   4.958   7.568  3.5393 -0.7713  0.2729
  121OSM   H17T12803   0.899   4.784   7.573 -0.7532 -1.4883 -1.7728
  121OSM   C18S12804   0.690   4.822   7.555 -0.1166 -0.2191  0.6129
  121OSM   H18S12805   0.618   4.867   7.483  0.6090 -0.9474 -0.5996
  121OSM   H18T12806   0.664   4.837   7.662 -0.3781 -3.0329  1.0169
  121OSM   H18U12807   0.692   4.711   7.544 -1.6763 -0.2229  0.1784
  121OSM    C1F12808   1.507   4.351   6.240 -0.4068 -0.2556 -0.2862
  121OSM     OF12809   1.607   4.340   6.171  0.6365  0.0237  0.0274
  121OSM    C2F12810   1.468   4.257   6.349 -0.8653  0.5316  0.9933
  121OSM    H2F12811   1.358   4.257   6.360 -0.7631  0.9902  2.1462
  121OSM    H2G12812   1.523   4.291   6.440 -0.2179  0.7181  0.5437
  121OSM    C3F12813   1.522   4.119   6.314 -0.2551  0.9617 -0.5516
  121OSM    H3F12814   1.630   4.109   6.288 -0.5808 -1.7502 -1.1113
  121OSM    H3G12815   1.477   4.094   6.215  1.8615 -2.5727 -0.8074
  121OSM    C4F12816   1.472   4.010   6.414  0.3394 -0.4187 -0.5777
  121OSM    H4F12817   1.371   4.044   6.445 -0.0198 -1.3136 -0.7327
  121OSM    H4G12818   1.522   4.021   6.512 -1.4318  2.2065  0.1436
  121OSM    C5F12819   1.471   3.874   6.361  0.0580  0.5840 -0.4313
  121OSM    H5F12820   1.575   3.844   6.340  0.7543  1.5572  1.3621
  121OSM    H5G12821   1.423   3.860   6.262 -0.6787 -0.6003  0.0622
  121OSM    C6F12822   1.430   3.765   6.466 -0.2468  0.7362 -0.2084
  121OSM    H6F12823   1.427   3.665   6.417 -1.9274  1.5024 -1.7813
  121OSM    H6G12824   1.325   3.771   6.503 -0.5609  3.0496 -1.3137
  121OSM    C7F12825   1.528   3.764   6.589  0.0635  0.4546  0.2974
  121OSM    H7F12826   1.524   3.860   6.645  0.3153  0.4292  0.3583
  121OSM    H7G12827   1.630   3.745   6.551  0.0210  1.4352 -0.3587
  121OSM    C8F12828   1.487   3.649   6.673  0.0017 -0.3991  0.0617
  121OSM    H8F12829   1.487   3.556   6.613 -0.1005 -0.3300 -0.0463
  121OSM    H8G12830   1.380   3.642   6.701 -0.0406  0.1850  0.0567
  121OSM    C9F12831   1.582   3.636   6.785  0.0153 -0.2514 -0.6555
  121OSM    H9F12832   1.656   3.556   6.772 -1.1363 -1.1462 -2.0220
  121OSM   C10F12833   1.593   3.711   6.899  0.4817 -0.2288  0.2628
  121OSM   H10F12834   1.664   3.673   6.974 -0.6993 -1.2242  0.9061
  121OSM   C11F12835   1.511   3.827   6.951  0.2829  0.5586  0.6596
  121OSM   H11F12836   1.445   3.863   6.870 -0.9515 -0.1746  1.3122
  121OSM   H11G12837   1.568   3.914   6.990  0.7514  0.7845 -0.4924
  121OSM   C12F12838   1.433   3.779   7.074 -0.5470  0.2864  0.0987
  121OSM   H12F12839   1.383   3.683   7.051 -1.9354  1.3844 -1.7252
  121OSM   H12G12840   1.362   3.860   7.102  0.3620  0.7059  1.2990
  121OSM   C13F12841   1.520   3.775   7.203  0.0609 -0.1005 -0.2181
  121OSM   H13F12842   1.574   3.871   7.210 -0.2030  0.1174 -1.0602
  121OSM   H13G12843   1.600   3.698   7.193  0.7198  0.8021 -2.4259
  121OSM   C14F12844   1.436   3.739   7.328 -0.2797  0.5801 -0.1783
  121OSM   H14F12845   1.344   3.686   7.297  1.0836 -1.9797 -0.1477
  121OSM   H14G12846   1.404   3.837   7.367 -1.5192  0.1566 -0.1006
  121OSM   C15F12847   1.515   3.661   7.429 -0.2207 -0.3622  0.4661
  121OSM   H15F12848   1.617   3.705   7.432  0.4502 -1.8642  0.5304
  121OSM   H15G12849   1.536   3.554   7.412 -0.7924 -0.7829  2.2272
  121OSM   C16F12850   1.461   3.703   7.567  1.0832 -0.5985 -0.5156
  121OSM   H16F12851   1.358   3.663   7.566  1.2347 -1.0527 -2.0628
  121OSM   H16G12852   1.447   3.813   7.573 -2.0705 -1.0048  2.3124
  121OSM   C17F12853   1.550   3.652   7.672  0.2503 -0.0967 -0.1760
  121OSM   H17F12854   1.647   3.704   7.659  0.6336 -0.7371  0.1248
  121OSM   H17G12855   1.571   3.544   7.662  0.2994  0.0812 -2.9316
  121OSM   C18F12856   1.506   3.707   7.816 -0.1460  0.1360  0.5343
  121OSM   H18F12857   1.585   3.673   7.886 -0.7341  1.2567  1.7919
  121OSM   H18G12858   1.407   3.662   7.841  0.4218 -1.2304  0.3831
  121OSM   H18H12859   1.493   3.818   7.819 -1.5806 -0.0081  0.3597
  122OSM      N12860   5.685   0.740   6.245  0.2815 -1.0088  0.1601
  122OSM    C1512861   5.555   0.691   6.184  0.1513 -0.3792 -0.7041
  122OSM   H15A12862   5.525   0.742   6.094  0.6437 -0.0125 -0.6666
  122OSM   H15B12863   5.474   0.697   6.255 -1.2996 -1.5264 -2.1951
  122OSM   H15C12864   5.570   0.587   6.161  0.2092 -0.2809 -1.1304
  122OSM    C1412865   5.796   0.730   6.153  0.5317 -0.0567 -1.0672
  122OSM   H14A12866   5.776   0.795   6.069 -2.3735 -1.8271 -1.9064
  122OSM   H14B12867   5.809   0.627   6.123  2.8804 -0.6234  1.5019
  122OSM   H14C12868   5.883   0.766   6.206  1.1151 -1.9241 -0.6684
  122OSM    C1312869   5.672   0.888   6.278  0.2219  0.0660 -0.3162
  122OSM   H13A12870   5.752   0.922   6.342 -0.3798  1.7149 -0.4074
  122OSM   H13B12871   5.581   0.914   6.331  0.0920  0.3889 -0.7000
  122OSM   H13C12872   5.672   0.948   6.189 -0.5653 -0.8423 -0.9546
  122OSM    C1212873   5.705   0.665   6.372  0.0123 -0.1059  0.1971
  122OSM   H12A12874   5.702   0.557   6.364 -2.4096 -0.0825  0.1992
  122OSM   H12B12875   5.629   0.680   6.446  0.0687 -2.7913  0.9090
  122OSM    C1112876   5.828   0.694   6.458 -0.7607  0.3808 -0.4376
  122OSM   H11A12877   5.834   0.638   6.553  0.9331  0.2319 -0.5948
  122OSM   H11B12878   5.819   0.799   6.494  1.9974 -0.0120  1.7383
  122OSM      P12879   6.002   0.521   6.357 -0.2266  0.8170  0.1853
  122OSM    O1312880   5.891   0.421   6.345 -0.2367  0.1910 -0.0215
  122OSM    O1412881   6.088   0.524   6.238  0.1097 -0.2452  0.5085
  122OSM    O1112882   6.102   0.476   6.474  0.7432 -0.1568 -0.0326
  122OSM    O1212883   5.957   0.669   6.391  0.5615  0.2250  0.2967
  122OSM    C1S12884   6.193   0.565   6.527  0.4419 -0.7903  0.4025
  122OSM    H1S12885   6.131   0.647   6.569  0.0046 -1.2778  0.7177
  122OSM    H1T12886   6.252   0.616   6.448 -0.1934 -2.3921 -1.1558
  122OSM     NF12887   6.379   0.632   6.672  0.5648  0.2700  0.0413
  122OSM    HNF12888   6.476   0.611   6.664  0.2663 -1.1206 -0.0182
  122OSM    C2S12889   6.283   0.521   6.643 -0.1155 -1.3214 -0.1771
  122OSM    H2S12890   6.211   0.516   6.727 -2.7259  0.0797 -2.1716
  122OSM    C3S12891   6.348   0.375   6.624 -0.1927 -0.6893  0.6587
  122OSM    H3S12892   6.412   0.381   6.533 -1.1091  0.6061  0.0586
  122OSM     O312893   6.254   0.275   6.566  0.2207 -0.3301 -0.2017
  122OSM    HO312894   6.186   0.330   6.526  0.8981  0.6196 -0.0885
  122OSM    C4S12895   6.428   0.333   6.750  0.5770  0.1252 -0.1044
  122OSM    H4S12896   6.532   0.365   6.762  0.5861  0.3438 -0.7354
  122OSM    C5S12897   6.383   0.243   6.839  0.4752 -0.0346 -0.2031
  122OSM    H5S12898   6.285   0.196   6.819 -0.0528 -0.0668  2.1447
  122OSM    C6S12899   6.443   0.191   6.966  0.6381 -0.5092 -0.6982
  122OSM    H6S12900   6.528   0.261   6.983 -2.0023  2.5481  1.2185
  122OSM    H6T12901   6.482   0.088   6.954  1.6577 -0.0984 -1.0333
  122OSM    C7S12902   6.348   0.195   7.088 -0.1435  0.4101  0.4667
  122OSM    H7S12903   6.267   0.125   7.059 -0.2742  0.8567 -0.2659
  122OSM    H7T12904   6.299   0.293   7.107  0.6716  1.2144 -1.3783
  122OSM    C8S12905   6.417   0.146   7.216 -0.1506 -0.3554 -0.4794
  122OSM    H8S12906   6.501   0.218   7.231 -1.6857  1.1555  1.2964
  122OSM    H8T12907   6.457   0.044   7.198  0.8113 -0.2285  0.8153
  122OSM    C9S12908   6.320   0.160   7.335 -0.9701  0.6203 -0.4114
  122OSM    H9S12909   6.241   0.082   7.336 -1.3688  1.0043  1.5767
  122OSM    H9T12910   6.261   0.253   7.324 -0.6754  0.8633  0.0207
  122OSM   C10S12911   6.397   0.160   7.472  0.6400  0.6128 -0.4286
  122OSM   H10S12912   6.473   0.240   7.466  1.3717  0.0748  1.1374
  122OSM   H10T12913   6.457   0.067   7.484 -0.9655 -0.4043  0.1964
  122OSM   C11S12914   6.308   0.178   7.591  0.2645 -0.0480 -0.0269
  122OSM   H11S12915   6.244   0.087   7.596  1.5779 -1.0668 -0.9973
  122OSM   H11T12916   6.256   0.276   7.588 -0.2222 -0.3120 -1.9970
  122OSM   C12S12917   6.377   0.195   7.728 -0.3668 -0.4827  0.6619
  122OSM   H12S12918   6.453   0.274   7.713 -2.2476  2.0607  3.3823
  122OSM   H12T12919   6.425   0.097   7.747 -1.5468 -1.3900 -0.7315
  122OSM   C13S12920   6.281   0.236   7.844 -0.1612  0.6112  0.4741
  122OSM   H13S12921   6.217   0.147   7.861  0.0715  0.5344  0.9926
  122OSM   H13T12922   6.222   0.316   7.794  0.2666 -0.8761 -2.6644
  122OSM   C14S12923   6.350   0.267   7.982  0.2438  0.0927 -0.0107
  122OSM   H14S12924   6.427   0.344   7.963  0.2670  0.2726  0.7846
  122OSM   H14T12925   6.406   0.177   8.016  2.1317  0.6425 -1.4795
  122OSM   C15S12926   6.241   0.304   8.072  0.2962 -1.1090 -0.7776
  122OSM   H15S12927   6.277   0.317   8.176 -0.7248  0.8875 -0.6185
  122OSM   H15T12928   6.164   0.224   8.075  0.4276 -1.2182 -0.1047
  122OSM   C16S12929   6.178   0.448   8.048 -0.7669  0.0352  0.3308
  122OSM   H16S12930   6.143   0.453   7.942 -1.2771 -0.1307  0.4860
  122OSM   H16T12931   6.263   0.518   8.053  0.5096 -1.3792 -0.6690
  122OSM   C17S12932   6.051   0.482   8.126 -0.3053 -0.8211  0.3765
  122OSM   H17S12933   5.981   0.395   8.122 -2.0610  0.5659 -0.5275
  122OSM   H17T12934   5.995   0.573   8.096  2.0194  0.9820  1.2515
  122OSM   C18S12935   6.094   0.500   8.272  0.7084  0.0787 -0.6231
  122OSM   H18S12936   6.176   0.574   8.276  0.9665 -0.2180 -0.3393
  122OSM   H18T12937   6.129   0.404   8.317  0.7082  1.0356  1.5345
  122OSM   H18U12938   6.006   0.534   8.331 -2.1387 -0.7952 -3.9900
  122OSM    C1F12939   6.350   0.754   6.704  0.0027  0.0132  0.0770
  122OSM     OF12940   6.241   0.794   6.750 -0.2888 -0.1986 -0.0839
  122OSM    C2F12941   6.458   0.854   6.671  0.3423 -0.1581 -0.3454
  122OSM    H2F12942   6.397   0.942   6.641  0.4291 -0.0444 -0.1906
  122OSM    H2G12943   6.527   0.813   6.595  0.3240  1.7764 -1.4896
  122OSM    C3F12944   6.546   0.905   6.792  0.6272  0.4262  0.6360
  122OSM    H3F12945   6.631   0.956   6.742 -1.0479  3.4926  0.7098
  122OSM    H3G12946   6.587   0.818   6.848 -0.6977  0.6377  2.0187
  122OSM    C4F12947   6.464   0.983   6.891 -0.2182  0.7543  0.0627
  122OSM    H4F12948   6.378   0.921   6.924 -0.6102  0.1087 -2.0234
  122OSM    H4G12949   6.426   1.076   6.843  3.1021  1.4670 -1.4265
  122OSM    C5F12950   6.549   1.030   7.017  0.7745  0.3280 -0.0706
  122OSM    H5F12951   6.583   1.134   6.998 -2.7079  1.1844 -2.6355
  122OSM    H5G12952   6.636   0.964   7.038  0.6069  0.1102 -0.0548
  122OSM    C6F12953   6.467   1.019   7.148 -0.0871 -0.2295  0.8459
  122OSM    H6F12954   6.420   0.918   7.143  0.5572 -0.4757 -1.8775
  122OSM    H6G12955   6.374   1.080   7.145 -0.5697 -0.9800 -0.0322
  122OSM    C7F12956   6.554   1.052   7.261 -0.0476 -0.0088  0.0429
  122OSM    H7F12957   6.607   1.149   7.251  2.5246 -1.3097  0.3385
  122OSM    H7G12958   6.643   0.987   7.245  1.3225  2.1049 -1.3876
  122OSM    C8F12959   6.491   1.023   7.395  0.2286  0.5578 -0.2934
  122OSM    H8F12960   6.404   1.092   7.394 -0.7630 -0.6642 -1.3355
  122OSM    H8G12961   6.559   1.061   7.475 -1.2507  0.6274  0.9646
  122OSM    C9F12962   6.442   0.884   7.431 -0.4640 -0.3613 -0.0316
  122OSM    H9F12963   6.339   0.861   7.401 -1.6585  1.2823  2.5059
  122OSM   C10F12964   6.511   0.811   7.522  0.4016  0.0411 -1.0135
  122OSM   H10F12965   6.470   0.712   7.548  1.8371 -0.1837  0.6000
  122OSM   C11F12966   6.644   0.836   7.594 -0.3055  0.1777  0.6189
  122OSM   H11F12967   6.695   0.928   7.557 -0.6278  0.2645  0.3817
  122OSM   H11G12968   6.719   0.755   7.581  1.1283  1.2312  1.8598
  122OSM   C12F12969   6.611   0.856   7.749  0.3826  0.3373  0.7350
  122OSM   H12F12970   6.703   0.818   7.799  1.0224 -2.2942 -2.0951
  122OSM   H12G12971   6.531   0.783   7.773  0.5259 -1.4422 -3.3787
  122OSM   C13F12972   6.584   1.002   7.787  0.5488 -0.4264 -0.4439
  122OSM   H13F12973   6.502   1.042   7.724 -1.8615 -0.2859  2.5643
  122OSM   H13G12974   6.671   1.061   7.752  1.0020 -1.0580 -0.4058
  122OSM   C14F12975   6.550   1.022   7.934 -0.1628  0.1444 -0.8121
  122OSM   H14F12976   6.538   1.131   7.955  0.8890  0.4071 -1.5358
  122OSM   H14G12977   6.630   0.982   8.000 -0.8703  0.3941  0.2283
  122OSM   C15F12978   6.420   0.954   7.976  0.4328  1.3581 -0.1930
  122OSM   H15F12979   6.432   0.844   7.961 -1.8676  0.9147  0.7663
  122OSM   H15G12980   6.334   0.988   7.914 -1.8032  1.9357  2.9512
  122OSM   C16F12981   6.370   0.983   8.114 -0.4524  0.7127 -0.3201
  122OSM   H16F12982   6.336   1.088   8.116 -1.6711  0.3325  0.0731
  122OSM   H16G12983   6.455   0.970   8.184  1.3614  2.1090 -2.1201
  122OSM   C17F12984   6.251   0.892   8.148  0.0731  0.7888  0.2830
  122OSM   H17F12985   6.267   0.796   8.095  0.3960  0.9044  0.1711
  122OSM   H17G12986   6.158   0.935   8.105 -0.6683  1.3894  2.3777
  122OSM   C18F12987   6.237   0.870   8.296 -0.5671 -1.3454 -0.3311
  122OSM   H18F12988   6.230   0.971   8.342  1.1909 -0.2372 -2.3670
  122OSM   H18G12989   6.328   0.823   8.339 -1.3771 -0.9242  2.0175
  122OSM   H18H12990   6.140   0.818   8.311 -0.7338 -1.7971 -2.6950
  123OSM      N12991   2.859   2.664   5.917  0.2439  0.0932  0.0567
  123OSM    C1512992   2.805   2.685   5.780  0.3293  0.2413  0.4630
  123OSM   H15A12993   2.734   2.766   5.780 -0.8830 -0.7975  0.6957
  123OSM   H15B12994   2.757   2.596   5.743  0.9109 -0.2542  0.8688
  123OSM   H15C12995   2.882   2.714   5.710  0.4535 -1.0290  0.0600
  123OSM    C1412996   2.743   2.634   6.008  0.0343 -0.1185 -0.1460
  123OSM   H14A12997   2.779   2.622   6.109  0.0982 -2.3039 -0.3657
  123OSM   H14B12998   2.698   2.543   5.969 -0.2874 -0.5880  1.2688
  123OSM   H14C12999   2.669   2.712   5.997 -2.1724 -1.7598  1.9104
  123OSM    C1313000   2.942   2.536   5.910  0.0557 -0.3674  0.2143
  123OSM   H13A13001   2.970   2.510   6.011 -1.3675  1.2497  1.0710
  123OSM   H13B13002   3.038   2.555   5.864 -0.7082  0.3580 -1.1195
  123OSM   H13C13003   2.889   2.449   5.874  0.7313 -1.8746  2.6312
  123OSM    C1213004   2.928   2.791   5.963  0.1315 -0.5376 -0.6026
  123OSM   H12A13005   2.977   2.777   6.058 -0.2804  1.3983 -0.0575
  123OSM   H12B13006   2.850   2.863   5.982 -0.5377 -1.5432  0.6238
  123OSM    C1113007   3.025   2.863   5.862  0.2296  0.2142 -0.4398
  123OSM   H11A13008   3.071   2.943   5.923 -0.3344 -1.2790  2.1143
  123OSM   H11B13009   2.954   2.906   5.789 -1.1129 -1.7014 -0.3424
  123OSM      P13010   3.258   2.733   5.879 -0.0442  0.6646 -0.1699
  123OSM    O1313011   3.312   2.605   5.823  0.4627 -0.2616  0.2791
  123OSM    O1413012   3.347   2.851   5.872 -0.1995  0.3480 -0.0967
  123OSM    O1113013   3.213   2.713   6.036 -0.6651 -0.8629  0.4237
  123OSM    O1213014   3.119   2.774   5.802  0.1416 -0.1354  0.5779
  123OSM    C1S13015   3.314   2.651   6.118 -0.3585  0.4811 -0.3479
  123OSM    H1S13016   3.407   2.712   6.115  0.6372 -0.9117  0.7523
  123OSM    H1T13017   3.331   2.544   6.094  1.6491  0.4436  1.0099
  123OSM     NF13018   3.386   2.635   6.361 -0.2701 -0.3519  0.3724
  123OSM    HNF13019   3.376   2.562   6.428  1.5321  0.2140  1.3327
  123OSM    C2S13020   3.271   2.660   6.268  0.2553  0.2719 -0.0806
  123OSM    H2S13021   3.244   2.766   6.287 -0.3124  0.1565 -0.2279
  123OSM    C3S13022   3.134   2.579   6.293  0.4910  0.0919  0.0275
  123OSM    H3S13023   3.160   2.471   6.289  3.3091  0.7248 -1.0404
  123OSM     O313024   3.043   2.590   6.184  0.4047 -0.4343 -0.7416
  123OSM    HO313025   3.092   2.651   6.128  0.8652  0.3301  0.4514
  123OSM    C4S13026   3.075   2.631   6.422 -0.4717  0.9443 -0.4747
  123OSM    H4S13027   3.139   2.600   6.507 -3.2905  3.2945  2.7693
  123OSM    C5S13028   2.968   2.710   6.444  0.6500  0.2681  1.0465
  123OSM    H5S13029   2.909   2.731   6.353  1.0661 -0.9644  0.4778
  123OSM    C6S13030   2.921   2.768   6.571 -0.0106 -0.2992  0.5180
  123OSM    H6S13031   2.818   2.730   6.583  0.6471 -1.8066  1.8959
  123OSM    H6T13032   2.912   2.877   6.553 -0.5166 -0.8012 -2.8884
  123OSM    C7S13033   3.006   2.734   6.690 -0.7275 -0.4418  0.0047
  123OSM    H7S13034   3.109   2.768   6.665 -0.9584 -0.6416 -1.2963
  123OSM    H7T13035   3.011   2.624   6.702  1.2071 -0.3210  0.6390
  123OSM    C8S13036   2.954   2.798   6.815 -0.1685  0.1753  0.1790
  123OSM    H8S13037   2.852   2.762   6.840 -0.3027  1.2891  1.3953
  123OSM    H8T13038   2.949   2.905   6.785  0.5989 -0.5482 -2.8095
  123OSM    C9S13039   3.053   2.769   6.930 -0.6221 -0.2071  0.0593
  123OSM    H9S13040   3.152   2.807   6.897 -1.1101  0.8161 -0.2575
  123OSM    H9T13041   3.066   2.659   6.929 -1.0928 -0.2754 -1.6661
  123OSM   C10S13042   3.016   2.837   7.057 -0.2947 -0.3018  0.2234
  123OSM   H10S13043   2.914   2.805   7.088 -0.3325 -0.4337 -0.0366
  123OSM   H10T13044   3.029   2.947   7.052 -0.4854 -0.3092 -0.5419
  123OSM   C11S13045   3.114   2.795   7.167  0.1118 -0.1660 -0.2768
  123OSM   H11S13046   3.210   2.817   7.117  0.0270  1.1402  0.0944
  123OSM   H11T13047   3.103   2.690   7.200 -1.9477  0.5748  1.6829
  123OSM   C12S13048   3.097   2.875   7.298  0.0850  0.0035 -0.0111
  123OSM   H12S13049   2.999   2.854   7.346  0.6879 -0.7024  0.9201
  123OSM   H12T13050   3.093   2.980   7.262  1.8040  0.2668  0.5218
  123OSM   C13S13051   3.216   2.848   7.396  0.6825  0.3046  0.7144
  123OSM   H13S13052   3.310   2.862   7.339 -0.2251 -0.0390 -0.9405
  123OSM   H13T13053   3.202   2.741   7.423  1.2302  0.3251  1.0933
  123OSM   C14S13054   3.220   2.946   7.520  0.9113  0.3525 -0.5580
  123OSM   H14S13055   3.231   3.051   7.487  1.3945  0.0718 -1.3099
  123OSM   H14T13056   3.298   2.911   7.592  0.4059  0.4421  0.0378
  123OSM   C15S13057   3.086   2.940   7.593  0.8053  0.3816  0.3737
  123OSM   H15S13058   3.060   2.832   7.595  0.5976  0.4231  0.0403
  123OSM   H15T13059   3.004   2.990   7.537 -0.0083 -0.8909  0.3807
  123OSM   C16S13060   3.104   2.981   7.736 -0.2743 -0.0331 -0.6884
  123OSM   H16S13061   3.114   3.092   7.739  1.6221 -0.1894  0.0513
  123OSM   H16T13062   3.198   2.943   7.782  0.5949  0.6472 -1.8311
  123OSM   C17S13063   2.983   2.942   7.827  0.3574  0.4692  1.6125
  123OSM   H17S13064   2.986   2.831   7.834 -0.5401  0.0994 -1.9275
  123OSM   H17T13065   2.882   2.967   7.788 -0.3112 -2.8182  0.9722
  123OSM   C18S13066   2.998   3.007   7.970  0.8439 -0.3647  0.2949
  123OSM   H18S13067   2.976   3.115   7.958  1.7242 -0.1780  0.3038
  123OSM   H18T13068   3.099   3.000   8.014  0.6508 -0.0394  0.7942
  123OSM   H18U13069   2.934   2.953   8.043  2.7572 -0.2293  2.1376
  123OSM    C1F13070   3.499   2.707   6.370 -0.0366 -0.6332 -0.6735
  123OSM     OF13071   3.513   2.815   6.311  0.1590 -0.0987 -0.6211
  123OSM    C2F13072   3.602   2.653   6.471 -0.8198 -0.5655  0.3164
  123OSM    H2F13073   3.662   2.580   6.413  0.6834  0.7243  0.1655
  123OSM    H2G13074   3.551   2.607   6.558  1.9940 -0.0390  2.3916
  123OSM    C3F13075   3.693   2.760   6.537 -0.5982  0.1965 -0.5865
  123OSM    H3F13076   3.627   2.835   6.585  2.1141  0.7553  2.6226
  123OSM    H3G13077   3.760   2.813   6.466  0.6094  0.9428  1.0443
  123OSM    C4F13078   3.792   2.704   6.640 -0.0525 -1.1965  0.4655
  123OSM    H4F13079   3.864   2.658   6.569 -2.2013 -0.4081 -2.4226
  123OSM    H4G13080   3.749   2.630   6.711 -1.0011  0.0691  1.2629
  123OSM    C5F13081   3.854   2.813   6.714 -0.5886 -0.4269  0.1541
  123OSM    H5F13082   3.875   2.901   6.650 -0.1958 -0.1857  0.6089
  123OSM    H5G13083   3.952   2.777   6.751 -0.2010 -0.6779 -1.0809
  123OSM    C6F13084   3.777   2.869   6.841 -0.0806  0.6434 -0.0181
  123OSM    H6F13085   3.675   2.891   6.801 -1.0503  1.4131  2.6550
  123OSM    H6G13086   3.815   2.960   6.892  0.8852 -1.4783  3.3917
  123OSM    C7F13087   3.762   2.777   6.958 -0.2822 -0.4556 -0.1230
  123OSM    H7F13088   3.858   2.732   6.993 -0.1966  1.2928  2.0705
  123OSM    H7G13089   3.688   2.705   6.916 -1.3763 -0.1661  1.2585
  123OSM    C8F13090   3.706   2.847   7.084  0.1986 -0.3999 -0.5603
  123OSM    H8F13091   3.645   2.770   7.136  1.7228 -1.7717 -0.7421
  123OSM    H8G13092   3.624   2.919   7.061  1.7006  1.3602 -0.5609
  123OSM    C9F13093   3.806   2.923   7.174  0.2170  0.2664 -0.4713
  123OSM    H9F13094   3.889   2.977   7.127 -0.3707  2.1432  0.5225
  123OSM   C10F13095   3.806   2.919   7.308 -0.1070  0.1932  0.4419
  123OSM   H10F13096   3.878   2.982   7.362 -1.0028  2.1069 -0.5001
  123OSM   C11F13097   3.711   2.848   7.402 -0.6800  0.2864 -0.2946
  123OSM   H11F13098   3.770   2.802   7.484 -1.0668  0.9126  0.3404
  123OSM   H11G13099   3.664   2.761   7.351  0.0695 -0.2201 -0.1453
  123OSM   C12F13100   3.614   2.936   7.479  0.3173 -0.5011  0.6870
  123OSM   H12F13101   3.558   2.888   7.562 -0.7761  0.5114  0.5631
  123OSM   H12G13102   3.535   2.973   7.409  3.2674  3.3459 -0.9452
  123OSM   C13F13103   3.677   3.071   7.534 -0.2348  0.4056  0.6009
  123OSM   H13F13104   3.693   3.146   7.453 -0.1572 -0.8452 -0.5836
  123OSM   H13G13105   3.779   3.053   7.574 -0.3789  1.1772  1.3470
  123OSM   C14F13106   3.598   3.126   7.649  0.6269 -0.8080  0.4458
  123OSM   H14F13107   3.578   3.045   7.722 -2.4782 -0.1862  0.4132
  123OSM   H14G13108   3.496   3.156   7.618  0.7736 -0.5047  0.2609
  123OSM   C15F13109   3.647   3.239   7.724 -0.4676 -0.2497 -0.5651
  123OSM   H15F13110   3.669   3.324   7.655 -1.0922  0.3549 -0.0288
  123OSM   H15G13111   3.741   3.210   7.776 -1.4586 -2.7369 -0.0401
  123OSM   C16F13112   3.543   3.295   7.815  0.0717 -0.4703 -1.1018
  123OSM   H16F13113   3.485   3.212   7.861 -1.0360  0.6661 -0.3471
  123OSM   H16G13114   3.477   3.373   7.772 -0.4978  0.0762  0.6572
  123OSM   C17F13115   3.617   3.386   7.929  0.8973 -0.4667  0.6054
  123OSM   H17F13116   3.656   3.477   7.879  1.4099 -0.6032  0.7499
  123OSM   H17G13117   3.711   3.338   7.965  0.4416 -0.1999  2.2121
  123OSM   C18F13118   3.527   3.424   8.048 -0.5268 -0.3931  0.2344
  123OSM   H18F13119   3.439   3.477   8.006  0.5965 -0.0470 -1.7878
  123OSM   H18G13120   3.573   3.498   8.117  1.4809 -2.3424  1.1251
  123OSM   H18H13121   3.506   3.335   8.111 -0.6576 -1.1620 -0.8638
  124OSM      N13122   3.498   6.121   5.854 -0.3218 -0.2033 -0.1021
  124OSM    C1513123   3.633   6.179   5.887  0.5997 -0.1969  0.4808
  124OSM   H15A13124   3.647   6.279   5.847  2.9909  0.9414  3.7171
  124OSM   H15B13125   3.718   6.118   5.860 -0.3453 -2.3458  2.1284
  124OSM   H15C13126   3.642   6.185   5.994 -3.0328  0.7592  0.8560
  124OSM    C1413127   3.385   6.197   5.922 -0.2393 -0.1791  0.2057
  124OSM   H14A13128   3.370   6.294   5.877  0.4406  0.0395  0.4383
  124OSM   H14B13129   3.398   6.213   6.028 -3.0727  2.8687  0.2714
  124OSM   H14C13130   3.292   6.145   5.903 -0.0677  0.3458 -2.4793
  124OSM    C1313131   3.476   6.128   5.711  0.3551  0.0132 -0.1263
  124OSM   H13A13132   3.563   6.085   5.663  0.5416 -0.5020  0.6505
  124OSM   H13B13133   3.477   6.232   5.683  0.5981 -0.4902 -2.1515
  124OSM   H13C13134   3.386   6.086   5.670  1.3079 -0.1524 -2.1885
  124OSM    C1213135   3.482   5.981   5.900  0.3065  0.0544 -0.0364
  124OSM   H12A13136   3.398   5.936   5.849  1.3750 -0.7667 -1.1197
  124OSM   H12B13137   3.462   5.974   6.006  1.0069 -1.3318  0.0332
  124OSM    C1113138   3.598   5.886   5.871 -0.4989 -0.3858  0.6787
  124OSM   H11A13139   3.619   5.872   5.763  3.3987  0.0398  1.2643
  124OSM   H11B13140   3.549   5.791   5.903 -1.1622 -0.3614 -0.2112
  124OSM      P13141   3.856   5.883   5.890 -0.0330 -0.0782  0.0841
  124OSM    O1313142   3.850   5.825   5.757  0.6613  0.0909  0.3358
  124OSM    O1413143   3.927   6.016   5.901  0.3279  0.0162 -0.2006
  124OSM    O1113144   3.937   5.788   5.991 -0.4340 -0.7580  0.3402
  124OSM    O1213145   3.710   5.910   5.947  0.1546  0.3085 -0.1324
  124OSM    C1S13146   3.962   5.851   6.124  0.6206  0.1792  0.1042
  124OSM    H1S13147   3.881   5.920   6.154 -1.2219 -1.4781 -0.8224
  124OSM    H1T13148   4.051   5.917   6.124 -1.0318  2.7980  4.6180
  124OSM     NF13149   4.024   5.823   6.364  0.5630  0.4948  0.7551
  124OSM    HNF13150   4.120   5.819   6.388  0.8733 -0.4016 -0.5231
  124OSM    C2S13151   3.980   5.750   6.243  0.2224 -0.5317  0.4420
  124OSM    H2S13152   3.883   5.701   6.266  1.4325 -2.0733  2.6485
  124OSM    C3S13153   4.069   5.631   6.187 -0.4710 -0.2860 -0.4028
  124OSM    H3S13154   4.164   5.684   6.164 -1.5579  1.2063 -1.6806
  124OSM     O313155   4.052   5.573   6.059  0.4144 -0.3223 -0.3969
  124OSM    HO313156   3.986   5.636   6.029  0.4080  0.8682  1.8672
  124OSM    C4S13157   4.096   5.535   6.308 -0.2561 -0.3188  0.8414
  124OSM    H4S13158   4.181   5.562   6.372 -0.7611  2.2629  0.5019
  124OSM    C5S13159   4.021   5.434   6.341 -0.3850  0.1419 -0.0701
  124OSM    H5S13160   3.919   5.425   6.301 -0.0311 -0.3808 -0.8905
  124OSM    C6S13161   4.057   5.348   6.465  0.9430 -0.3772  0.1344
  124OSM    H6S13162   4.164   5.317   6.466  0.7424 -1.1647  1.8788
  124OSM    H6T13163   4.007   5.249   6.463  1.3469 -0.5865  0.2826
  124OSM    C7S13164   4.022   5.426   6.591 -0.6120 -0.4957 -0.8126
  124OSM    H7S13165   3.911   5.420   6.593 -0.8292  0.5757 -3.8563
  124OSM    H7T13166   4.057   5.532   6.593 -1.4695 -0.2057 -0.8513
  124OSM    C8S13167   4.051   5.342   6.726 -0.0560 -0.3114  0.0765
  124OSM    H8S13168   4.156   5.323   6.755 -0.6339  0.0454  2.5689
  124OSM    H8T13169   3.999   5.244   6.719 -1.5169  0.2221  2.3259
  124OSM    C9S13170   3.972   5.411   6.838  0.2745  0.0876  0.8622
  124OSM    H9S13171   3.956   5.346   6.927 -1.1755  0.1887  0.7031
  124OSM    H9T13172   3.873   5.442   6.799  1.6898  2.6997 -0.8809
  124OSM   C10S13173   4.036   5.537   6.881 -0.6604 -0.6864 -0.1733
  124OSM   H10S13174   4.038   5.620   6.807  0.3883  1.3591  2.0353
  124OSM   H10T13175   4.140   5.500   6.895 -0.3665 -1.2488 -3.1476
  124OSM   C11S13176   3.979   5.596   7.010  0.6155 -0.5113 -0.3899
  124OSM   H11S13177   4.002   5.529   7.096  0.5224 -1.1594 -0.8668
  124OSM   H11T13178   3.870   5.612   7.003  0.8936  1.5098 -0.7370
  124OSM   C12S13179   4.042   5.737   7.032  0.3887 -0.0680 -0.2997
  124OSM   H12S13180   4.008   5.805   6.950  2.3613  1.3411 -0.0319
  124OSM   H12T13181   4.152   5.744   7.017  0.4396 -2.1884 -1.2350
  124OSM   C13S13182   3.991   5.811   7.159  0.4151 -0.3037  0.2363
  124OSM   H13S13183   3.892   5.856   7.133 -0.4449 -2.7546 -0.9956
  124OSM   H13T13184   4.067   5.891   7.171  0.7903 -0.8791  1.9199
  124OSM   C14S13185   3.980   5.732   7.288 -0.5617  0.3601  0.1023
  124OSM   H14S13186   4.079   5.686   7.312 -1.7142 -1.5064  1.4887
  124OSM   H14T13187   3.905   5.654   7.266  1.6160 -1.2566 -2.1199
  124OSM   C15S13188   3.934   5.825   7.403  0.5280 -0.1707  0.3593
  124OSM   H15S13189   3.836   5.869   7.378 -0.8875 -1.2228  3.5419
  124OSM   H15T13190   4.009   5.907   7.400  0.8959 -0.5245 -1.3015
  124OSM   C16S13191   3.907   5.762   7.539  0.1326 -0.3107  0.0733
  124OSM   H16S13192   3.999   5.710   7.571  1.6847  1.3460 -1.4657
  124OSM   H16T13193   3.821   5.694   7.521 -2.3520  2.7001 -0.3269
  124OSM   C17S13194   3.860   5.870   7.646 -0.2909 -0.1842 -0.0551
  124OSM   H17S13195   3.768   5.922   7.611 -0.6959 -0.2664  0.8423
  124OSM   H17T13196   3.942   5.944   7.652  2.0574 -2.3175 -2.9985
  124OSM   C18S13197   3.829   5.803   7.780  0.7701  0.5748 -0.2857
  124OSM   H18S13198   3.915   5.775   7.844 -0.5171 -0.4977  1.0318
  124OSM   H18T13199   3.770   5.710   7.769  0.4853  0.8563 -1.2410
  124OSM   H18U13200   3.765   5.858   7.852 -0.6118 -0.6931 -0.5086
  124OSM    C1F13201   3.936   5.902   6.423  0.1427 -0.3375  0.4337
  124OSM     OF13202   3.819   5.905   6.392 -0.0940 -0.4428  0.2785
  124OSM    C2F13203   3.992   5.993   6.526  0.8336 -0.5338  0.0320
  124OSM    H2F13204   3.999   6.096   6.486  0.1308  0.4786  2.3275
  124OSM    H2G13205   4.097   5.967   6.549  0.4702 -1.2607  0.9403
  124OSM    C3F13206   3.906   5.982   6.659 -0.2313 -0.6974 -0.2628
  124OSM    H3F13207   3.954   5.897   6.711 -1.9664 -1.2276  0.5643
  124OSM    H3G13208   3.799   5.950   6.657 -0.6908  0.5120  1.7300
  124OSM    C4F13209   3.924   6.092   6.765 -0.6900  0.5490 -0.1690
  124OSM    H4F13210   3.899   6.194   6.728 -3.7402  0.4740  1.3618
  124OSM    H4G13211   4.032   6.092   6.794  0.1981 -3.0173 -2.8019
  124OSM    C5F13212   3.834   6.072   6.890  0.6819  0.1740 -0.7642
  124OSM    H5F13213   3.841   5.965   6.920 -1.5016 -0.1763 -1.3116
  124OSM    H5G13214   3.728   6.085   6.857 -0.0883 -0.8976  1.1572
  124OSM    C6F13215   3.877   6.159   7.007 -0.7598  0.6285 -0.3904
  124OSM    H6F13216   3.940   6.244   6.971  1.0152 -0.0724  0.9267
  124OSM    H6G13217   3.945   6.110   7.079 -2.3609  2.6379  2.6940
  124OSM    C7F13218   3.766   6.217   7.084  0.1094  0.3146 -0.5668
  124OSM    H7F13219   3.678   6.151   7.076  1.2334 -1.0949 -1.8012
  124OSM    H7G13220   3.747   6.318   7.041 -1.6688  1.5558  2.7854
  124OSM    C8F13221   3.797   6.234   7.232  0.4285  0.5549  0.6485
  124OSM    H8F13222   3.898   6.279   7.244  0.9660 -0.2742 -0.6232
  124OSM    H8G13223   3.796   6.132   7.276 -0.4607  0.2717 -0.0001
  124OSM    C9F13224   3.703   6.337   7.292 -0.1410  0.1164 -0.1653
  124OSM    H9F13225   3.730   6.440   7.265  1.1425 -0.4243 -1.0512
  124OSM   C10F13226   3.604   6.317   7.381  0.3000 -0.2106 -0.3538
  124OSM   H10F13227   3.548   6.404   7.419 -0.8032 -0.4783 -1.3250
  124OSM   C11F13228   3.565   6.190   7.436  0.1225 -0.1509 -0.0761
  124OSM   H11F13229   3.619   6.099   7.401 -1.0246 -0.4214 -1.2587
  124OSM   H11G13230   3.458   6.176   7.409 -0.2557  1.7513  0.3397
  124OSM   C12F13231   3.552   6.191   7.584  0.1529 -0.4134 -0.5669
  124OSM   H12F13232   3.642   6.216   7.645  0.1662 -2.7551  0.5008
  124OSM   H12G13233   3.522   6.085   7.598  0.0299 -0.3101 -0.0301
  124OSM   C13F13234   3.438   6.278   7.649 -0.3645  0.1512  0.0871
  124OSM   H13F13235   3.343   6.225   7.628 -1.3405  2.1091 -0.6642
  124OSM   H13G13236   3.433   6.383   7.613  1.5980  0.4252  0.5093
  124OSM   C14F13237   3.473   6.282   7.796  0.1952 -0.1242  0.3502
  124OSM   H14F13238   3.393   6.337   7.850 -1.2313 -1.4182 -0.3806
  124OSM   H14G13239   3.555   6.356   7.812 -1.6684  2.1648 -0.0899
  124OSM   C15F13240   3.480   6.149   7.864 -0.0132  0.4551  0.1762
  124OSM   H15F13241   3.574   6.094   7.843 -1.8988 -2.3809 -1.4186
  124OSM   H15G13242   3.387   6.096   7.835 -1.4376  1.0397  3.3235
  124OSM   C16F13243   3.470   6.162   8.024  0.5638 -0.2650 -0.2521
  124OSM   H16F13244   3.376   6.217   8.047  0.5973 -0.8072  1.2271
  124OSM   H16G13245   3.563   6.212   8.060 -0.0219  0.3375  0.4658
  124OSM   C17F13246   3.473   6.028   8.090 -0.1820 -0.1268  0.5717
  124OSM   H17F13247   3.555   5.968   8.044 -0.6145 -1.0639  1.0105
  124OSM   H17G13248   3.376   5.980   8.067  1.4833 -2.1624 -3.3627
  124OSM   C18F13249   3.477   6.015   8.250  0.0244 -0.6574  0.8752
  124OSM   H18F13250   3.434   5.915   8.272  0.6198 -1.3450 -0.8561
  124OSM   H18G13251   3.411   6.092   8.293  1.6959  1.7305 -0.5553
  124OSM   H18H13252   3.575   6.014   8.303 -0.4669 -2.2340  1.8282
  125OSM      N13253   0.290   3.718   5.647 -0.8493  0.2602 -0.4142
  125OSM    C1513254   0.418   3.660   5.590  0.1266 -0.4331 -0.2555
  125OSM   H15A13255   0.489   3.627   5.665  0.1291  0.2180  0.0377
  125OSM   H15B13256   0.468   3.742   5.541  1.3776  0.2071  1.9240
  125OSM   H15C13257   0.401   3.579   5.521 -0.2969  1.8993 -3.0862
  125OSM    C1413258   0.225   3.791   5.532 -0.4663 -0.0283  0.1514
  125OSM   H14A13259   0.230   3.737   5.439 -0.5730 -1.8283  1.1494
  125OSM   H14B13260   0.281   3.881   5.510 -0.8621 -0.4089 -2.7819
  125OSM   H14C13261   0.120   3.798   5.555 -0.9842 -1.6143 -1.5008
  125OSM    C1313262   0.200   3.608   5.705 -0.5282  0.2917 -0.0726
  125OSM   H13A13263   0.111   3.658   5.740 -0.5130 -1.1078  2.2380
  125OSM   H13B13264   0.244   3.553   5.787 -2.0389 -0.5842  0.1909
  125OSM   H13C13265   0.169   3.533   5.633 -1.9743  2.3434 -1.6939
  125OSM    C1213266   0.322   3.821   5.758  0.2509 -0.2485  0.2860
  125OSM   H12A13267   0.229   3.870   5.781  0.6861  0.8987 -0.3473
  125OSM   H12B13268   0.384   3.894   5.709  1.0823 -1.2021 -0.1214
  125OSM    C1113269   0.395   3.770   5.884 -0.6244  0.5678 -0.1026
  125OSM   H11A13270   0.337   3.686   5.926  1.3490 -0.4056  0.8203
  125OSM   H11B13271   0.404   3.851   5.960 -0.9227  0.2573  0.2617
  125OSM      P13272   0.642   3.832   5.837  0.5239 -0.4102 -0.1736
  125OSM    O1313273   0.755   3.765   5.769  0.2023 -0.0882 -0.0280
  125OSM    O1413274   0.588   3.950   5.769 -0.3875 -0.0302  0.3063
  125OSM    O1113275   0.698   3.871   5.985 -0.6515 -0.0728 -0.5393
  125OSM    O1213276   0.528   3.725   5.859 -0.0069  0.6564 -0.0541
  125OSM    C1S13277   0.726   3.771   6.088 -0.6762 -0.6775  0.4074
  125OSM    H1S13278   0.833   3.744   6.081 -1.0270 -1.9009 -0.9207
  125OSM    H1T13279   0.661   3.680   6.082 -0.6053 -0.6482 -2.5832
  125OSM     NF13280   0.735   3.706   6.323  0.3696  0.8397 -0.1031
  125OSM    HNF13281   0.658   3.665   6.373 -0.7243  2.2171 -0.5871
  125OSM    C2S13282   0.708   3.825   6.233 -0.0607  0.3139 -0.7337
  125OSM    H2S13283   0.789   3.901   6.242 -0.5060  0.8415 -1.0956
  125OSM    C3S13284   0.571   3.891   6.256 -0.2870  0.1238 -0.0881
  125OSM    H3S13285   0.495   3.811   6.250 -1.1401  0.6780  2.1897
  125OSM     O313286   0.532   3.992   6.162 -0.1671  0.0148  0.0088
  125OSM    HO313287   0.602   3.982   6.097 -1.2648 -3.0570 -0.8567
  125OSM    C4S13288   0.570   3.928   6.399  0.0881 -0.4987 -0.3731
  125OSM    H4S13289   0.511   3.865   6.467  0.6524  0.4201  1.0029
  125OSM    C5S13290   0.631   4.033   6.446 -0.2010  0.1715  0.0066
  125OSM    H5S13291   0.691   4.099   6.381  1.0344 -0.2667  0.6548
  125OSM    C6S13292   0.650   4.079   6.584  0.4835  0.0458  0.3159
  125OSM    H6S13293   0.743   4.039   6.629 -0.0284  0.0759  1.4449
  125OSM    H6T13294   0.567   4.044   6.650 -0.0245 -0.2598 -0.4684
  125OSM    C7S13295   0.639   4.228   6.598 -0.0105 -0.3304  0.0511
  125OSM    H7S13296   0.717   4.280   6.538 -0.9328  2.0467  0.7586
  125OSM    H7T13297   0.662   4.269   6.699  0.1157  0.5398 -0.3241
  125OSM    C8S13298   0.505   4.301   6.564 -0.4999 -0.1373  0.2964
  125OSM    H8S13299   0.420   4.262   6.624 -1.6781 -1.3660 -2.0405
  125OSM    H8T13300   0.483   4.258   6.464  0.2974  0.8984 -0.3465
  125OSM    C9S13301   0.513   4.456   6.564  0.0446  0.2328  0.2688
  125OSM    H9S13302   0.424   4.490   6.508  1.2919  2.4350 -0.4981
  125OSM    H9T13303   0.603   4.496   6.512  0.1131  1.0554  0.9878
  125OSM   C10S13304   0.514   4.527   6.696  0.3581 -0.1504 -0.2027
  125OSM   H10S13305   0.502   4.637   6.680  1.1360  0.2813  1.8169
  125OSM   H10T13306   0.618   4.526   6.736  0.8062 -3.0472 -1.2521
  125OSM   C11S13307   0.415   4.475   6.795  0.0942 -1.0466 -0.2687
  125OSM   H11S13308   0.440   4.368   6.812 -1.5514 -1.0654  3.0002
  125OSM   H11T13309   0.317   4.480   6.741 -0.5239  0.3077  0.8949
  125OSM   C12S13310   0.414   4.554   6.921  1.0399  0.2202 -0.5777
  125OSM   H12S13311   0.377   4.657   6.902  2.0449  0.6288 -0.3449
  125OSM   H12T13312   0.522   4.568   6.944  1.1205  0.4257 -1.0721
  125OSM   C13S13313   0.345   4.484   7.041  0.1833  0.0310 -0.2163
  125OSM   H13S13314   0.407   4.399   7.075 -1.2836 -1.4000 -1.0248
  125OSM   H13T13315   0.247   4.444   7.008 -0.6075  0.9281  0.9677
  125OSM   C14S13316   0.323   4.566   7.164  0.1314 -0.4623 -1.2804
  125OSM   H14S13317   0.286   4.667   7.135 -2.0909 -1.8142 -3.5749
  125OSM   H14T13318   0.423   4.575   7.212  0.8476  0.2443 -2.8364
  125OSM   C15S13319   0.219   4.510   7.265  0.2261  1.0433 -0.2272
  125OSM   H15S13320   0.251   4.409   7.299 -0.6076  0.2749 -1.6695
  125OSM   H15T13321   0.127   4.469   7.219  0.9217 -1.2189  0.2661
  125OSM   C16S13322   0.182   4.600   7.376 -0.1692 -0.6694  0.6796
  125OSM   H16S13323   0.099   4.540   7.419  0.7097 -1.7463  0.9371
  125OSM   H16T13324   0.132   4.691   7.338 -2.8633 -3.4216 -3.1269
  125OSM   C17S13325   0.288   4.612   7.484 -0.2839  0.2736  0.5437
  125OSM   H17S13326   0.394   4.629   7.454  0.3576  1.4014  3.1774
  125OSM   H17T13327   0.295   4.510   7.529  1.0852 -0.2257 -0.7144
  125OSM   C18S13328   0.267   4.715   7.599 -0.5570 -0.0360  1.1367
  125OSM   H18S13329   0.309   4.813   7.566  0.7988 -1.6500 -2.5085
  125OSM   H18T13330   0.323   4.679   7.687 -0.6233 -0.3410  1.0534
  125OSM   H18U13331   0.161   4.726   7.632 -0.5073  1.0759  0.9878
  125OSM    C1F13332   0.849   3.634   6.329 -0.2333 -0.1494 -0.0680
  125OSM     OF13333   0.947   3.681   6.282 -0.0709 -0.3727 -0.1156
  125OSM    C2F13334   0.857   3.488   6.383 -0.2144 -0.0466  0.5147
  125OSM    H2F13335   0.910   3.431   6.304 -0.2690  0.2137  0.2893
  125OSM    H2G13336   0.755   3.446   6.393  0.5468 -2.9665 -2.3261
  125OSM    C3F13337   0.938   3.481   6.510  0.3525  0.5624 -0.1462
  125OSM    H3F13338   0.907   3.560   6.581 -0.8445  0.2995 -0.3678
  125OSM    H3G13339   1.033   3.522   6.468  1.1611  0.7032  1.7385
  125OSM    C4F13340   0.946   3.352   6.594 -0.0301  0.3215 -0.0694
  125OSM    H4F13341   0.951   3.268   6.522  0.6120  0.6430 -0.4098
  125OSM    H4G13342   0.848   3.336   6.643  0.3276 -0.2052  0.4924
  125OSM    C5F13343   1.050   3.338   6.708 -0.2882  0.0220  0.3757
  125OSM    H5F13344   1.034   3.233   6.741  1.2231 -0.3562  0.0005
  125OSM    H5G13345   1.016   3.413   6.781  0.8006  2.5080 -1.5319
  125OSM    C6F13346   1.190   3.352   6.668 -0.7961 -0.2912  0.0291
  125OSM    H6F13347   1.216   3.457   6.646  1.9544 -0.1662  3.0960
  125OSM    H6G13348   1.214   3.293   6.577  0.6518 -0.3488  0.4216
  125OSM    C7F13349   1.290   3.294   6.771 -0.4741  0.5087  0.3166
  125OSM    H7F13350   1.254   3.322   6.873  2.1820  1.7934  0.9838
  125OSM    H7G13351   1.394   3.327   6.752 -0.6136  2.7146  2.7648
  125OSM    C8F13352   1.284   3.138   6.761  0.0672 -0.0935 -0.4789
  125OSM    H8F13353   1.284   3.110   6.654  2.0160  0.5738 -0.6990
  125OSM    H8G13354   1.178   3.112   6.784  0.6641 -1.0201  1.4477
  125OSM    C9F13355   1.374   3.049   6.841  0.6598  0.2627 -0.7948
  125OSM    H9F13356   1.480   3.054   6.810  0.8967  3.3554  0.1532
  125OSM   C10F13357   1.344   2.959   6.941  0.6120 -0.3730  0.1227
  125OSM   H10F13358   1.426   2.913   6.999 -0.3035  0.8296  2.5163
  125OSM   C11F13359   1.204   2.940   6.992 -0.8267 -0.1906 -0.0058
  125OSM   H11F13360   1.149   2.891   6.909 -0.9733  0.2169 -0.1498
  125OSM   H11G13361   1.157   3.039   7.009  2.5625  1.5419  0.2832
  125OSM   C12F13362   1.187   2.860   7.119  0.7136  0.3168  0.2045
  125OSM   H12F13363   1.239   2.762   7.106  0.1564  0.0897 -0.3516
  125OSM   H12G13364   1.077   2.846   7.126  0.5976  0.4704 -1.0243
  125OSM   C13F13365   1.230   2.939   7.243 -0.3015  0.1945 -0.0837
  125OSM   H13F13366   1.169   3.031   7.256 -0.7434 -0.1900  0.6755
  125OSM   H13G13367   1.337   2.968   7.238 -0.0204  0.0545  2.9151
  125OSM   C14F13368   1.217   2.850   7.369  0.1373  0.4972  0.2025
  125OSM   H14F13369   1.269   2.754   7.346 -0.5501  0.4608 -1.3232
  125OSM   H14G13370   1.113   2.813   7.381  1.1476 -2.5390  0.5195
  125OSM   C15F13371   1.280   2.899   7.500  1.3785  0.0742 -0.4413
  125OSM   H15F13372   1.385   2.929   7.477  0.7841  0.9504 -2.2751
  125OSM   H15G13373   1.286   2.816   7.573  2.1858  0.1575 -0.3976
  125OSM   C16F13374   1.219   3.026   7.559  0.5565  0.2735 -0.2579
  125OSM   H16F13375   1.110   3.015   7.573  0.4544  0.0620 -1.1478
  125OSM   H16G13376   1.219   3.104   7.480  0.5602  2.7575  2.0830
  125OSM   C17F13377   1.286   3.075   7.685 -0.7165 -0.0456  0.0715
  125OSM   H17F13378   1.385   3.118   7.661 -0.7528 -0.6811 -1.3377
  125OSM   H17G13379   1.310   2.989   7.751  0.1274  1.5795  1.9573
  125OSM   C18F13380   1.207   3.177   7.769  0.6630 -0.3442 -0.8038
  125OSM   H18F13381   1.119   3.122   7.808 -1.2022  2.1959 -1.2158
  125OSM   H18G13382   1.179   3.263   7.704  0.2859  1.2592  1.3784
  125OSM   H18H13383   1.262   3.223   7.853 -2.0966  1.5570  0.0890
  126OSM      N13384   4.590   1.830   5.791  0.0351 -0.6946  0.6610
  126OSM    C1513385   4.594   1.959   5.721 -0.3578  0.7689  0.8120
  126OSM   H15A13386   4.557   1.949   5.620  1.3466  0.5833  0.1594
  126OSM   H15B13387   4.694   2.002   5.720 -0.4280  0.9258 -0.3318
  126OSM   H15C13388   4.536   2.035   5.770  0.3519  1.4190  0.6750
  126OSM    C1413389   4.457   1.768   5.769 -0.3053 -0.5744 -0.2776
  126OSM   H14A13390   4.443   1.679   5.828  1.8308 -1.0929 -0.4749
  126OSM   H14B13391   4.437   1.737   5.667 -1.3401 -0.7827 -0.0214
  126OSM   H14C13392   4.389   1.851   5.783 -0.5262 -0.7476 -0.3154
  126OSM    C1313393   4.704   1.750   5.735  0.2743 -0.3006 -1.3396
  126OSM   H13A13394   4.686   1.717   5.634 -0.0931 -1.6492 -0.8619
  126OSM   H13B13395   4.701   1.659   5.794 -0.6576 -0.2660 -1.3125
  126OSM   H13C13396   4.802   1.788   5.759  0.2780 -1.4490  0.7205
  126OSM    C1213397   4.620   1.852   5.943 -0.4311  0.1811  0.5460
  126OSM   H12A13398   4.569   1.942   5.972  0.6591  0.2766  2.3235
  126OSM   H12B13399   4.720   1.889   5.960  0.3698 -0.2157 -2.6406
  126OSM    C1113400   4.588   1.743   6.048  0.9722  0.2087  0.4885
  126OSM   H11A13401   4.487   1.701   6.029  0.4345  2.0770 -1.0448
  126OSM   H11B13402   4.574   1.795   6.145 -1.9027 -1.8657  1.3254
  126OSM      P13403   4.819   1.622   6.090  0.0333  0.2943  0.3538
  126OSM    O1313404   4.867   1.484   6.057 -0.5773 -0.0547  0.0674
  126OSM    O1413405   4.901   1.722   6.035 -0.1898 -0.1498  0.3544
  126OSM    O1113406   4.797   1.643   6.242  0.3418 -0.0044 -0.1214
  126OSM    O1213407   4.674   1.628   6.033  0.4507 -0.0977  0.1001
  126OSM    C1S13408   4.676   1.587   6.305 -0.3350  0.0925 -0.1765
  126OSM    H1S13409   4.670   1.476   6.293 -1.1907  0.0895  0.1402
  126OSM    H1T13410   4.581   1.637   6.277 -0.9181  0.2472  1.9060
  126OSM     NF13411   4.593   1.536   6.541  0.5220 -0.0609 -0.0323
  126OSM    HNF13412   4.515   1.579   6.586 -0.4251 -1.8376  0.1234
  126OSM    C2S13413   4.679   1.616   6.457 -0.3711 -0.0213  0.6327
  126OSM    H2S13414   4.781   1.584   6.487 -0.9752 -0.1326  2.7329
  126OSM    C3S13415   4.667   1.772   6.484  0.9868  0.0972  0.0022
  126OSM    H3S13416   4.575   1.811   6.437  1.5116 -1.4056 -2.4260
  126OSM     O313417   4.766   1.853   6.417 -0.5530 -0.6046  0.2141
  126OSM    HO313418   4.792   1.781   6.359  3.3851 -2.0060  3.2392
  126OSM    C4S13419   4.669   1.790   6.632  0.0094  0.6940  0.4357
  126OSM    H4S13420   4.570   1.781   6.679 -0.0729  0.4509  0.2144
  126OSM    C5S13421   4.775   1.806   6.711 -0.0066 -0.1414  0.1787
  126OSM    H5S13422   4.877   1.820   6.671  0.2299  0.5216  0.9830
  126OSM    C6S13423   4.773   1.828   6.860 -0.2599  0.4192 -0.6737
  126OSM    H6S13424   4.753   1.932   6.894 -0.5891 -1.0397  4.4594
  126OSM    H6T13425   4.868   1.802   6.912 -1.0596 -0.1051  0.5779
  126OSM    C7S13426   4.655   1.752   6.930 -0.4162  0.8645 -0.4339
  126OSM    H7S13427   4.663   1.643   6.906 -0.6133  0.8463 -0.4185
  126OSM    H7T13428   4.563   1.778   6.874 -0.8192 -0.2971 -0.3424
  126OSM    C8S13429   4.649   1.777   7.078  0.0798 -0.0415 -0.7043
  126OSM    H8S13430   4.573   1.707   7.119 -0.2193  0.1016 -1.0114
  126OSM    H8T13431   4.613   1.880   7.101  1.9442 -0.0778  3.3024
  126OSM    C9S13432   4.774   1.750   7.155 -0.1621  0.0956 -0.7099
  126OSM    H9S13433   4.845   1.830   7.125 -0.3264  1.3138  1.9061
  126OSM    H9T13434   4.817   1.657   7.112  1.9738  0.1751  1.0188
  126OSM   C10S13435   4.749   1.751   7.301  0.1880  0.3147  0.5485
  126OSM   H10S13436   4.849   1.740   7.350  0.6394  3.2057  0.5031
  126OSM   H10T13437   4.687   1.665   7.333 -0.2004  1.0298  1.8077
  126OSM   C11S13438   4.693   1.886   7.348  0.4500 -0.1508 -0.7049
  126OSM   H11S13439   4.589   1.886   7.308 -0.9062 -1.8412  2.4540
  126OSM   H11T13440   4.753   1.971   7.310  0.3002  0.0195 -0.5594
  126OSM   C12S13441   4.693   1.911   7.498 -0.0582 -0.4184 -0.6513
  126OSM   H12S13442   4.650   1.825   7.553 -0.3389  0.2069  0.1240
  126OSM   H12T13443   4.637   2.005   7.520  1.8357  0.6327 -0.1439
  126OSM   C13S13444   4.830   1.944   7.567  0.9627 -0.4806 -0.1982
  126OSM   H13S13445   4.863   2.047   7.541 -0.1611  0.2886  1.2416
  126OSM   H13T13446   4.895   1.861   7.532  1.9714 -0.7268  2.0580
  126OSM   C14S13447   4.822   1.938   7.723  0.6497 -0.4488 -0.1595
  126OSM   H14S13448   4.815   1.829   7.747  1.4811 -0.1696  1.4718
  126OSM   H14T13449   4.727   1.986   7.755  1.0094 -0.8104  1.5319
  126OSM   C15S13450   4.945   1.993   7.798  0.1445 -0.1276  0.3234
  126OSM   H15S13451   4.987   2.077   7.739  2.1521 -1.5494 -0.4211
  126OSM   H15T13452   5.018   1.910   7.788 -1.1357 -1.1705 -0.6685
  126OSM   C16S13453   4.928   2.010   7.951  0.1091  0.1071  0.3820
  126OSM   H16S13454   4.889   1.915   7.993 -0.2191  0.3310  0.5855
  126OSM   H16T13455   4.850   2.088   7.960 -0.9713 -0.9710  0.6284
  126OSM   C17S13456   5.055   2.042   8.026  0.3601 -0.7708 -0.1176
  126OSM   H17S13457   5.079   2.145   7.991 -3.1182 -0.1822 -1.1178
  126OSM   H17T13458   5.142   1.982   7.988  0.1880 -0.4662 -1.0299
  126OSM   C18S13459   5.045   2.041   8.187 -0.2965 -0.5018 -0.1380
  126OSM   H18S13460   4.981   2.127   8.216 -1.3528 -1.0406 -0.7781
  126OSM   H18T13461   5.147   2.050   8.229 -0.3973  1.2189 -0.2007
  126OSM   H18U13462   5.002   1.946   8.225  0.3015  0.0727  2.1218
  126OSM    C1F13463   4.613   1.409   6.555  0.2217  0.2876  0.0309
  126OSM     OF13464   4.720   1.366   6.528 -0.1195 -0.3611  0.4104
  126OSM    C2F13465   4.509   1.319   6.615  0.4656  0.6293 -0.1424
  126OSM    H2F13466   4.561   1.255   6.689 -1.6334 -0.0887  0.7987
  126OSM    H2G13467   4.463   1.261   6.532  1.0135  0.5231 -0.3738
  126OSM    C3F13468   4.397   1.393   6.688 -0.1917 -0.2569 -0.5900
  126OSM    H3F13469   4.320   1.315   6.707  1.2990 -1.4742  0.8083
  126OSM    H3G13470   4.348   1.466   6.620 -1.5122 -0.8339 -0.2884
  126OSM    C4F13471   4.416   1.456   6.833 -0.9407  0.2190  0.4691
  126OSM    H4F13472   4.323   1.500   6.874 -0.6119  0.0412  1.4164
  126OSM    H4G13473   4.496   1.533   6.834  0.1876 -0.9249  1.4795
  126OSM    C5F13474   4.467   1.348   6.926  0.6940 -0.0610  0.3978
  126OSM    H5F13475   4.564   1.312   6.887  0.8821  1.6922 -0.8777
  126OSM    H5G13476   4.399   1.261   6.914 -1.2576  1.2399  1.4103
  126OSM    C6F13477   4.468   1.399   7.074 -0.3790 -0.2064 -0.0273
  126OSM    H6F13478   4.373   1.456   7.088 -0.0263  1.0424 -2.2077
  126OSM    H6G13479   4.543   1.480   7.065 -0.2864  0.2747  3.7335
  126OSM    C7F13480   4.504   1.307   7.194  0.2214 -0.5542  0.3573
  126OSM    H7F13481   4.611   1.289   7.169  0.5984  2.6070 -0.7754
  126OSM    H7G13482   4.439   1.218   7.197 -0.9571  0.2172 -0.9170
  126OSM    C8F13483   4.486   1.392   7.328 -0.0240 -0.2512  0.5383
  126OSM    H8F13484   4.536   1.487   7.299 -1.0879 -0.7589 -3.7271
  126OSM    H8G13485   4.549   1.340   7.403  0.2006  1.6171  1.6952
  126OSM    C9F13486   4.347   1.434   7.380 -0.3228 -0.0190 -0.8814
  126OSM    H9F13487   4.269   1.447   7.303 -2.1478  0.8937  1.0351
  126OSM   C10F13488   4.305   1.452   7.505  0.3596  0.4066 -0.1320
  126OSM   H10F13489   4.200   1.482   7.514 -0.1022 -1.0130 -0.4619
  126OSM   C11F13490   4.384   1.428   7.628 -0.6143 -0.3856 -0.1405
  126OSM   H11F13491   4.463   1.502   7.653 -0.9404 -0.4626  1.2002
  126OSM   H11G13492   4.434   1.328   7.625  0.0520 -0.0442 -0.8275
  126OSM   C12F13493   4.283   1.408   7.739  0.0346  0.4264  0.0329
  126OSM   H12F13494   4.198   1.341   7.713 -2.4261  3.4028 -0.1490
  126OSM   H12G13495   4.253   1.506   7.780  1.3247  1.6354 -1.7336
  126OSM   C13F13496   4.353   1.339   7.862 -0.9106 -0.0976  0.9289
  126OSM   H13F13497   4.449   1.391   7.879 -1.1879  0.5990  0.3830
  126OSM   H13G13498   4.396   1.242   7.829  1.9567  1.6168 -0.7099
  126OSM   C14F13499   4.277   1.305   7.990 -0.1076 -0.4972  0.1894
  126OSM   H14F13500   4.317   1.208   8.025  1.0998  0.4360  1.5452
  126OSM   H14G13501   4.170   1.301   7.963 -0.0645  1.8045 -0.5952
  126OSM   C15F13502   4.307   1.406   8.101  0.0793  0.3256  0.1632
  126OSM   H15F13503   4.261   1.505   8.080  1.8954  1.2620  0.4497
  126OSM   H15G13504   4.417   1.416   8.104  0.1282  0.0287 -0.5306
  126OSM   C16F13505   4.260   1.349   8.238 -0.0613 -0.3392  0.5602
  126OSM   H16F13506   4.315   1.254   8.256  0.0186 -0.6159 -1.0308
  126OSM   H16G13507   4.152   1.324   8.226 -0.1583  0.0744  0.5506
  126OSM   C17F13508   4.281   1.455   8.349 -0.5096  0.2427 -0.2555
  126OSM   H17F13509   4.293   1.548   8.288 -2.0234 -0.2915 -1.4542
  126OSM   H17G13510   4.378   1.430   8.397 -0.6084  3.0886  1.7147
  126OSM   C18F13511   4.164   1.461   8.453 -0.1775 -0.0990 -0.0939
  126OSM   H18F13512   4.066   1.451   8.403  0.5869  1.6381 -2.0636
  126OSM   H18G13513   4.156   1.558   8.506  0.7819  0.6226 -1.2126
  126OSM   H18H13514   4.170   1.392   8.540 -2.1292  3.2014  2.9368
  127OSM      N13515   1.211   1.991   5.588  0.0970  0.0906  0.2022
  127OSM    C1513516   1.115   1.910   5.666  0.0555 -0.2684 -0.5977
  127OSM   H15A13517   1.168   1.862   5.748  0.9630  0.7888 -0.5428
  127OSM   H15B13518   1.063   1.835   5.608 -2.2105  1.8337 -1.4428
  127OSM   H15C13519   1.038   1.974   5.707 -0.5052 -0.7653 -0.8574
  127OSM    C1413520   1.331   1.902   5.549 -0.1921 -0.1494  0.1324
  127OSM   H14A13521   1.399   1.976   5.509  0.7703  0.9604  3.4660
  127OSM   H14B13522   1.305   1.827   5.477  0.5825  0.5211 -0.8772
  127OSM   H14C13523   1.384   1.856   5.631  1.4399 -1.1890 -1.4343
  127OSM    C1313524   1.146   2.047   5.462  0.2724  0.2201  0.1138
  127OSM   H13A13525   1.208   2.111   5.401  1.0413  1.3197  1.9759
  127OSM   H13B13526   1.065   2.116   5.478 -0.4223 -0.1250 -1.7268
  127OSM   H13C13527   1.117   1.960   5.404 -0.0100  0.8531 -0.7088
  127OSM    C1213528   1.251   2.106   5.676  0.2188  0.2973 -0.2947
  127OSM   H12A13529   1.287   2.182   5.609  1.2679 -0.8841 -1.1163
  127OSM   H12B13530   1.333   2.077   5.741  0.6701  3.1661  0.5749
  127OSM    C1113531   1.148   2.160   5.781 -0.4028 -0.3376 -0.0712
  127OSM   H11A13532   1.188   2.236   5.852 -1.5531  0.0023  0.2511
  127OSM   H11B13533   1.118   2.078   5.850 -2.8723 -0.6952 -1.4322
  127OSM      P13534   1.009   2.349   5.665  0.4343 -0.0705  0.1417
  127OSM    O1313535   1.134   2.394   5.602 -0.2470  0.0965 -0.0742
  127OSM    O1413536   0.889   2.341   5.576  0.5367 -0.0198 -0.4172
  127OSM    O1113537   0.973   2.445   5.786  0.4558 -0.0157 -0.5934
  127OSM    O1213538   1.026   2.203   5.719  0.1104  0.0536 -0.4169
  127OSM    C1S13539   0.866   2.407   5.887  0.3073 -0.1584 -0.1863
  127OSM    H1S13540   0.793   2.341   5.835 -0.4827  0.0214  0.6693
  127OSM    H1T13541   0.801   2.489   5.923  0.5188 -1.3762  3.3408
  127OSM     NF13542   0.791   2.293   6.093 -0.1329  0.1744 -0.2975
  127OSM    HNF13543   0.759   2.351   6.168 -0.6200 -0.3333 -0.1091
  127OSM    C2S13544   0.913   2.326   6.017 -0.1727  0.2421  0.2477
  127OSM    H2S13545   0.963   2.237   5.974  1.9701  1.5856 -0.2111
  127OSM    C3S13546   1.027   2.401   6.101 -0.1636 -0.2772  0.0389
  127OSM    H3S13547   0.978   2.494   6.138  1.3049  0.3730  0.4115
  127OSM     O313548   1.148   2.439   6.033  0.2711 -0.2818 -0.5930
  127OSM    HO313549   1.109   2.447   5.945 -1.2178  0.9416  0.1333
  127OSM    C4S13550   1.068   2.309   6.207  0.8541 -0.3163 -0.2593
  127OSM    H4S13551   1.015   2.331   6.301  0.7191  0.0745 -0.4249
  127OSM    C5S13552   1.158   2.203   6.206 -0.6682 -1.1515  0.0389
  127OSM    H5S13553   1.204   2.177   6.110  0.1531  0.5188 -0.0706
  127OSM    C6S13554   1.195   2.111   6.318 -0.5260  0.4042  0.3103
  127OSM    H6S13555   1.303   2.089   6.313 -0.1382  1.0057  3.6994
  127OSM    H6T13556   1.148   2.010   6.309  0.2834  0.1994 -2.5411
  127OSM    C7S13557   1.156   2.156   6.466 -0.3502 -0.3423  0.1811
  127OSM    H7S13558   1.046   2.174   6.464  0.0433  2.5742 -1.9297
  127OSM    H7T13559   1.199   2.256   6.489 -0.9642  0.2968 -1.2871
  127OSM    C8S13560   1.206   2.049   6.568 -0.1810  0.1616 -0.0385
  127OSM    H8S13561   1.305   2.029   6.521 -0.8063 -1.8654 -0.6195
  127OSM    H8T13562   1.149   1.954   6.563 -0.9437  0.5220  1.4692
  127OSM    C9S13563   1.215   2.108   6.710 -0.3423  0.2736 -0.3999
  127OSM    H9S13564   1.120   2.101   6.767 -0.6919  0.4716 -0.9559
  127OSM    H9T13565   1.244   2.215   6.714 -0.8398  0.4381  3.6656
  127OSM   C10S13566   1.314   2.034   6.792 -0.1930  0.1198 -0.1974
  127OSM   H10S13567   1.414   2.035   6.743  1.7483  2.1267  3.3536
  127OSM   H10T13568   1.277   1.930   6.797 -0.5450  0.1856 -1.2211
  127OSM   C11S13569   1.333   2.099   6.931  0.8454 -0.2826  0.4045
  127OSM   H11S13570   1.229   2.114   6.967  0.4096 -0.5990 -0.6741
  127OSM   H11T13571   1.372   2.202   6.914  1.0984 -0.3050  0.8377
  127OSM   C12S13572   1.412   2.009   7.026  0.3664 -0.2771  0.3781
  127OSM   H12S13573   1.515   2.002   6.986 -0.0941  1.0475 -1.1460
  127OSM   H12T13574   1.373   1.906   7.037 -0.6197 -0.0616 -0.8424
  127OSM   C13S13575   1.443   2.069   7.166 -0.1561  0.3610  0.2663
  127OSM   H13S13576   1.361   2.127   7.213  2.0827  0.7166  4.1094
  127OSM   H13T13577   1.526   2.143   7.161 -0.1586  0.3793  0.4905
  127OSM   C14S13578   1.484   1.960   7.271 -0.5801 -0.6771  0.5728
  127OSM   H14S13579   1.588   1.934   7.241 -0.8492  1.5819 -2.8112
  127OSM   H14T13580   1.408   1.879   7.269 -0.8161 -0.4576 -1.5024
  127OSM   C15S13581   1.490   2.007   7.420  0.7047  0.1273 -0.4769
  127OSM   H15S13582   1.539   2.105   7.433 -0.4111  0.9052 -1.8553
  127OSM   H15T13583   1.540   1.928   7.481 -1.0747  1.0833  2.4576
  127OSM   C16S13584   1.349   2.025   7.487 -0.3168 -0.5358 -0.2726
  127OSM   H16S13585   1.271   1.951   7.460 -1.7495  0.6706  0.4118
  127OSM   H16T13586   1.308   2.121   7.448  0.4365  0.2749  0.8682
  127OSM   C17S13587   1.351   2.030   7.642  0.7166 -0.0489 -0.2582
  127OSM   H17S13588   1.428   2.108   7.663 -0.4166  0.9145  0.4036
  127OSM   H17T13589   1.401   1.935   7.669  1.1827 -0.1296 -1.3438
  127OSM   C18S13590   1.221   2.053   7.720 -0.4917  0.0828  0.1759
  127OSM   H18S13591   1.171   2.142   7.677 -2.6590 -1.2197 -0.1266
  127OSM   H18T13592   1.241   2.069   7.828 -0.3811  1.0132  0.0272
  127OSM   H18U13593   1.147   1.971   7.710  0.3500 -0.6517 -0.2105
  127OSM    C1F13594   0.706   2.196   6.055 -0.0579 -0.4988  0.5795
  127OSM     OF13595   0.728   2.135   5.949  0.0874 -0.1246 -0.1088
  127OSM    C2F13596   0.588   2.169   6.142  0.1629  0.4492 -0.0854
  127OSM    H2F13597   0.496   2.171   6.079 -0.6325 -1.3831  0.9171
  127OSM    H2G13598   0.577   2.250   6.218 -0.7949 -0.8828  1.2649
  127OSM    C3F13599   0.590   2.019   6.193 -0.5983 -0.2300 -0.1399
  127OSM    H3F13600   0.580   1.949   6.108 -2.0439 -0.3994  0.1484
  127OSM    H3G13601   0.494   2.011   6.248 -0.3079  0.4300  0.4832
  127OSM    C4F13602   0.704   1.988   6.293 -0.0614 -0.8050  0.6653
  127OSM    H4F13603   0.802   1.978   6.241 -0.3485 -3.9912  0.4985
  127OSM    H4G13604   0.686   1.885   6.333  0.7838 -1.6667 -1.0673
  127OSM    C5F13605   0.709   2.080   6.413 -0.0273 -0.4798 -0.3276
  127OSM    H5F13606   0.606   2.112   6.439 -0.7187 -0.3336 -2.9603
  127OSM    H5G13607   0.749   2.181   6.386  1.9257 -1.1366 -0.0452
  127OSM    C6F13608   0.795   2.014   6.523  0.3852  0.1240 -0.1925
  127OSM    H6F13609   0.890   1.980   6.476  0.6562  0.6979 -0.0664
  127OSM    H6G13610   0.746   1.921   6.560 -1.6936  0.2154 -2.4233
  127OSM    C7F13611   0.834   2.090   6.644  0.2600 -0.4815 -0.1411
  127OSM    H7F13612   0.876   2.186   6.606  1.1867 -1.7682 -2.5502
  127OSM    H7G13613   0.922   2.045   6.696  3.3003  2.6358 -2.1455
  127OSM    C8F13614   0.720   2.126   6.740  0.0325  0.2453  0.4469
  127OSM    H8F13615   0.689   2.035   6.796  0.7463 -0.4141 -0.2097
  127OSM    H8G13616   0.636   2.153   6.672  0.1461 -0.2656  0.0949
  127OSM    C9F13617   0.755   2.245   6.828 -0.2183  0.1223  0.0648
  127OSM    H9F13618   0.801   2.326   6.769 -3.1407  0.7863 -1.4606
  127OSM   C10F13619   0.754   2.254   6.960  0.6073  0.1091 -0.5814
  127OSM   H10F13620   0.763   2.352   7.008 -1.2778 -0.6582  1.5263
  127OSM   C11F13621   0.687   2.162   7.052  0.3264  0.6023  0.0869
  127OSM   H11F13622   0.699   2.056   7.019 -0.0810  0.0399  1.6828
  127OSM   H11G13623   0.578   2.177   7.043  0.3098  0.1500 -0.5908
  127OSM   C12F13624   0.738   2.176   7.197 -0.2050  0.1771 -0.0010
  127OSM   H12F13625   0.715   2.281   7.224 -4.6383 -0.6898  0.2181
  127OSM   H12G13626   0.849   2.165   7.192 -0.1722  0.4440  0.1561
  127OSM   C13F13627   0.694   2.069   7.292  0.2282  0.0059 -0.4864
  127OSM   H13F13628   0.783   2.036   7.350  0.3202  1.0809  0.0056
  127OSM   H13G13629   0.655   1.987   7.228 -1.2960  1.6349 -1.7153
  127OSM   C14F13630   0.580   2.120   7.384 -0.4937 -0.4342 -0.7685
  127OSM   H14F13631   0.489   2.144   7.326 -0.1160  1.0554 -0.8091
  127OSM   H14G13632   0.614   2.223   7.411 -2.6684 -0.2296  1.5898
  127OSM   C15F13633   0.561   2.037   7.508  0.1930  0.1056 -0.3321
  127OSM   H15F13634   0.665   2.030   7.547  0.2094  3.2873  0.5076
  127OSM   H15G13635   0.521   1.937   7.482  1.2793 -0.3446 -0.3388
  127OSM   C16F13636   0.455   2.093   7.606 -0.2123  0.1131 -0.5752
  127OSM   H16F13637   0.356   2.098   7.555 -0.1107 -2.0082 -1.0545
  127OSM   H16G13638   0.488   2.193   7.641 -0.1188 -0.4685  1.0593
  127OSM   C17F13639   0.470   2.018   7.740 -0.1556 -0.5946 -0.2632
  127OSM   H17F13640   0.579   2.013   7.760  0.3203  0.3340 -2.3153
  127OSM   H17G13641   0.441   1.915   7.711  1.1527 -0.6802 -1.3423
  127OSM   C18F13642   0.382   2.085   7.840  0.4158  0.4435  0.2585
  127OSM   H18F13643   0.376   2.021   7.931 -1.2931 -1.5946 -1.1891
  127OSM   H18G13644   0.279   2.074   7.801  0.9596 -0.5027 -0.9565
  127OSM   H18H13645   0.408   2.190   7.863 -1.1477  0.8761  0.1514
  128OSM      N13646   2.375   1.224   5.765 -0.2768 -0.9327 -0.2938
  128OSM    C1513647   2.383   1.372   5.800  0.2917  0.3816 -0.3264
  128OSM   H15A13648   2.285   1.416   5.817 -0.2234 -0.8747  0.1364
  128OSM   H15B13649   2.427   1.430   5.721 -2.3165  3.3238  0.1741
  128OSM   H15C13650   2.439   1.387   5.891 -0.6046  2.0017 -0.0044
  128OSM    C1413651   2.271   1.200   5.651  0.8641  0.8704 -0.1075
  128OSM   H14A13652   2.257   1.095   5.634 -0.9957  0.9339  0.8032
  128OSM   H14B13653   2.297   1.255   5.562  1.3033  2.3671  0.8981
  128OSM   H14C13654   2.168   1.222   5.673  0.9756  1.0094  0.2887
  128OSM    C1313655   2.510   1.184   5.725 -0.5830 -0.3813 -0.2839
  128OSM   H13A13656   2.516   1.085   5.682  3.0137 -0.4179 -0.0117
  128OSM   H13B13657   2.578   1.186   5.809 -0.2451 -2.1562 -0.4689
  128OSM   H13C13658   2.546   1.249   5.647 -0.6403  0.7603  0.6098
  128OSM    C1213659   2.325   1.135   5.874  0.4303 -0.5386  0.8940
  128OSM   H12A13660   2.225   1.170   5.896  0.4347  0.6685 -0.7754
  128OSM   H12B13661   2.374   1.155   5.968  0.7452  0.0569  0.6098
  128OSM    C1113662   2.316   0.982   5.853  0.0866 -0.1875 -0.4545
  128OSM   H11A13663   2.280   0.959   5.750  1.6726 -1.8253 -0.7044
  128OSM   H11B13664   2.237   0.938   5.918  1.8146 -1.5461  0.8075
  128OSM      P13665   2.462   0.769   5.828 -0.2663 -0.2056  0.2047
  128OSM    O1313666   2.400   0.745   5.695  0.3797 -0.1852 -0.4688
  128OSM    O1413667   2.596   0.720   5.850  0.3131  0.1306  0.4911
  128OSM    O1113668   2.363   0.699   5.933 -0.1367 -0.0491  0.1004
  128OSM    O1213669   2.447   0.918   5.867  0.2329  0.4278 -0.6896
  128OSM    C1S13670   2.393   0.692   6.076 -0.6599  0.3417 -0.0029
  128OSM    H1S13671   2.496   0.730   6.096 -0.5496  0.9056 -1.5622
  128OSM    H1T13672   2.377   0.592   6.123  0.6962 -0.2186 -0.6867
  128OSM     NF13673   2.340   0.788   6.306  0.1343  0.0799 -0.1112
  128OSM    HNF13674   2.273   0.741   6.363  0.1914 -1.8444 -1.5061
  128OSM    C2S13675   2.301   0.782   6.164  0.7253  0.4754 -0.0064
  128OSM    H2S13676   2.291   0.883   6.119  0.0955  0.6057  0.4128
  128OSM    C3S13677   2.153   0.730   6.148 -0.1044  0.1102 -0.5407
  128OSM    H3S13678   2.147   0.621   6.167  3.0369  0.0986  1.0649
  128OSM     O313679   2.104   0.720   6.014  0.1982  0.5455 -0.3373
  128OSM    HO313680   2.180   0.742   5.959  0.1180  0.6202 -0.4185
  128OSM    C4S13681   2.054   0.818   6.228 -0.2369 -0.3059 -0.3177
  128OSM    H4S13682   2.074   0.926   6.223 -1.4687  0.1322  2.2942
  128OSM    C5S13683   1.970   0.781   6.328 -0.1250  0.2580  0.5367
  128OSM    H5S13684   1.964   0.673   6.352  0.4563  0.0116 -0.3633
  128OSM    C6S13685   1.883   0.867   6.409  0.0627 -0.0305 -0.1602
  128OSM    H6S13686   1.775   0.847   6.388  0.1943  1.1395 -2.2514
  128OSM    H6T13687   1.908   0.973   6.388 -0.1993  0.1428  0.3803
  128OSM    C7S13688   1.893   0.842   6.564  0.4255 -0.3523 -0.3549
  128OSM    H7S13689   1.997   0.872   6.586 -0.1726  1.3439  0.3411
  128OSM    H7T13690   1.890   0.734   6.587  1.4605 -0.3142 -0.0179
  128OSM    C8S13691   1.797   0.917   6.651  0.0526 -0.1238  0.1143
  128OSM    H8S13692   1.792   0.859   6.745  0.9004 -1.4946 -0.6588
  128OSM    H8T13693   1.697   0.900   6.606  0.3936  0.7225 -1.0128
  128OSM    C9S13694   1.806   1.073   6.661 -1.0565 -0.4629 -0.1867
  128OSM    H9S13695   1.811   1.124   6.562  3.1349 -0.4145 -0.1174
  128OSM    H9T13696   1.904   1.112   6.694 -1.4746  0.5785 -0.1169
  128OSM   C10S13697   1.694   1.115   6.740 -0.5227  0.0766 -0.1941
  128OSM   H10S13698   1.602   1.099   6.679 -0.5942  0.8619 -0.3026
  128OSM   H10T13699   1.696   1.224   6.763  1.5670 -0.5385  3.3639
  128OSM   C11S13700   1.679   1.045   6.869  0.6385  0.5718 -0.5230
  128OSM   H11S13701   1.780   1.036   6.915  0.1129 -2.5013  0.2190
  128OSM   H11T13702   1.635   0.944   6.854  0.5562  0.2478  1.6364
  128OSM   C12S13703   1.599   1.111   6.987 -0.1002 -0.0796 -0.7165
  128OSM   H12S13704   1.515   1.174   6.950 -1.9365 -1.3135  1.0866
  128OSM   H12T13705   1.661   1.189   7.036 -1.3430  0.3995  0.1560
  128OSM   C13S13706   1.547   1.019   7.099 -0.3245 -0.5182  0.4775
  128OSM   H13S13707   1.635   0.960   7.130  0.0825  0.2934  0.8980
  128OSM   H13T13708   1.475   0.939   7.071 -2.3311  0.9268  1.2417
  128OSM   C14S13709   1.490   1.099   7.220  0.2791 -0.1445  0.7389
  128OSM   H14S13710   1.395   1.153   7.200  0.1594 -0.2540  1.0078
  128OSM   H14T13711   1.559   1.181   7.249  0.7799 -0.3001  0.0176
  128OSM   C15S13712   1.476   0.998   7.332 -0.6389  0.0260  0.6085
  128OSM   H15S13713   1.566   0.932   7.330 -2.8061 -3.2962 -3.0064
  128OSM   H15T13714   1.387   0.936   7.309 -1.6990  1.6325  0.2307
  128OSM   C16S13715   1.454   1.058   7.464 -0.4471  0.2468  0.5947
  128OSM   H16S13716   1.395   0.985   7.524 -0.1699 -1.1631 -0.7981
  128OSM   H16T13717   1.412   1.159   7.450 -0.4341 -0.2095 -3.9939
  128OSM   C17S13718   1.585   1.079   7.546 -0.2376 -0.3850 -0.4929
  128OSM   H17S13719   1.653   1.152   7.497  1.0621  0.8325  2.8428
  128OSM   H17T13720   1.645   0.986   7.561 -1.3669 -1.0701 -0.0765
  128OSM   C18S13721   1.556   1.132   7.681 -0.0312  0.5794  0.1954
  128OSM   H18S13722   1.648   1.133   7.743  1.2230 -1.7639 -1.4988
  128OSM   H18T13723   1.477   1.069   7.726  0.9815 -0.2803  0.8058
  128OSM   H18U13724   1.518   1.237   7.673  1.2783  1.1907  1.4090
  128OSM    C1F13725   2.434   0.863   6.357  0.2883 -1.2264  0.1592
  128OSM     OF13726   2.528   0.900   6.285 -0.4369 -0.1657 -0.6072
  128OSM    C2F13727   2.430   0.887   6.511 -0.0580  0.3526  0.4166
  128OSM    H2F13728   2.438   0.796   6.574 -0.3776 -1.2003 -1.6921
  128OSM    H2G13729   2.339   0.940   6.545  0.5906  1.9871 -0.3020
  128OSM    C3F13730   2.547   0.988   6.541 -0.2262 -0.4158 -0.6830
  128OSM    H3F13731   2.532   1.064   6.463  0.2755 -1.2193 -1.5856
  128OSM    H3G13732   2.648   0.942   6.537  0.1233  0.3227 -0.4718
  128OSM    C4F13733   2.532   1.044   6.683  0.3190 -0.3682 -0.0696
  128OSM    H4F13734   2.424   1.056   6.706  0.8547 -0.0578  2.6031
  128OSM    H4G13735   2.574   1.146   6.677  1.3524 -0.8379 -1.4584
  128OSM    C5F13736   2.602   0.961   6.793  0.4606  0.1175  0.6371
  128OSM    H5F13737   2.712   0.976   6.786  0.3558  0.9936  0.7753
  128OSM    H5G13738   2.576   0.855   6.773 -0.0586  0.0783  1.4967
  128OSM    C6F13739   2.547   0.982   6.936 -0.4380  0.0044 -0.0254
  128OSM    H6F13740   2.437   1.002   6.932 -0.6134 -0.7174  0.8832
  128OSM    H6G13741   2.596   1.075   6.973  0.1291 -0.8217  1.3634
  128OSM    C7F13742   2.575   0.866   7.031 -0.0234  0.3121  0.4412
  128OSM    H7F13743   2.686   0.865   7.030 -0.0082  1.0602 -0.2721
  128OSM    H7G13744   2.551   0.775   6.972  1.2766  0.0695  0.2503
  128OSM    C8F13745   2.507   0.860   7.160  0.4782 -0.2063 -0.7276
  128OSM    H8F13746   2.545   0.766   7.207  0.1747 -0.0025 -0.0665
  128OSM    H8G13747   2.400   0.852   7.132  0.2567 -5.4534  0.5565
  128OSM    C9F13748   2.553   0.975   7.251  0.1699 -0.5651 -0.1897
  128OSM    H9F13749   2.660   1.002   7.245 -0.0618  0.2212 -0.8639
  128OSM   C10F13750   2.470   1.039   7.339  0.1929  0.1355  0.0445
  128OSM   H10F13751   2.514   1.124   7.393  2.0498 -0.7732  0.0524
  128OSM   C11F13752   2.323   1.021   7.366 -0.3140  0.6402 -0.3101
  128OSM   H11F13753   2.269   0.943   7.307 -2.4320 -0.4399  2.7803
  128OSM   H11G13754   2.268   1.115   7.343  0.4328  1.8983  2.5683
  128OSM   C12F13755   2.309   0.979   7.518  0.1311  0.2684 -0.2995
  128OSM   H12F13756   2.390   1.032   7.573 -0.5481  1.1326 -0.1168
  128OSM   H12G13757   2.329   0.870   7.529 -0.3726  0.2135  0.1002
  128OSM   C13F13758   2.178   1.020   7.571 -0.5736 -0.3579  0.2004
  128OSM   H13F13759   2.100   0.968   7.510 -1.5151  0.2337  0.8658
  128OSM   H13G13760   2.160   1.127   7.549 -0.6934 -0.5990 -0.9847
  128OSM   C14F13761   2.148   0.993   7.717  0.8806 -0.8820  0.5937
  128OSM   H14F13762   2.224   1.051   7.774 -0.5760  0.5099  1.2135
  128OSM   H14G13763   2.175   0.885   7.726  1.9336 -0.6138  0.7856
  128OSM   C15F13764   2.003   1.035   7.758  0.2893  0.0877 -0.8289
  128OSM   H15F13765   1.929   0.981   7.695 -0.6518 -0.8663  0.9964
  128OSM   H15G13766   1.988   1.140   7.726 -0.0144  0.0341 -0.8655
  128OSM   C16F13767   1.991   1.006   7.910 -0.0957  0.1383  0.1614
  128OSM   H16F13768   2.083   1.026   7.968 -0.3695  0.9702  0.3278
  128OSM   H16G13769   1.990   0.896   7.923  1.0807  0.0838 -0.1083
  128OSM   C17F13770   1.873   1.073   7.981 -0.6040 -0.4689  0.4836
  128OSM   H17F13771   1.796   1.058   7.903 -1.4485  2.9935  0.5164
  128OSM   H17G13772   1.903   1.179   7.983 -0.0899 -0.5975 -0.2299
  128OSM   C18F13773   1.828   1.005   8.114  0.0621  0.9003 -0.7039
  128OSM   H18F13774   1.844   0.895   8.108 -2.1750  0.4226  0.9713
  128OSM   H18G13775   1.721   1.007   8.142  0.8448 -0.2785  2.7889
  128OSM   H18H13776   1.860   1.049   8.211 -3.2439  2.0851 -0.0554
  129OSM      N13777   6.245   2.335   5.742 -0.2811  0.0958  0.3673
  129OSM    C1513778   6.393   2.321   5.717  0.0537  0.8566  0.3166
  129OSM   H15A13779   6.443   2.280   5.803 -0.0597  0.7897  0.3524
  129OSM   H15B13780   6.441   2.414   5.691 -1.5293  1.9281  1.0177
  129OSM   H15C13781   6.415   2.252   5.637 -1.5669 -1.0836  1.4420
  129OSM    C1413782   6.225   2.429   5.864  0.0750  0.3047  0.2406
  129OSM   H14A13783   6.252   2.532   5.849  0.2166  0.4677  1.5678
  129OSM   H14B13784   6.280   2.395   5.950  1.4973 -0.7568 -1.0310
  129OSM   H14C13785   6.122   2.430   5.895 -0.1149 -0.4898 -0.3189
  129OSM    C1313786   6.185   2.392   5.619 -0.2596  0.4544  0.1095
  129OSM   H13A13787   6.202   2.337   5.528 -1.1787  1.1004 -0.4740
  129OSM   H13B13788   6.218   2.494   5.606  0.0641  0.1683 -1.5592
  129OSM   H13C13789   6.078   2.395   5.633 -0.1973  0.0479  0.6767
  129OSM    C1213790   6.190   2.197   5.775 -0.2489  0.1680 -0.7187
  129OSM   H12A13791   6.091   2.206   5.819 -1.3539 -1.7413 -2.6219
  129OSM   H12B13792   6.251   2.154   5.852 -0.7938 -0.4893 -0.6484
  129OSM    C1113793   6.172   2.086   5.663 -0.3409  0.2846 -0.0330
  129OSM   H11A13794   6.108   2.138   5.588 -1.3584  0.0158  0.6386
  129OSM   H11B13795   6.106   2.001   5.689 -0.7543  0.3428 -0.8408
  129OSM      P13796   6.389   1.949   5.668 -0.3521  0.2011 -0.1892
  129OSM    O1313797   6.355   1.812   5.621  0.0537 -0.6350 -0.0644
  129OSM    O1413798   6.527   1.998   5.654  0.1063  0.2573 -0.8064
  129OSM    O1113799   6.349   1.944   5.820 -0.2492 -0.5118 -0.3381
  129OSM    O1213800   6.292   2.052   5.601  0.7773  0.4649  0.3875
  129OSM    C1S13801   6.435   1.884   5.912 -0.0593  0.1210 -0.3223
  129OSM    H1S13802   6.540   1.914   5.891 -0.6547  0.9112 -2.3822
  129OSM    H1T13803   6.421   1.774   5.910 -1.0071  0.2541 -1.5329
  129OSM     NF13804   6.509   1.875   6.149  0.0348  0.5209 -0.3881
  129OSM    HNF13805   6.481   1.795   6.202  0.0407 -1.3135 -2.9649
  129OSM    C2S13806   6.407   1.930   6.060 -0.3894 -0.2400  0.3344
  129OSM    H2S13807   6.417   2.040   6.072 -0.7603 -0.0744 -0.7209
  129OSM    C3S13808   6.257   1.896   6.097  0.0319 -0.2539  0.6705
  129OSM    H3S13809   6.250   1.786   6.083 -0.5235  0.0880 -2.1503
  129OSM     O313810   6.161   1.964   6.018  0.0157 -0.3578 -0.5747
  129OSM    HO313811   6.210   1.975   5.936 -0.6284  1.8255 -0.7352
  129OSM    C4S13812   6.237   1.930   6.241  0.5770 -0.1845 -0.7842
  129OSM    H4S13813   6.252   2.037   6.259 -0.6483  0.0789 -1.2284
  129OSM    C5S13814   6.208   1.847   6.344 -0.6673 -0.3058 -0.9754
  129OSM    H5S13815   6.179   1.742   6.328  0.9526 -1.0728  0.7150
  129OSM    C6S13816   6.192   1.885   6.484 -0.1181  0.0922 -0.0548
  129OSM    H6S13817   6.098   1.850   6.530 -0.9151  0.5282 -1.3005
  129OSM    H6T13818   6.185   1.996   6.495  1.8156  0.1551  0.9695
  129OSM    C7S13819   6.324   1.829   6.557  0.4270  0.7582  0.0621
  129OSM    H7S13820   6.320   1.719   6.546 -0.1467  0.8584 -0.7995
  129OSM    H7T13821   6.315   1.840   6.667  0.2144 -3.3958  0.5968
  129OSM    C8S13822   6.461   1.889   6.525 -0.5179  0.3770 -0.2412
  129OSM    H8S13823   6.476   1.873   6.416  0.2836 -0.0937 -0.0693
  129OSM    H8T13824   6.545   1.834   6.572 -1.6588 -1.6014 -0.4240
  129OSM    C9S13825   6.470   2.039   6.561  0.4641 -0.1980  0.0795
  129OSM    H9S13826   6.399   2.087   6.492  0.2166  1.6706  1.5644
  129OSM    H9T13827   6.573   2.068   6.530  1.0205 -0.8932  1.1970
  129OSM   C10S13828   6.436   2.069   6.705 -0.6565 -0.4653  0.4238
  129OSM   H10S13829   6.327   2.065   6.725 -1.3010  0.2020 -2.5060
  129OSM   H10T13830   6.470   2.174   6.715  0.2049 -0.5768 -1.0034
  129OSM   C11S13831   6.511   1.985   6.808 -0.5780 -0.0199 -0.2808
  129OSM   H11S13832   6.612   2.030   6.815 -0.8953  0.6931 -0.2076
  129OSM   H11T13833   6.513   1.877   6.782 -1.5808 -0.2190  0.4115
  129OSM   C12S13834   6.447   2.004   6.949 -0.0057  0.4897  0.4378
  129OSM   H12S13835   6.343   1.965   6.942 -1.0360  2.5604  2.7892
  129OSM   H12T13836   6.428   2.109   6.977  0.2773  0.4934  0.6195
  129OSM   C13S13837   6.524   1.936   7.064 -0.5821 -0.3993 -0.6222
  129OSM   H13S13838   6.629   1.962   7.041 -0.3584 -0.3731  0.3744
  129OSM   H13T13839   6.510   1.825   7.065  1.3571 -0.6991 -1.9375
  129OSM   C14S13840   6.481   1.994   7.203  0.3315  0.1057  0.2242
  129OSM   H14S13841   6.373   1.971   7.215  0.5853 -0.5690  1.3819
  129OSM   H14T13842   6.487   2.104   7.191 -0.8973 -0.0354 -2.4348
  129OSM   C15S13843   6.582   1.984   7.317  0.1586 -0.4711 -0.4960
  129OSM   H15S13844   6.678   2.011   7.268  0.8637 -2.2984 -0.1774
  129OSM   H15T13845   6.601   1.883   7.357  3.7483 -0.2670 -1.3594
  129OSM   C16S13846   6.551   2.080   7.436  0.0132 -0.0286 -0.0865
  129OSM   H16S13847   6.560   2.186   7.405  1.9237  0.4351  1.8751
  129OSM   H16T13848   6.623   2.068   7.520 -1.8269  1.6927  1.8593
  129OSM   C17S13849   6.414   2.059   7.507 -0.4825 -0.7129  0.1626
  129OSM   H17S13850   6.399   1.953   7.538 -0.2711 -0.1859  2.2419
  129OSM   H17T13851   6.336   2.083   7.432  1.2776  0.5909 -1.3011
  129OSM   C18S13852   6.393   2.151   7.632 -0.2495 -0.1979  0.0278
  129OSM   H18S13853   6.459   2.112   7.712  1.1539  1.4013 -0.2934
  129OSM   H18T13854   6.287   2.144   7.666 -0.4238 -0.2557 -0.5018
  129OSM   H18U13855   6.417   2.258   7.617  1.9341 -0.7353 -0.6680
  129OSM    C1F13856   6.637   1.907   6.153  0.1561 -0.3547 -0.2880
  129OSM     OF13857   6.679   1.995   6.072 -0.1831 -0.0593  0.4366
  129OSM    C2F13858   6.726   1.835   6.251  0.4989  0.3316 -0.0873
  129OSM    H2F13859   6.798   1.769   6.199 -1.2619 -1.5870 -0.2344
  129OSM    H2G13860   6.659   1.772   6.314  0.6588 -0.0464 -0.2932
  129OSM    C3F13861   6.808   1.924   6.348  0.0258 -0.6288 -0.2916
  129OSM    H3F13862   6.735   1.975   6.413  0.9891 -1.0394  1.1703
  129OSM    H3G13863   6.865   2.003   6.296 -0.8879 -0.4108 -0.9792
  129OSM    C4F13864   6.907   1.845   6.438 -0.4524 -0.4541  0.3126
  129OSM    H4F13865   6.968   1.919   6.494 -0.9431  0.0284  0.2294
  129OSM    H4G13866   6.980   1.770   6.401  1.5076 -0.0056  2.9707
  129OSM    C5F13867   6.828   1.770   6.549  0.3692 -0.0803  0.2616
  129OSM    H5F13868   6.778   1.688   6.495 -0.0503 -0.0212  0.5552
  129OSM    H5G13869   6.764   1.846   6.600  3.4364  2.2254  1.0057
  129OSM    C6F13870   6.928   1.717   6.657  0.0289 -0.3366  0.3162
  129OSM    H6F13871   6.979   1.803   6.706 -1.0849 -0.1698  1.2294
  129OSM    H6G13872   6.997   1.653   6.599 -1.3469 -1.1541 -0.4766
  129OSM    C7F13873   6.858   1.653   6.777  0.7513 -0.0115  0.4235
  129OSM    H7F13874   6.931   1.590   6.833  1.2799  2.3832  2.6217
  129OSM    H7G13875   6.783   1.587   6.728 -0.6981  2.1803 -0.4343
  129OSM    C8F13876   6.799   1.743   6.882 -0.0553 -0.4127 -0.3929
  129OSM    H8F13877   6.724   1.808   6.833  1.1286  0.0089 -1.7076
  129OSM    H8G13878   6.880   1.798   6.935 -0.0761 -0.9039  0.1714
  129OSM    C9F13879   6.726   1.667   6.997  0.2125 -0.2392  0.1756
  129OSM    H9F13880   6.646   1.609   6.949 -1.4436  0.8657  1.4647
  129OSM   C10F13881   6.775   1.634   7.119 -0.7244 -0.2053 -0.2486
  129OSM   H10F13882   6.713   1.571   7.184 -0.3299  1.5723  1.9792
  129OSM   C11F13883   6.909   1.682   7.178  0.0595  0.1705 -0.1380
  129OSM   H11F13884   6.942   1.773   7.123  0.8665 -0.7304 -1.1699
  129OSM   H11G13885   6.992   1.609   7.165  0.0138  0.3926 -1.8591
  129OSM   C12F13886   6.885   1.733   7.323 -0.1993  0.7836  0.3309
  129OSM   H12F13887   6.842   1.646   7.378  0.4196 -1.5936 -2.6493
  129OSM   H12G13888   6.815   1.819   7.322  1.4586  2.1685 -0.5418
  129OSM   C13F13889   7.015   1.772   7.394 -1.1708  1.0742 -0.0348
  129OSM   H13F13890   7.076   1.841   7.332 -1.4409  0.7411 -0.6796
  129OSM   H13G13891   7.075   1.679   7.405  0.3538  1.8899 -1.0860
  129OSM   C14F13892   6.993   1.836   7.532 -0.6916  0.0513  0.3439
  129OSM   H14F13893   6.955   1.938   7.511  0.4557  0.3651 -0.3024
  129OSM   H14G13894   7.093   1.851   7.578  0.1275  0.7173 -1.5469
  129OSM   C15F13895   6.913   1.761   7.632  0.1497  0.1160 -0.1013
  129OSM   H15F13896   6.965   1.663   7.643 -0.0802 -0.0524 -0.4855
  129OSM   H15G13897   6.813   1.731   7.594 -0.3126  0.8761  0.4799
  129OSM   C16F13898   6.857   1.839   7.751 -0.6161  0.0963 -0.6132
  129OSM   H16F13899   6.819   1.936   7.713 -0.3925  1.0360  1.4508
  129OSM   H16G13900   6.941   1.861   7.820 -0.4732  0.4037 -0.8832
  129OSM   C17F13901   6.732   1.778   7.814 -0.0841 -0.0964  0.2263
  129OSM   H17F13902   6.760   1.675   7.846  0.1562  0.1154  0.7171
  129OSM   H17G13903   6.652   1.778   7.737 -0.8120 -1.8929  0.9146
  129OSM   C18F13904   6.673   1.858   7.931 -0.5209 -0.0225 -0.6621
  129OSM   H18F13905   6.741   1.864   8.018 -1.1723 -2.3315  0.0828
  129OSM   H18G13906   6.567   1.828   7.944  0.1105 -3.1563 -1.8141
  129OSM   H18H13907   6.678   1.962   7.893  0.0282  1.3222  2.7232
  130OSM      N13908   1.832   5.403   5.989 -0.3151  0.4287 -0.7641
  130OSM    C1513909   1.957   5.337   5.942  0.0885 -0.2249  0.6927
  130OSM   H15A13910   1.988   5.264   6.016 -0.1994 -2.3869 -1.2179
  130OSM   H15B13911   2.032   5.409   5.910  0.4929 -0.6952  0.5669
  130OSM   H15C13912   1.929   5.281   5.855 -0.5171  3.3079 -1.6083
  130OSM    C1413913   1.795   5.492   5.879 -0.2750  0.0420  0.3800
  130OSM   H14A13914   1.880   5.555   5.859  0.7307 -1.6754 -1.0672
  130OSM   H14B13915   1.717   5.562   5.904 -1.4914 -0.7184 -1.0918
  130OSM   H14C13916   1.763   5.450   5.784 -0.0200 -2.5428  1.3403
  130OSM    C1313917   1.722   5.301   6.013  0.9146 -0.3498  0.3383
  130OSM   H13A13918   1.632   5.346   6.052 -1.3082 -2.5833 -1.8388
  130OSM   H13B13919   1.752   5.222   6.081  0.4550  0.5720  1.6546
  130OSM   H13C13920   1.675   5.270   5.921  1.3588  0.6213 -0.2171
  130OSM    C1213921   1.855   5.491   6.115  0.0290 -0.0170  0.1577
  130OSM   H12A13922   1.907   5.582   6.087  1.1813  0.4297  3.3310
  130OSM   H12B13923   1.912   5.439   6.191  0.6049 -0.3181 -0.4701
  130OSM    C1113924   1.731   5.559   6.188  0.6159  0.1098  0.0048
  130OSM   H11A13925   1.768   5.612   6.279 -0.4682  0.9444 -0.0105
  130OSM   H11B13926   1.668   5.477   6.230 -0.1519  2.3678  3.8446
  130OSM      P13927   1.646   5.802   6.127 -0.1008  0.1846 -0.2639
  130OSM    O1313928   1.769   5.867   6.074  0.7225 -0.3324  0.3342
  130OSM    O1413929   1.523   5.858   6.072  0.0155 -0.1540 -0.6368
  130OSM    O1113930   1.640   5.812   6.283 -0.1527 -0.7094  0.1323
  130OSM    O1213931   1.657   5.650   6.102 -0.3770 -0.7673  0.1856
  130OSM    C1S13932   1.521   5.775   6.346  0.4057  0.0626 -0.5261
  130OSM    H1S13933   1.477   5.679   6.313 -0.3994 -0.9397  3.0507
  130OSM    H1T13934   1.450   5.855   6.317 -0.5452 -1.0571 -1.3911
  130OSM     NF13935   1.410   5.708   6.554  0.0710  0.2733  0.2664
  130OSM    HNF13936   1.351   5.777   6.596 -0.6048 -0.9658  1.4092
  130OSM    C2S13937   1.530   5.778   6.501 -0.8054  0.7498  0.3009
  130OSM    H2S13938   1.621   5.717   6.521 -0.5952  0.7053 -0.7578
  130OSM    C3S13939   1.571   5.920   6.551 -0.5353 -0.5487  0.2948
  130OSM    H3S13940   1.497   5.999   6.526  1.0034 -0.2342 -4.2625
  130OSM     O313941   1.692   5.979   6.501  0.9116  0.5626  0.8034
  130OSM    HO313942   1.719   5.923   6.428 -1.3895 -0.0505  0.3442
  130OSM    C4S13943   1.599   5.909   6.701  0.0604 -0.0340  0.1597
  130OSM    H4S13944   1.661   5.825   6.734  0.5988  0.5262  0.5981
  130OSM    C5S13945   1.520   5.982   6.786 -0.6527 -0.1432  0.1977
  130OSM    H5S13946   1.437   6.038   6.741 -0.7510 -0.7956 -0.4404
  130OSM    C6S13947   1.517   5.974   6.937  0.1386  0.3617  0.4545
  130OSM    H6S13948   1.411   5.985   6.969 -0.1712  0.0372 -0.4217
  130OSM    H6T13949   1.564   6.063   6.983  0.6674 -0.6092  1.8427
  130OSM    C7S13950   1.571   5.835   6.990  0.0728  0.1680 -0.0479
  130OSM    H7S13951   1.679   5.817   6.969 -0.0844  0.5099 -1.2424
  130OSM    H7T13952   1.505   5.764   6.935 -0.0088  0.8104 -0.7937
  130OSM    C8S13953   1.554   5.825   7.140  0.4378 -0.4536 -0.3101
  130OSM    H8S13954   1.447   5.839   7.166  0.8323 -0.1039  1.2202
  130OSM    H8T13955   1.608   5.908   7.189 -0.2971  0.1367 -0.4816
  130OSM    C9S13956   1.598   5.696   7.197  0.5497 -0.1076 -0.2779
  130OSM    H9S13957   1.696   5.678   7.148 -0.4371 -0.7620 -2.0767
  130OSM    H9T13958   1.522   5.627   7.156 -1.1361  1.2748  0.4065
  130OSM   C10S13959   1.593   5.681   7.356 -0.0875 -0.2189 -0.0249
  130OSM   H10S13960   1.640   5.771   7.403  0.5619 -1.0822  1.0140
  130OSM   H10T13961   1.653   5.595   7.391 -0.8503 -0.3274  1.0462
  130OSM   C11S13962   1.450   5.664   7.407 -0.4991  0.0286 -0.2565
  130OSM   H11S13963   1.413   5.572   7.358 -1.9256  0.5128 -0.1353
  130OSM   H11T13964   1.388   5.749   7.373  0.8386  1.2626  0.2656
  130OSM   C12S13965   1.437   5.655   7.566  1.2173 -0.7786  0.3253
  130OSM   H12S13966   1.504   5.575   7.601  0.0833 -0.7890  2.6809
  130OSM   H12T13967   1.332   5.626   7.587  0.6666 -0.4413 -1.7159
  130OSM   C13S13968   1.473   5.788   7.641  0.0542 -0.2414 -0.1150
  130OSM   H13S13969   1.582   5.810   7.634  0.3972 -0.3841  3.2312
  130OSM   H13T13970   1.449   5.762   7.746 -2.5174 -1.4094 -0.9128
  130OSM   C14S13971   1.399   5.910   7.596  0.1539 -0.1116  0.2195
  130OSM   H14S13972   1.292   5.888   7.616  0.4588 -1.8930  0.0977
  130OSM   H14T13973   1.408   5.928   7.487  1.1161 -0.6155  0.2041
  130OSM   C15S13974   1.450   6.039   7.665 -0.1696  0.3084  0.0296
  130OSM   H15S13975   1.385   6.125   7.636 -0.5130 -0.3214 -1.1309
  130OSM   H15T13976   1.550   6.050   7.619 -0.5768 -1.4140 -1.3421
  130OSM   C16S13977   1.458   6.027   7.820 -0.2394  0.5351 -0.4316
  130OSM   H16S13978   1.385   5.955   7.861 -1.1583  2.6618  1.9502
  130OSM   H16T13979   1.438   6.128   7.863  0.0565 -0.0745  1.2174
  130OSM   C17S13980   1.602   5.998   7.880 -0.4431  0.6003 -0.3158
  130OSM   H17S13981   1.663   5.921   7.828  1.0335  0.4346  1.5824
  130OSM   H17T13982   1.590   5.957   7.983 -0.8846 -1.6717 -1.2167
  130OSM   C18S13983   1.686   6.123   7.893  0.5112  0.2821 -0.1089
  130OSM   H18S13984   1.680   6.183   7.800 -2.4574  1.2184  0.5638
  130OSM   H18T13985   1.794   6.100   7.904  0.9095  1.0136 -2.1364
  130OSM   H18U13986   1.657   6.193   7.975  1.4827  0.7629 -0.1618
  130OSM    C1F13987   1.384   5.579   6.533 -0.4457  0.0890 -0.2760
  130OSM     OF13988   1.480   5.503   6.514  0.3102 -0.5208  0.0997
  130OSM    C2F13989   1.242   5.528   6.538 -0.1687  0.0121 -0.1760
  130OSM    H2F13990   1.212   5.484   6.440  1.1075 -0.8303 -0.2213
  130OSM    H2G13991   1.170   5.611   6.551  0.9330  1.0912 -0.7518
  130OSM    C3F13992   1.209   5.426   6.646 -0.4304  0.6577  0.3020
  130OSM    H3F13993   1.276   5.339   6.630  1.6405  1.6120  2.9153
  130OSM    H3G13994   1.101   5.403   6.633 -0.5552  2.1734 -1.6218
  130OSM    C4F13995   1.216   5.484   6.786 -0.1194  0.4935 -0.0859
  130OSM    H4F13996   1.154   5.575   6.782  2.6026  2.4477 -0.5419
  130OSM    H4G13997   1.317   5.516   6.821 -0.9426  0.7327  2.2247
  130OSM    C5F13998   1.165   5.378   6.897  0.1551 -0.2207  1.0712
  130OSM    H5F13999   1.244   5.301   6.900  1.2025  0.8246  1.2183
  130OSM    H5G14000   1.075   5.323   6.861 -0.8505  2.0797 -0.1846
  130OSM    C6F14001   1.152   5.435   7.037 -0.4282  0.0867  0.3441
  130OSM    H6F14002   1.065   5.505   7.040  0.6854  1.6220 -1.5074
  130OSM    H6G14003   1.247   5.490   7.052  0.3457 -0.4122 -2.3328
  130OSM    C7F14004   1.135   5.328   7.149  0.2219 -0.0904 -0.6894
  130OSM    H7F14005   1.216   5.252   7.140 -0.3111 -1.0535  1.6553
  130OSM    H7G14006   1.039   5.275   7.132 -0.3021  0.9186 -0.9028
  130OSM    C8F14007   1.151   5.402   7.289  0.1999 -0.6689 -0.5728
  130OSM    H8F14008   1.092   5.496   7.279  0.8046 -0.3790 -1.6407
  130OSM    H8G14009   1.260   5.426   7.290  0.5202 -2.0023 -1.2300
  130OSM    C9F14010   1.099   5.305   7.397 -0.5780 -0.1875 -0.6856
  130OSM    H9F14011   1.125   5.201   7.370  0.9731  0.2856 -1.1028
  130OSM   C10F14012   1.012   5.326   7.499 -0.2368  0.3531  0.3767
  130OSM   H10F14013   0.995   5.240   7.566  0.3416  1.2133  1.6609
  130OSM   C11F14014   0.954   5.457   7.536 -0.1609 -0.1361 -0.4500
  130OSM   H11F14015   0.847   5.465   7.506 -0.0829 -3.3964 -2.0796
  130OSM   H11G14016   1.006   5.537   7.479  0.5308 -0.1757  0.1134
  130OSM   C12F14017   0.995   5.478   7.685 -0.7660  0.2241 -0.0882
  130OSM   H12F14018   1.100   5.441   7.693 -0.2328  0.5150 -3.7847
  130OSM   H12G14019   0.926   5.407   7.735 -0.6888 -1.6271 -2.4265
  130OSM   C13F14020   0.977   5.626   7.732  0.2938 -0.4232 -0.5823
  130OSM   H13F14021   0.873   5.662   7.717  0.5010 -0.4976 -2.4978
  130OSM   H13G14022   1.034   5.692   7.663 -0.1192 -0.2363 -0.7495
  130OSM   C14F14023   1.031   5.627   7.873  0.8910 -0.0952  0.3415
  130OSM   H14F14024   0.992   5.539   7.927  2.6235 -0.9235  0.3090
  130OSM   H14G14025   0.980   5.717   7.913 -2.8231 -1.5820 -0.6607
  130OSM   C15F14026   1.182   5.629   7.883  0.9529 -0.4151  0.7091
  130OSM   H15F14027   1.220   5.734   7.878  1.2593 -0.5572  0.0578
  130OSM   H15G14028   1.232   5.574   7.801 -0.5949 -1.5370  0.4730
  130OSM   C16F14029   1.258   5.573   8.007  0.6363 -0.5100 -0.9565
  130OSM   H16F14030   1.363   5.609   8.004  0.2482  1.7061  3.7707
  130OSM   H16G14031   1.257   5.463   7.990  0.2441 -0.6224 -0.2654
  130OSM   C17F14032   1.193   5.618   8.135  0.0375 -0.0725 -0.0852
  130OSM   H17F14033   1.117   5.698   8.119  1.6134  1.8741  1.5285
  130OSM   H17G14034   1.271   5.659   8.203 -1.0385 -0.3919  1.3927
  130OSM   C18F14035   1.133   5.507   8.219  0.1525  0.3949 -0.2072
  130OSM   H18F14036   1.092   5.553   8.312  2.0671  0.3644  0.7159
  130OSM   H18G14037   1.212   5.442   8.264 -0.5747  1.2538  2.4857
  130OSM   H18H14038   1.054   5.460   8.158  1.0864 -0.5025 -0.7658
  131OSM      N14039   0.641   2.674   5.480  0.1582  0.2403 -0.2370
  131OSM    C1514040   0.785   2.651   5.462  0.0628  0.2222  0.0970
  131OSM   H15A14041   0.843   2.711   5.530  2.0870 -0.9092 -0.5529
  131OSM   H15B14042   0.819   2.677   5.362  2.3884  0.8282  0.9921
  131OSM   H15C14043   0.821   2.550   5.474 -1.0854 -0.2845 -0.5646
  131OSM    C1414044   0.611   2.822   5.483 -0.5627  0.4201 -0.6366
  131OSM   H14A14045   0.657   2.868   5.569  0.1205 -1.4523  0.0473
  131OSM   H14B14046   0.504   2.834   5.480 -0.8421 -1.6012 -0.7437
  131OSM   H14C14047   0.656   2.869   5.397  1.1234 -0.3258 -0.2172
  131OSM    C1314048   0.567   2.607   5.364 -0.1109 -0.0802  0.2388
  131OSM   H13A14049   0.615   2.623   5.269  0.3330 -0.9229  0.3138
  131OSM   H13B14050   0.465   2.642   5.369  0.3199  1.0865  1.4310
  131OSM   H13C14051   0.565   2.500   5.380 -1.6027 -0.2484 -0.8314
  131OSM    C1214052   0.583   2.613   5.605  0.4820 -0.0737 -0.1003
  131OSM   H12A14053   0.579   2.506   5.588  1.8518 -0.3040  0.8518
  131OSM   H12B14054   0.484   2.651   5.624  1.2119  1.3197  1.1301
  131OSM    C1114055   0.653   2.630   5.735  0.4220 -0.1291  0.0121
  131OSM   H11A14056   0.758   2.595   5.722 -0.2432 -1.2494 -3.4377
  131OSM   H11B14057   0.600   2.565   5.808 -1.3650  0.7819 -0.4239
  131OSM      P14058   0.760   2.856   5.826  0.0437 -0.2996 -0.1950
  131OSM    O1314059   0.868   2.853   5.724 -0.2038 -0.1196 -0.3663
  131OSM    O1414060   0.721   2.993   5.865  0.0983  0.0770  0.6247
  131OSM    O1114061   0.815   2.783   5.954  0.4451 -0.3977  0.2486
  131OSM    O1214062   0.638   2.764   5.788 -0.1609  0.2735  0.0992
  131OSM    C1S14063   0.740   2.771   6.076  0.5811 -0.3804 -0.5118
  131OSM    H1S14064   0.690   2.672   6.071  0.1805 -0.1608 -1.0178
  131OSM    H1T14065   0.652   2.840   6.074  0.5610 -0.1773  2.6598
  131OSM     NF14066   0.743   2.723   6.326  0.0264 -0.3798  0.0504
  131OSM    HNF14067   0.719   2.796   6.390 -3.3330 -1.4185  0.1641
  131OSM    C2S14068   0.820   2.768   6.206 -0.5419 -0.7447  0.4870
  131OSM    H2S14069   0.900   2.693   6.192  1.1226  1.0067  0.2672
  131OSM    C3S14070   0.905   2.891   6.220 -0.6206  0.1806 -0.0095
  131OSM    H3S14071   0.838   2.978   6.239 -1.5602 -0.2604 -1.1465
  131OSM     O314072   0.986   2.921   6.106  0.0384  0.0216  0.4545
  131OSM    HO314073   0.947   2.878   6.030 -2.0607  2.5856 -0.0267
  131OSM    C4S14074   0.992   2.876   6.346 -0.0205  0.5049  0.0517
  131OSM    H4S14075   0.955   2.916   6.442  0.6519 -1.7943  1.3379
  131OSM    C5S14076   1.117   2.825   6.342  0.1338  0.0967  0.3968
  131OSM    H5S14077   1.157   2.794   6.245 -2.9498 -1.2118 -0.5889
  131OSM    C6S14078   1.205   2.809   6.459 -0.9995  0.2618 -0.4013
  131OSM    H6S14079   1.173   2.867   6.548  1.9619  2.6032 -0.6830
  131OSM    H6T14080   1.303   2.859   6.440 -0.8880  0.3251  0.3040
  131OSM    C7S14081   1.227   2.655   6.488  0.1030  0.1786 -0.1228
  131OSM    H7S14082   1.321   2.640   6.546  0.5961  2.2134 -0.3231
  131OSM    H7T14083   1.246   2.610   6.388 -0.2562  3.0508 -1.5954
  131OSM    C8S14084   1.106   2.593   6.563  0.2147 -0.2585  0.8315
  131OSM    H8S14085   1.129   2.485   6.549  1.8624  0.0272  1.0646
  131OSM    H8T14086   1.006   2.620   6.524  0.1910 -1.7555 -0.2171
  131OSM    C9S14087   1.117   2.616   6.715 -0.9804 -0.2238  0.9586
  131OSM    H9S14088   1.112   2.722   6.747  0.3551  0.1656 -0.0035
  131OSM    H9T14089   1.216   2.584   6.753  0.7924  3.6572  0.0730
  131OSM   C10S14090   1.010   2.538   6.798  0.1993  0.1735  0.1775
  131OSM   H10S14091   1.021   2.429   6.779  0.3014 -0.1384  1.8536
  131OSM   H10T14092   0.908   2.567   6.766 -0.1815  0.6089  1.6823
  131OSM   C11S14093   1.014   2.562   6.954 -0.0021 -0.0705 -0.1675
  131OSM   H11S14094   0.912   2.545   6.995 -0.6197  1.5409 -0.9368
  131OSM   H11T14095   1.034   2.670   6.970 -2.3455  0.5844 -1.2384
  131OSM   C12S14096   1.120   2.468   7.020 -0.0505 -0.2862 -0.0697
  131OSM   H12S14097   1.220   2.499   6.982 -0.3849  2.1667  0.8256
  131OSM   H12T14098   1.094   2.366   6.988 -0.1772  0.0103 -0.9346
  131OSM   C13S14099   1.138   2.475   7.173 -0.0550  0.3189 -0.2806
  131OSM   H13S14100   1.165   2.579   7.203  0.8271 -0.3857  1.5039
  131OSM   H13T14101   1.224   2.410   7.196 -1.7634 -2.0009 -0.0618
  131OSM   C14S14102   1.025   2.427   7.256  0.4982  0.3920  0.2428
  131OSM   H14S14103   1.000   2.323   7.229  3.1106 -0.0135 -0.8410
  131OSM   H14T14104   0.931   2.484   7.238  0.2180 -0.1683 -0.0716
  131OSM   C15S14105   1.036   2.451   7.405 -0.0057 -0.0203 -0.2823
  131OSM   H15S14106   1.069   2.554   7.432  0.4024 -0.3360  0.4486
  131OSM   H15T14107   1.116   2.384   7.441  0.1402  0.4928  0.3648
  131OSM   C16S14108   0.911   2.415   7.488 -0.0016 -0.4639  0.3723
  131OSM   H16S14109   0.893   2.306   7.485 -2.4834 -0.0961 -2.8209
  131OSM   H16T14110   0.824   2.464   7.440  1.5797  0.3375 -1.9085
  131OSM   C17S14111   0.918   2.438   7.635 -0.7656  0.1522 -0.3421
  131OSM   H17S14112   0.932   2.544   7.665 -1.0743 -0.4065  2.0274
  131OSM   H17T14113   1.018   2.404   7.671 -0.5002  1.6192  0.3656
  131OSM   C18S14114   0.804   2.383   7.719 -0.1199 -0.4443  0.2450
  131OSM   H18S14115   0.705   2.413   7.677 -0.4751 -0.4445  1.0543
  131OSM   H18T14116   0.805   2.428   7.821  0.6141 -0.8535  0.4237
  131OSM   H18U14117   0.814   2.275   7.739  0.9860 -0.2052  1.0606
  131OSM    C1F14118   0.702   2.606   6.357  0.1031  0.1466 -0.3555
  131OSM     OF14119   0.710   2.516   6.272  0.1669 -0.4249  0.5350
  131OSM    C2F14120   0.635   2.595   6.489  0.7071  0.0374 -0.3360
  131OSM    H2F14121   0.541   2.651   6.473  1.6081  1.5571 -0.4630
  131OSM    H2G14122   0.678   2.665   6.564 -0.3911 -0.8218  1.1651
  131OSM    C3F14123   0.614   2.447   6.535  0.1102 -0.3911 -0.3290
  131OSM    H3F14124   0.707   2.402   6.577  0.2598 -0.0679 -0.3142
  131OSM    H3G14125   0.562   2.385   6.458  0.5221 -0.4862 -0.5314
  131OSM    C4F14126   0.523   2.445   6.664 -0.4456 -0.4732  0.0067
  131OSM    H4F14127   0.512   2.340   6.699  0.0234 -0.4526  0.2213
  131OSM    H4G14128   0.422   2.482   6.635 -0.1922 -0.1578 -0.4907
  131OSM    C5F14129   0.575   2.526   6.778 -0.4651  0.3255 -0.7115
  131OSM    H5F14130   0.576   2.633   6.748 -0.4532 -0.1339 -2.4501
  131OSM    H5G14131   0.682   2.500   6.797 -0.4158 -0.3968 -1.9244
  131OSM    C6F14132   0.493   2.513   6.907  0.4594  0.5496 -0.0675
  131OSM    H6F14133   0.464   2.407   6.921 -0.6106  1.0406  1.6808
  131OSM    H6G14134   0.393   2.559   6.899  0.0586 -0.0976  1.0374
  131OSM    C7F14135   0.568   2.558   7.033 -0.3044  0.3559  0.4027
  131OSM    H7F14136   0.595   2.665   7.015  0.2800 -0.1632 -2.1685
  131OSM    H7G14137   0.672   2.523   7.044 -0.1582  1.0354  1.3764
  131OSM    C8F14138   0.486   2.542   7.159  0.0017  0.0844  0.8023
  131OSM    H8F14139   0.475   2.432   7.169  1.3495  0.0243  1.7792
  131OSM    H8G14140   0.385   2.587   7.148  0.1328  0.1172 -0.4054
  131OSM    C9F14141   0.560   2.598   7.274 -0.6225  0.4995  0.5273
  131OSM    H9F14142   0.668   2.600   7.253 -0.2635  1.9587  2.2454
  131OSM   C10F14143   0.518   2.664   7.375  0.9116 -0.5493 -0.0458
  131OSM   H10F14144   0.593   2.712   7.438  0.6494 -0.7836  0.4490
  131OSM   C11F14145   0.372   2.681   7.416 -0.8619 -0.0285 -0.0495
  131OSM   H11F14146   0.313   2.593   7.383  0.9461 -0.8485 -1.2019
  131OSM   H11G14147   0.319   2.759   7.356 -4.9089 -1.4447  1.3206
  131OSM   C12F14148   0.337   2.717   7.559 -0.3089 -0.0676 -0.3259
  131OSM   H12F14149   0.227   2.727   7.567 -0.3593 -0.8996  0.1936
  131OSM   H12G14150   0.375   2.817   7.586 -1.1298  0.0767  0.3449
  131OSM   C13F14151   0.385   2.610   7.658  0.2625 -0.8176 -0.7984
  131OSM   H13F14152   0.495   2.603   7.652  0.3889  0.2702 -0.0615
  131OSM   H13G14153   0.355   2.510   7.619  0.9924 -1.6099  0.5790
  131OSM   C14F14154   0.344   2.645   7.801  0.3911 -0.1297  0.1248
  131OSM   H14F14155   0.234   2.645   7.810  0.3949 -1.1369  0.2319
  131OSM   H14G14156   0.389   2.743   7.831  1.9797 -0.5868 -0.6599
  131OSM   C15F14157   0.378   2.534   7.898 -0.1270 -0.4145  0.5263
  131OSM   H15F14158   0.488   2.533   7.906  0.0264  1.9442 -0.4328
  131OSM   H15G14159   0.339   2.436   7.862 -1.1128  0.1141  0.0923
  131OSM   C16F14160   0.314   2.559   8.036 -1.0576  0.4136  0.5990
  131OSM   H16F14161   0.203   2.561   8.027 -1.2886 -3.6066  1.0869
  131OSM   H16G14162   0.333   2.660   8.078  0.0660 -0.0323  1.2010
  131OSM   C17F14163   0.352   2.458   8.140  0.1414  0.4536 -0.9068
  131OSM   H17F14164   0.463   2.456   8.147  0.1678 -0.5021 -1.4660
  131OSM   H17G14165   0.317   2.365   8.091 -1.8396  0.5811  0.1510
  131OSM   C18F14166   0.291   2.471   8.281 -0.5974 -0.2180 -0.4439
  131OSM   H18F14167   0.329   2.563   8.331  1.4928 -2.7119  3.0307
  131OSM   H18G14168   0.326   2.382   8.338  0.3659 -0.2513 -1.0670
  131OSM   H18H14169   0.180   2.472   8.278 -0.6451 -0.5854  0.7731
  132OSM      N14170   3.367   0.614   5.769  0.3643 -0.1143  0.2054
  132OSM    C1514171   3.439   0.710   5.855  0.3639  1.3894 -0.0592
  132OSM   H15A14172   3.537   0.672   5.882 -0.3742 -1.3405 -0.9006
  132OSM   H15B14173   3.388   0.719   5.950  1.2263  1.4705  0.4061
  132OSM   H15C14174   3.450   0.804   5.804  1.6745 -0.0918 -2.8085
  132OSM    C1414175   3.229   0.660   5.747 -0.4273 -0.8372  0.1406
  132OSM   H14A14176   3.237   0.767   5.735 -0.0370 -0.3283  3.6135
  132OSM   H14B14177   3.167   0.646   5.834 -0.4453 -0.1192  0.2461
  132OSM   H14C14178   3.183   0.609   5.665 -0.5974 -0.0076 -0.2870
  132OSM    C1314179   3.433   0.588   5.633 -0.2945  0.2833 -0.0635
  132OSM   H13A14180   3.383   0.517   5.570 -0.9570  1.5116 -0.9811
  132OSM   H13B14181   3.532   0.547   5.637 -0.4662 -0.2598 -1.2690
  132OSM   H13C14182   3.448   0.673   5.567 -0.8182  0.8344  0.5057
  132OSM    C1214183   3.345   0.481   5.846  0.8125 -0.7034 -0.2652
  132OSM   H12A14184   3.434   0.419   5.841 -0.2514 -2.2870 -0.3651
  132OSM   H12B14185   3.276   0.423   5.786 -0.8291  1.0594 -0.1665
  132OSM    C1114186   3.289   0.479   5.990 -0.1068 -0.0786 -0.1745
  132OSM   H11A14187   3.357   0.543   6.049 -0.3307  0.3902 -0.4192
  132OSM   H11B14188   3.294   0.374   6.027 -2.5488 -0.1980 -0.0628
  132OSM      P14189   3.030   0.473   5.961 -0.1068  0.6984 -0.1785
  132OSM    O1314190   2.931   0.582   5.940 -0.5315 -0.3447 -0.3012
  132OSM    O1414191   3.056   0.376   5.858  0.2935 -0.3419 -0.1358
  132OSM    O1114192   2.979   0.403   6.088 -0.2414  0.3879 -0.5766
  132OSM    O1214193   3.165   0.540   6.002 -0.2690 -0.2817  0.3220
  132OSM    C1S14194   2.994   0.471   6.214  0.9104  0.2241  1.0026
  132OSM    H1S14195   2.911   0.544   6.211 -1.7887 -2.6527 -1.0983
  132OSM    H1T14196   3.087   0.533   6.218  0.0982  1.6185 -0.3887
  132OSM     NF14197   2.978   0.447   6.464  0.4338  1.0551 -1.0108
  132OSM    HNF14198   3.045   0.428   6.536 -1.7917 -2.7051  0.3975
  132OSM    C2S14199   2.989   0.374   6.336 -0.3557  0.4983 -0.1377
  132OSM    H2S14200   2.895   0.315   6.328  1.0627 -2.1395  1.2931
  132OSM    C3S14201   3.097   0.265   6.328  0.0104  0.3480 -0.1923
  132OSM    H3S14202   3.193   0.318   6.344 -0.1568  0.7114 -0.3922
  132OSM     O314203   3.105   0.194   6.203  0.0720  0.3023 -0.3837
  132OSM    HO314204   3.067   0.249   6.135  0.3748  0.1100 -0.7131
  132OSM    C4S14205   3.073   0.174   6.447 -0.1146 -0.9052 -0.4642
  132OSM    H4S14206   3.092   0.222   6.544  0.5731 -0.2854 -0.8946
  132OSM    C5S14207   3.018   0.048   6.454 -0.3167 -0.8074 -0.0438
  132OSM    H5S14208   2.992  -0.004   6.361  0.4767 -2.2174  0.4791
  132OSM    C6S14209   2.971  -0.021   6.580  0.0026 -0.8573 -0.0560
  132OSM    H6S14210   3.045  -0.096   6.617 -0.7651 -1.7481 -0.2885
  132OSM    H6T14211   2.872  -0.057   6.546  0.2024  0.0955 -1.7622
  132OSM    C7S14212   2.941   0.071   6.707  0.6132  0.2376 -0.0108
  132OSM    H7S14213   2.857   0.132   6.668  0.3290 -0.0515  0.1415
  132OSM    H7T14214   3.031   0.134   6.721  1.8541 -1.1522 -1.3779
  132OSM    C8S14215   2.903  -0.003   6.833 -0.1934  0.0169  0.5223
  132OSM    H8S14216   2.997  -0.044   6.877 -0.5255 -2.9770 -1.2433
  132OSM    H8T14217   2.845  -0.089   6.793  1.8140 -0.7375 -0.9472
  132OSM    C9S14218   2.814   0.085   6.920  0.4002  0.0711  0.7022
  132OSM    H9S14219   2.717   0.105   6.871 -0.0452 -1.2108  1.0424
  132OSM    H9T14220   2.866   0.180   6.946 -0.1034 -0.0376  2.1905
  132OSM   C10S14221   2.781   0.011   7.050 -0.4633 -1.4642  0.2649
  132OSM   H10S14222   2.875  -0.029   7.094 -0.9369 -3.5571 -0.5220
  132OSM   H10T14223   2.723  -0.081   7.028  0.5174 -1.8001 -0.9722
  132OSM   C11S14224   2.684   0.090   7.144 -0.4571  0.3974  0.1254
  132OSM   H11S14225   2.585   0.093   7.094  0.5776  1.0658 -1.9770
  132OSM   H11T14226   2.715   0.194   7.167 -1.5376  0.5588  0.9430
  132OSM   C12S14227   2.665   0.007   7.269 -0.2593 -0.3880 -0.3295
  132OSM   H12S14228   2.765  -0.036   7.290  0.2269  0.7363 -0.2280
  132OSM   H12T14229   2.611  -0.087   7.247  1.3122 -1.8399  1.6160
  132OSM   C13S14230   2.615   0.081   7.397 -0.0482 -0.2843 -0.3088
  132OSM   H13S14231   2.504   0.090   7.404 -0.2024  0.5977 -2.8918
  132OSM   H13T14232   2.664   0.180   7.401 -1.0546  0.1813  0.9632
  132OSM   C14S14233   2.667   0.019   7.529 -0.4051  0.4596 -0.3906
  132OSM   H14S14234   2.774   0.045   7.544 -1.1011  3.3378  0.1880
  132OSM   H14T14235   2.650  -0.090   7.538 -0.9642  0.6857  1.8142
  132OSM   C15S14236   2.597   0.094   7.658  0.0167  0.3619 -0.3461
  132OSM   H15S14237   2.632   0.058   7.757  2.3055 -0.0181 -1.2252
  132OSM   H15T14238   2.487   0.083   7.650 -0.1214  1.9970 -1.2358
  132OSM   C16S14239   2.645   0.237   7.654  0.3727  0.3319 -0.3470
  132OSM   H16S14240   2.603   0.280   7.561 -0.1720  0.3987 -0.0723
  132OSM   H16T14241   2.753   0.263   7.643  0.7044  0.0227  1.6864
  132OSM   C17S14242   2.602   0.314   7.779 -0.3039  0.1660 -0.2910
  132OSM   H17S14243   2.645   0.268   7.870  0.4729  0.4648 -0.5016
  132OSM   H17T14244   2.491   0.310   7.784 -0.4092  0.0263 -2.0015
  132OSM   C18S14245   2.652   0.457   7.769 -0.5128 -0.3585 -0.2782
  132OSM   H18S14246   2.761   0.451   7.744 -0.5324  1.6448 -1.0210
  132OSM   H18T14247   2.637   0.511   7.865  1.7477 -2.1085  1.1914
  132OSM   H18U14248   2.619   0.520   7.685  3.2672  1.6405 -0.4777
  132OSM    C1F14249   2.888   0.542   6.490 -0.3998 -0.6835  0.7607
  132OSM     OF14250   2.778   0.536   6.433  0.3030 -0.5311  0.9005
  132OSM    C2F14251   2.909   0.644   6.594 -0.6384 -0.4244 -0.2746
  132OSM    H2F14252   2.947   0.738   6.548  0.7056  0.7527  2.9461
  132OSM    H2G14253   2.988   0.609   6.664 -1.3923 -0.3920  0.6147
  132OSM    C3F14254   2.782   0.687   6.673 -0.9689  0.1794 -0.2557
  132OSM    H3F14255   2.702   0.712   6.601  0.0024 -3.5544 -2.9512
  132OSM    H3G14256   2.808   0.781   6.726  0.4571  0.1620 -0.8735
  132OSM    C4F14257   2.731   0.578   6.774 -0.2607 -0.1350 -0.7508
  132OSM    H4F14258   2.709   0.482   6.722 -1.9146 -0.2358  0.0671
  132OSM    H4G14259   2.646   0.625   6.828  1.1723  0.3574  1.1948
  132OSM    C5F14260   2.814   0.538   6.903  0.2597  0.2754 -0.4865
  132OSM    H5F14261   2.839   0.630   6.961  0.2835  0.9318 -1.5073
  132OSM    H5G14262   2.915   0.506   6.868 -0.2358  1.8490 -3.8399
  132OSM    C6F14263   2.738   0.443   7.008 -0.0384  0.4000  0.3687
  132OSM    H6F14264   2.806   0.428   7.095 -0.7144  0.3227  0.8953
  132OSM    H6G14265   2.738   0.349   6.948 -0.6566  2.3240 -2.9022
  132OSM    C7F14266   2.593   0.480   7.035  0.2054  0.1709  0.0576
  132OSM    H7F14267   2.533   0.462   6.943 -0.1901  3.1010 -0.3350
  132OSM    H7G14268   2.583   0.588   7.057 -1.6179 -0.6281  4.0587
  132OSM    C8F14269   2.531   0.409   7.159 -0.5460 -0.1029  0.4319
  132OSM    H8F14270   2.532   0.298   7.152  1.8311 -0.0549 -1.2854
  132OSM    H8G14271   2.424   0.436   7.145 -0.1932  0.0784 -2.6521
  132OSM    C9F14272   2.590   0.456   7.285 -0.0309 -0.0559 -0.3591
  132OSM    H9F14273   2.687   0.411   7.310 -0.1399  0.0106  0.1966
  132OSM   C10F14274   2.524   0.509   7.387  0.2712  0.8727  0.3807
  132OSM   H10F14275   2.581   0.541   7.476  0.4614  0.2560  0.4859
  132OSM   C11F14276   2.390   0.574   7.379  0.2717 -0.2752  0.7470
  132OSM   H11F14277   2.344   0.588   7.279  0.4102 -1.5454  0.4984
  132OSM   H11G14278   2.400   0.675   7.425  0.0131 -0.9006  2.2466
  132OSM   C12F14279   2.289   0.489   7.450 -1.0152  0.0318  0.1257
  132OSM   H12F14280   2.288   0.388   7.405 -2.2632  0.5162 -1.0069
  132OSM   H12G14281   2.188   0.528   7.423 -1.6804 -1.6504  0.1018
  132OSM   C13F14282   2.323   0.482   7.598  0.1783  0.1869 -0.6805
  132OSM   H13F14283   2.366   0.579   7.630 -1.4587  1.1714 -1.3258
  132OSM   H13G14284   2.397   0.402   7.618 -1.0141 -0.6567  0.6054
  132OSM   C14F14285   2.189   0.470   7.679 -0.0153 -0.3740  0.3968
  132OSM   H14F14286   2.118   0.395   7.639 -2.2213  1.4737  0.6347
  132OSM   H14G14287   2.136   0.564   7.652 -0.7036 -0.7095  0.5752
  132OSM   C15F14288   2.207   0.469   7.831 -0.1306 -0.3881 -0.6062
  132OSM   H15F14289   2.277   0.548   7.866  0.4760 -0.8534 -0.7628
  132OSM   H15G14290   2.252   0.371   7.856 -1.9332 -1.1188 -0.0386
  132OSM   C16F14291   2.069   0.495   7.906  0.1604 -0.0583  0.9103
  132OSM   H16F14292   2.000   0.416   7.872  0.1546  0.7172 -0.9832
  132OSM   H16G14293   2.028   0.594   7.877  0.1216  0.5710  2.9338
  132OSM   C17F14294   2.081   0.494   8.053 -0.5158  0.1605 -0.0284
  132OSM   H17F14295   2.155   0.574   8.076 -0.9588  0.5575  0.0272
  132OSM   H17G14296   2.134   0.402   8.086 -3.0715 -1.6780 -0.7637
  132OSM   C18F14297   1.959   0.530   8.130  0.3285  0.1321  0.1575
  132OSM   H18F14298   1.903   0.435   8.117  1.4167 -0.5306  0.1689
  132OSM   H18G14299   1.909   0.617   8.082 -0.4463 -1.3591 -1.9049
  132OSM   H18H14300   1.989   0.545   8.236 -0.0473  0.3695  0.2319
  133SAPE     N14301   3.091   4.694  10.909 -0.5586  0.1735 -0.2876
  133SAPE   HN114302   3.166   4.645  10.962  1.2679  0.9253 -2.0328
  133SAPE   HN214303   3.018   4.717  10.980 -2.9100 -1.6095 -1.9591
  133SAPE   HN314304   3.055   4.637  10.830 -1.2397 -1.8245  1.3695
  133SAPE   C1214305   3.148   4.816  10.863  0.5852  0.3903 -0.0523
  133SAPE  H12A14306   3.197   4.858  10.954 -1.7935 -0.0402  1.5100
  133SAPE  H12B14307   3.068   4.888  10.837 -0.8293 -1.1039  0.0451
  133SAPE   C1114308   3.239   4.800  10.743  0.2301  0.6125 -0.0630
  133SAPE  H11A14309   3.313   4.723  10.775 -0.8196  0.3295  1.8307
  133SAPE  H11B14310   3.286   4.900  10.734  1.8376  0.1384  2.1624
  133SAPE     P14311   3.131   4.868  10.514 -0.1889  0.2994  0.2318
  133SAPE   O1314312   3.063   4.785  10.409  0.1819 -0.9899 -0.2200
  133SAPE   O1414313   3.046   4.973  10.575  0.0556 -0.3573 -0.1305
  133SAPE   O1214314   3.171   4.753  10.621  0.6156 -0.1314  0.0828
  133SAPE   O1114315   3.270   4.929  10.465 -0.2083  0.2330 -0.7763
  133SAPE    C114316   3.381   4.849  10.420 -0.2771  0.3229 -0.4875
  133SAPE    HA14317   3.477   4.904  10.420  0.5607 -0.8691  3.2238
  133SAPE    HB14318   3.404   4.763  10.487  1.4217  2.7400  2.2690
  133SAPE    C214319   3.371   4.794  10.276  0.0309 -0.4786  0.2162
  133SAPE    HS14320   3.468   4.806  10.223 -0.3328  1.7568 -0.0859
  133SAPE   O2114321   3.267   4.869  10.209 -0.2718 -0.5124 -0.5282
  133SAPE   C2114322   3.295   4.997  10.190  0.8802 -0.3040 -0.0746
  133SAPE   O2214323   3.393   5.059  10.224  0.5253  0.6594 -0.5144
  133SAPE   C2214324   3.162   5.057  10.133  0.0198 -0.4812 -0.3459
  133SAPE   H2R14325   3.080   4.984  10.116 -1.6582  1.2706 -0.0883
  133SAPE   H2S14326   3.134   5.124  10.217  1.2756 -0.5555  0.1648
  133SAPE    C314327   3.347   4.640  10.283 -0.2552 -0.4510 -0.0784
  133SAPE    HX14328   3.249   4.621  10.332 -0.7075  1.8318  0.0046
  133SAPE    HY14329   3.432   4.594  10.338  0.7814 -0.1518 -1.3831
  133SAPE   O3114330   3.355   4.600  10.150 -0.1677 -0.3329 -0.1183
  133SAPE   C3114331   3.335   4.473  10.123  0.1274 -0.4077  0.1508
  133SAPE   O3214332   3.317   4.382  10.202  0.5714 -0.0481 -0.7716
  133SAPE   C3214333   3.340   4.470   9.971  0.2153 -1.2072 -0.0014
  133SAPE   H2X14334   3.418   4.545   9.945 -0.5732  1.0771  3.4070
  133SAPE   H2Y14335   3.243   4.503   9.928 -0.0805  0.9056  2.0583
  133SAPE   C2314336   3.194   5.128   9.994  0.7235 -0.6448 -0.3437
  133SAPE   H3R14337   3.284   5.193   9.992 -0.3376  0.9282  0.8547
  133SAPE   H3S14338   3.107   5.197   9.992  0.3573 -1.0301  1.0513
  133SAPE   C2414339   3.181   5.038   9.864  0.1394 -0.5943 -0.1768
  133SAPE   H4R14340   3.184   5.096   9.769 -1.8979  0.1643  0.1762
  133SAPE   H4S14341   3.084   4.986   9.865 -0.3285  0.2653  0.0494
  133SAPE   C2514342   3.296   4.939   9.855  0.5062  0.3803  0.6047
  133SAPE   H5R14343   3.391   4.970   9.899 -1.0800  1.6186  3.4381
  133SAPE   C2614344   3.290   4.826   9.782 -0.7202  0.1444  0.2945
  133SAPE   H6R14345   3.372   4.754   9.796  0.4758  1.8376  2.5055
  133SAPE   C2714346   3.174   4.784   9.693  0.2403  0.0932 -0.9561
  133SAPE   H7R14347   3.118   4.874   9.660  1.9457  2.4965  2.2122
  133SAPE   H7S14348   3.117   4.724   9.767  0.5750 -0.5295 -1.1912
  133SAPE   C2814349   3.209   4.704   9.576  0.2338 -0.0727  0.7530
  133SAPE   H8R14350   3.266   4.611   9.593 -0.1674 -0.8229 -1.6312
  133SAPE   C2914351   3.204   4.744   9.448 -0.5763 -0.4825  0.3123
  133SAPE   H9R14352   3.226   4.672   9.368 -0.8390 -1.3180  0.9761
  133SAPE  C21014353   3.133   4.869   9.396  0.7650  0.6137  0.6220
  133SAPE  H10R14354   3.151   4.882   9.287 -1.0158 -0.9036  0.0859
  133SAPE  H10S14355   3.182   4.960   9.436 -2.4757  3.2120 -0.8873
  133SAPE  C21114356   2.982   4.880   9.424  0.0495 -0.5069 -0.4200
  133SAPE  H11R14357   2.942   4.804   9.493 -0.3708  0.2438  0.1835
  133SAPE  C21214358   2.903   4.984   9.390  0.4369  0.1409  0.0728
  133SAPE  H12R14359   2.795   4.973   9.410  0.0521 -2.1654 -2.4878
  133SAPE  C21314360   2.951   5.108   9.311  0.0009 -0.7851  0.1190
  133SAPE  H13R14361   3.043   5.079   9.256  0.1409  0.5447 -0.3976
  133SAPE  H13S14362   2.985   5.186   9.383 -0.7886  0.6351 -0.9985
  133SAPE  C21414363   2.840   5.155   9.219  0.8260 -0.2792  0.2949
  133SAPE  H14R14364   2.743   5.167   9.270  0.4045 -0.1875 -0.5072
  133SAPE  C21514365   2.842   5.165   9.084  0.4340 -0.2138 -0.1160
  133SAPE  H15R14366   2.744   5.182   9.037 -2.2726  0.2456  4.9462
  133SAPE  C21614367   2.953   5.131   8.995 -0.6464  0.2999  0.0257
  133SAPE  H16R14368   2.931   5.076   8.901  0.7570  0.9182 -0.6881
  133SAPE  H16S14369   2.999   5.049   9.054 -3.9572 -0.1154  2.3432
  133SAPE  C21714370   3.053   5.244   8.967 -0.1000 -0.1219  0.0199
  133SAPE  H17R14371   3.088   5.301   9.056  1.0261 -0.6850 -0.0437
  133SAPE  H17S14372   3.012   5.327   8.907  1.6203 -0.1631 -1.3070
  133SAPE  C21814373   3.162   5.186   8.888  0.0749 -0.7997  0.6153
  133SAPE  H18R14374   3.125   5.156   8.788 -0.4240 -1.2086  0.9175
  133SAPE  H18S14375   3.192   5.090   8.935  1.3912 -0.9066 -0.3891
  133SAPE  C21914376   3.284   5.278   8.855  0.2882 -0.1941  0.6525
  133SAPE  H19R14377   3.358   5.269   8.938 -0.0819  0.6379  1.0820
  133SAPE  H19S14378   3.264   5.387   8.851  0.7050 -0.1501 -0.6036
  133SAPE  C22014379   3.342   5.244   8.718 -0.9407 -0.4970  0.3213
  133SAPE  H20R14380   3.441   5.294   8.714 -1.4081  0.4908  0.7229
  133SAPE  H20S14381   3.286   5.277   8.628  3.1830  1.1816 -1.8811
  133SAPE  H20T14382   3.356   5.134   8.717 -2.2122 -0.6904  1.2240
  133SAPE   C3314383   3.384   4.334   9.915 -0.3852 -0.6738  0.1463
  133SAPE   H3X14384   3.293   4.273   9.895  0.2418 -1.1675 -1.2566
  133SAPE   H3Y14385   3.466   4.287   9.973  1.1327  0.9177 -0.6373
  133SAPE   C3414386   3.442   4.349   9.778  0.2567 -0.4636 -0.3089
  133SAPE   H4X14387   3.536   4.409   9.779 -0.1943  0.3249 -2.1860
  133SAPE   H4Y14388   3.372   4.395   9.706 -0.3718 -1.8362 -0.5990
  133SAPE   C3514389   3.460   4.213   9.715 -0.1779 -0.3191  0.2214
  133SAPE   H5X14390   3.362   4.164   9.694 -0.4838  0.7856 -1.1170
  133SAPE   H5Y14391   3.518   4.149   9.785  2.1252  2.5612  1.1283
  133SAPE   C3614392   3.538   4.220   9.585 -0.5454  0.6033 -0.2220
  133SAPE   H6X14393   3.644   4.246   9.608 -0.5570 -0.7919  1.5719
  133SAPE   H6Y14394   3.488   4.305   9.533 -0.1742  0.9368 -0.0437
  133SAPE   C3714395   3.548   4.093   9.509  0.4792  0.3067  0.4134
  133SAPE   H7X14396   3.443   4.059   9.493  0.3842  0.6357  0.3406
  133SAPE   H7Y14397   3.602   4.020   9.573  1.2874 -0.4202 -1.0585
  133SAPE   C3814398   3.612   4.099   9.364 -0.0388 -0.1836 -0.1893
  133SAPE   H8X14399   3.722   4.090   9.377 -0.0643  0.7032  0.7590
  133SAPE   H8Y14400   3.595   4.201   9.323 -1.4259 -0.3566 -0.0944
  133SAPE   C3914401   3.549   3.985   9.285 -0.5508 -0.2055 -0.9892
  133SAPE   H9X14402   3.439   3.981   9.273 -0.5304 -2.1273 -0.8946
  133SAPE   H9Y14403   3.576   3.891   9.337 -0.9075  0.0188 -0.3814
  133SAPE  C31014404   3.606   4.005   9.149  0.0274  0.0354  0.3724
  133SAPE  H10X14405   3.716   3.992   9.144 -0.1655 -1.4846 -0.6437
  133SAPE  H10Y14406   3.582   4.105   9.109  0.0424 -0.8185 -1.9367
  133SAPE  C31114407   3.535   3.905   9.055 -0.2327 -0.1000  1.0768
  133SAPE  H11X14408   3.426   3.926   9.057 -0.5405 -1.6090  1.0590
  133SAPE  H11Y14409   3.535   3.798   9.084  0.4884 -1.0432 -2.1010
  133SAPE  C31214410   3.596   3.920   8.913  0.2728  0.0511  0.5104
  133SAPE  H12X14411   3.707   3.916   8.913  0.3672  1.9656  0.0776
  133SAPE  H12Y14412   3.567   4.015   8.863  0.4561  1.5819  3.1244
  133SAPE  C31314413   3.549   3.818   8.809 -0.0737  0.3907 -0.3729
  133SAPE  H13X14414   3.594   3.844   8.711 -0.8003  0.1448 -0.7790
  133SAPE  H13Y14415   3.442   3.838   8.791 -0.0726  0.6083 -0.1460
  133SAPE  C31414416   3.557   3.665   8.837  0.5521  0.4588 -0.1051
  133SAPE  H14X14417   3.484   3.645   8.919  0.5905  0.5549 -0.0465
  133SAPE  H14Y14418   3.649   3.632   8.891 -1.3514 -2.3298  1.7027
  133SAPE  C31514419   3.515   3.583   8.716  0.0777 -0.1365 -0.2210
  133SAPE  H15X14420   3.424   3.639   8.684 -0.1739  0.2788  1.1555
  133SAPE  H15Y14421   3.496   3.477   8.741  2.2008 -0.5108 -0.0149
  133SAPE  C31614422   3.622   3.587   8.604  0.6241  0.1638 -0.2734
  133SAPE  H16X14423   3.715   3.530   8.625  0.4207  0.0758  0.4178
  133SAPE  H16Y14424   3.643   3.694   8.583  1.4266  0.3101  1.1278
  133SAPE  C31714425   3.565   3.520   8.476  0.0489 -0.8229  0.0403
  133SAPE  H17X14426   3.493   3.581   8.415  1.3522 -1.0724 -1.8327
  133SAPE  H17Y14427   3.524   3.421   8.505  2.6394 -2.1431 -0.5262
  133SAPE  C31814428   3.674   3.483   8.375 -0.9783 -0.5366 -0.2904
  133SAPE  H18X14429   3.763   3.429   8.415  0.5286  0.7718 -1.7404
  133SAPE  H18Y14430   3.707   3.565   8.308  0.1461 -0.2111  0.6472
  133SAPE  H18Z14431   3.637   3.408   8.300  0.8528 -0.5857 -1.1934
  134SAPE     N14432   1.177   0.734  16.004  0.3983 -0.6334  0.0377
  134SAPE   HN114433   1.262   0.696  15.957 -0.9459 -0.7364 -2.4828
  134SAPE   HN214434   1.139   0.817  15.954 -2.2212 -1.1442  0.9891
  134SAPE   HN314435   1.210   0.767  16.097 -2.4295  0.7233  0.6573
  134SAPE   C1214436   1.066   0.636  16.024 -0.0860  0.2647  0.0113
  134SAPE  H12A14437   1.034   0.613  15.920 -0.1523  1.3388 -0.2124
  134SAPE  H12B14438   0.989   0.690  16.083  1.7344  3.8681 -0.6136
  134SAPE   C1114439   1.111   0.497  16.077  0.4864  0.1488  0.2477
  134SAPE  H11A14440   1.025   0.426  16.075 -1.4464  2.3343  0.7796
  134SAPE  H11B14441   1.138   0.505  16.184  0.2802 -1.0755  0.4062
  134SAPE     P14442   1.235   0.326  15.921 -0.0136  0.3568 -0.1582
  134SAPE   O1314443   1.176   0.350  15.785  0.5729  0.1281 -0.2950
  134SAPE   O1414444   1.371   0.272  15.917 -0.8778  0.1770  0.0472
  134SAPE   O1214445   1.226   0.453  16.006 -0.1872  0.1759  0.0859
  134SAPE   O1114446   1.153   0.218  16.009  0.0478  0.1182  1.2820
  134SAPE    C114447   1.213   0.187  16.140 -0.5527  0.1998  1.0259
  134SAPE    HA14448   1.283   0.102  16.127  0.2187  1.0706 -0.8598
  134SAPE    HB14449   1.267   0.275  16.182  0.4346 -0.5174  1.2973
  134SAPE    C214450   1.096   0.160  16.243 -0.1616 -0.3696  0.8563
  134SAPE    HS14451   1.040   0.072  16.207 -0.9511 -0.5580  2.4353
  134SAPE   O2114452   1.015   0.276  16.234  0.1727  0.3805  0.4389
  134SAPE   C2114453   0.890   0.258  16.276  0.0938  1.2036  0.2077
  134SAPE   O2214454   0.845   0.149  16.313 -0.1667  0.0260 -0.8210
  134SAPE   C2214455   0.809   0.384  16.266  0.5685 -0.6406 -0.2507
  134SAPE   H2R14456   0.858   0.458  16.199 -1.3754  1.3058  0.3706
  134SAPE   H2S14457   0.718   0.351  16.213 -0.2670 -2.3433  2.1011
  134SAPE    C314458   1.161   0.131  16.376 -0.4707  0.5698 -0.8251
  134SAPE    HX14459   1.191   0.024  16.376 -0.4982  0.5195 -3.0361
  134SAPE    HY14460   1.079   0.144  16.450 -2.2221 -3.5113 -1.7637
  134SAPE   O3114461   1.274   0.216  16.412 -0.3547  0.0962 -0.3128
  134SAPE   C3114462   1.353   0.174  16.511  1.3589 -0.3143  0.2727
  134SAPE   O3214463   1.347   0.075  16.577  0.5574  0.1098  0.0328
  134SAPE   C3214464   1.451   0.288  16.531 -0.0486  0.2593  0.1805
  134SAPE   H2X14465   1.500   0.314  16.435  0.1402 -3.7084 -0.9433
  134SAPE   H2Y14466   1.532   0.255  16.601  0.0682  0.8580  0.3370
  134SAPE   C2314467   0.768   0.441  16.399 -0.4523  0.0530  0.3405
  134SAPE   H3R14468   0.751   0.349  16.458 -1.4405 -0.6525 -0.9846
  134SAPE   H3S14469   0.673   0.500  16.396 -1.1867 -1.0858 -3.0242
  134SAPE   C2414470   0.874   0.525  16.473 -0.5330 -0.4659  0.0944
  134SAPE   H4R14471   0.966   0.464  16.492 -0.4517  0.3719  2.6927
  134SAPE   H4S14472   0.837   0.544  16.575  1.2598 -1.1950  0.9298
  134SAPE   C2514473   0.901   0.659  16.417  0.1624  0.2823 -0.0146
  134SAPE   H5R14474   0.858   0.675  16.317  0.4961 -2.8765 -0.7469
  134SAPE   C2614475   0.959   0.758  16.486 -0.0817 -0.1020  0.4874
  134SAPE   H6R14476   0.969   0.855  16.434 -2.9526  0.9108  1.6060
  134SAPE   C2714477   1.025   0.754  16.618  0.0385  0.1077 -0.8192
  134SAPE   H7R14478   1.130   0.724  16.595 -0.1299 -0.8293 -0.3882
  134SAPE   H7S14479   0.990   0.676  16.689 -1.2973 -1.6427 -3.2624
  134SAPE   C2814480   1.032   0.896  16.671  0.7086  0.3079 -0.5680
  134SAPE   H8R14481   0.963   0.965  16.620 -1.0988 -2.4884 -2.1432
  134SAPE   C2914482   1.114   0.938  16.778 -0.1018 -0.1678  0.3983
  134SAPE   H9R14483   1.106   1.042  16.813  0.7360 -0.3692  1.2052
  134SAPE  C21014484   1.197   0.852  16.861  0.0805  0.0336  0.6353
  134SAPE  H10R14485   1.301   0.872  16.825  0.0189 -1.2767 -0.3349
  134SAPE  H10S14486   1.176   0.748  16.828  2.4118 -0.5582  0.8164
  134SAPE  C21114487   1.166   0.868  17.004 -0.1095  0.1748  0.2635
  134SAPE  H11R14488   1.223   0.942  17.063 -1.7060  2.8104 -1.3337
  134SAPE  C21214489   1.083   0.779  17.069  0.2956 -0.9777  0.1915
  134SAPE  H12R14490   1.065   0.777  17.177 -0.4054 -2.6683  0.0660
  134SAPE  C21314491   1.010   0.666  17.007  0.4288 -0.2740 -0.0226
  134SAPE  H13R14492   1.082   0.582  16.995 -1.3494 -1.7395 -1.0309
  134SAPE  H13S14493   0.982   0.685  16.901  0.5044 -3.2456 -0.6694
  134SAPE  C21414494   0.889   0.615  17.077  0.2739  0.0708 -0.4968
  134SAPE  H14R14495   0.909   0.554  17.166 -0.1805 -1.9377 -1.7023
  134SAPE  C21514496   0.756   0.646  17.057 -0.1321  1.1873 -0.6638
  134SAPE  H15R14497   0.683   0.596  17.123  0.7579  0.0203 -0.5299
  134SAPE  C21614498   0.695   0.743  16.958 -0.7772  0.0452  0.3245
  134SAPE  H16R14499   0.773   0.808  16.913 -3.0237  1.6100 -1.4941
  134SAPE  H16S14500   0.636   0.816  17.017  1.2255  0.4006  2.0361
  134SAPE  C21714501   0.615   0.672  16.844 -0.3005  0.5590  0.1209
  134SAPE  H17R14502   0.529   0.621  16.892  0.9886 -2.2383 -0.3629
  134SAPE  H17S14503   0.689   0.600  16.803  0.7064  0.7847  1.4734
  134SAPE  C21814504   0.557   0.774  16.744  1.1591 -0.0029 -0.1169
  134SAPE  H18R14505   0.640   0.838  16.709  1.5231 -1.3622 -1.9352
  134SAPE  H18S14506   0.484   0.835  16.801 -0.7797 -1.7196 -0.6348
  134SAPE  C21914507   0.463   0.716  16.625 -0.5800 -0.2067 -0.0100
  134SAPE  H19R14508   0.518   0.639  16.567 -1.6744 -1.0996  0.0985
  134SAPE  H19S14509   0.434   0.802  16.560 -0.2183  0.1876  0.3405
  134SAPE  C22014510   0.343   0.641  16.673 -0.6780 -0.6923 -0.2829
  134SAPE  H20R14511   0.285   0.711  16.737 -0.1923  0.3377 -0.9356
  134SAPE  H20S14512   0.390   0.555  16.725  0.0530  0.0729  0.3665
  134SAPE  H20T14513   0.277   0.613  16.589  0.5806  0.0432 -1.5607
  134SAPE   C3314514   1.391   0.418  16.595 -1.1707  0.9542 -0.4435
  134SAPE   H3X14515   1.313   0.457  16.526 -2.6700 -0.3110  0.4622
  134SAPE   H3Y14516   1.474   0.490  16.612 -0.3358 -0.6805  3.7527
  134SAPE   C3414517   1.339   0.394  16.741  0.3869 -0.4150  0.3817
  134SAPE   H4X14518   1.366   0.475  16.813  1.6059 -1.1888  0.8210
  134SAPE   H4Y14519   1.393   0.304  16.778  1.8019 -0.0949 -0.8174
  134SAPE   C3514520   1.186   0.369  16.748 -0.4868 -0.1725  0.1747
  134SAPE   H5X14521   1.164   0.290  16.673  1.0727 -0.7007  0.2267
  134SAPE   H5Y14522   1.130   0.460  16.719  0.4681 -0.3036 -2.2624
  134SAPE   C3614523   1.144   0.324  16.882  0.5165 -0.1897 -0.1143
  134SAPE   H6X14524   1.181   0.386  16.966  1.2263  3.4310 -2.8712
  134SAPE   H6Y14525   1.192   0.227  16.909  0.6969 -0.2683 -0.7087
  134SAPE   C3714526   0.991   0.309  16.899 -0.2075 -0.0566 -0.2160
  134SAPE   H7X14527   0.942   0.402  16.862 -2.7293 -0.5524  1.5744
  134SAPE   H7Y14528   0.976   0.286  17.006  1.8332  1.9515  0.5753
  134SAPE   C3814529   0.914   0.202  16.820  0.4546  0.3223  0.0494
  134SAPE   H8X14530   0.945   0.103  16.859  1.4442  1.1140  1.3627
  134SAPE   H8Y14531   0.929   0.202  16.710 -1.0700  0.9138 -0.1754
  134SAPE   C3914532   0.761   0.219  16.844  0.9246 -0.0939 -0.2223
  134SAPE   H9X14533   0.738   0.323  16.812  0.6897  0.7257  2.3420
  134SAPE   H9Y14534   0.732   0.223  16.952 -2.6779 -1.5250 -0.9899
  134SAPE  C31014535   0.688   0.112  16.774  0.1033 -0.5393 -0.1966
  134SAPE  H10X14536   0.589   0.114  16.823  0.9438 -0.6986  1.5988
  134SAPE  H10Y14537   0.731   0.013  16.800 -0.5481 -0.7064  0.2688
  134SAPE  C31114538   0.693   0.127  16.621 -0.4082  0.3101  0.5738
  134SAPE  H11X14539   0.792   0.162  16.584 -1.1955  0.5878 -1.3794
  134SAPE  H11Y14540   0.622   0.206  16.589 -1.3027  0.0634  1.8656
  134SAPE  C31214541   0.646   0.002  16.559 -1.1549 -0.0383  0.4631
  134SAPE  H12X14542   0.723  -0.075  16.578 -1.0234 -0.0135  0.0418
  134SAPE  H12Y14543   0.624   0.021  16.451 -0.5855  1.7561  0.6393
  134SAPE  C31314544   0.520  -0.062  16.614  0.6595 -0.2254  0.2212
  134SAPE  H13X14545   0.432   0.004  16.598  0.4505 -0.4715  0.3537
  134SAPE  H13Y14546   0.515  -0.073  16.725 -0.4267  1.6322  0.4076
  134SAPE  C31414547   0.492  -0.210  16.569  0.5728  0.5602 -0.2187
  134SAPE  H14X14548   0.428  -0.256  16.647 -0.1112  1.5022 -0.2069
  134SAPE  H14Y14549   0.592  -0.256  16.548  1.2628  1.1484  1.5333
  134SAPE  C31514550   0.420  -0.208  16.434 -0.0966  0.2091  0.7909
  134SAPE  H15X14551   0.485  -0.189  16.346 -1.6708 -0.2790 -0.5294
  134SAPE  H15Y14552   0.339  -0.131  16.435 -0.1204  0.1870  0.4316
  134SAPE  C31614553   0.347  -0.340  16.395  0.2871  0.9049  0.3140
  134SAPE  H16X14554   0.416  -0.427  16.388  1.7584  1.9982  0.7600
  134SAPE  H16Y14555   0.299  -0.341  16.295 -1.2260  1.8787  0.9937
  134SAPE  C31714556   0.245  -0.376  16.504  0.5173  0.5078  0.5928
  134SAPE  H17X14557   0.192  -0.284  16.536 -2.5375 -0.7028 -0.5820
  134SAPE  H17Y14558   0.298  -0.402  16.598 -1.5662 -0.3292  1.5909
  134SAPE  C31814559   0.137  -0.484  16.469 -0.7480 -0.0174 -0.4437
  134SAPE  H18X14560   0.073  -0.462  16.380 -0.9111 -0.4491 -0.4357
  134SAPE  H18Y14561   0.078  -0.502  16.561 -0.3997 -0.1435 -0.2442
  134SAPE  H18Z14562   0.198  -0.571  16.438 -0.6851  1.0733 -3.7689
  135SAPE     N14563   6.553   1.122  10.362 -0.4860 -0.5690 -0.0100
  135SAPE   HN114564   6.562   1.221  10.396  2.3101 -0.0941 -1.7984
  135SAPE   HN214565   6.579   1.050  10.433 -1.1116  1.0256  1.9663
  135SAPE   HN314566   6.620   1.108  10.284 -1.0989 -0.2542 -0.5992
  135SAPE   C1214567   6.399   1.093  10.334 -0.2169 -0.1372 -0.3954
  135SAPE  H12A14568   6.384   0.985  10.314 -0.4636  0.0634 -1.3366
  135SAPE  H12B14569   6.370   1.149  10.243 -0.9420  0.3613  0.1321
  135SAPE   C1114570   6.291   1.128  10.444  0.1147 -0.1170 -0.0129
  135SAPE  H11A14571   6.298   1.053  10.527 -0.3881 -1.7903 -1.4197
  135SAPE  H11B14572   6.186   1.104  10.415  0.5268 -0.0314 -1.6664
  135SAPE     P14573   6.192   1.367  10.479 -0.0523  0.1782  0.4300
  135SAPE   O1314574   6.086   1.331  10.571 -0.3058  0.0564 -0.5911
  135SAPE   O1414575   6.261   1.501  10.496  0.1181 -0.4841 -0.3303
  135SAPE   O1214576   6.310   1.266  10.491  0.3561 -0.0123  0.3800
  135SAPE   O1114577   6.153   1.356  10.325 -0.2626  0.0124  0.6616
  135SAPE    C114578   6.026   1.369  10.272  0.3168  0.5977 -0.0670
  135SAPE    HA14579   5.962   1.431  10.338 -1.9626  0.7432 -2.2473
  135SAPE    HB14580   6.030   1.420  10.173  2.9382 -2.3841 -1.7033
  135SAPE    C214581   5.951   1.231  10.256  0.2309 -0.1355 -0.4677
  135SAPE    HS14582   5.941   1.191  10.359 -0.0540 -0.4836 -0.6302
  135SAPE   O2114583   6.040   1.150  10.178  0.5030 -0.5280  0.1579
  135SAPE   C2114584   6.041   1.016  10.197  0.5273  0.3133  0.5012
  135SAPE   O2214585   5.978   0.964  10.291  0.4582 -0.1934 -0.3386
  135SAPE   C2214586   6.134   0.957  10.091 -0.2191 -0.0020 -0.2177
  135SAPE   H2R14587   6.073   0.934  10.001  0.2292 -0.4249 -0.4220
  135SAPE   H2S14588   6.211   1.032  10.061  0.3057  0.1086  1.3546
  135SAPE    C314589   5.813   1.243  10.189  0.5300  0.2362 -0.5468
  135SAPE    HX14590   5.742   1.306  10.246  0.0038 -0.5925 -0.2601
  135SAPE    HY14591   5.768   1.141  10.197  1.5606 -0.1399  0.9766
  135SAPE   O3114592   5.823   1.291  10.056 -0.1200  0.1221  0.2066
  135SAPE   C3114593   5.841   1.204   9.960  0.2185 -0.0233  0.4062
  135SAPE   O3214594   5.810   1.085   9.964  0.1819 -0.5507 -0.4326
  135SAPE   C3214595   5.889   1.279   9.832 -0.6186 -0.6642  0.8573
  135SAPE   H2X14596   5.900   1.385   9.861 -1.2940  0.5621 -2.8508
  135SAPE   H2Y14597   5.807   1.278   9.757  1.7719 -0.2739 -1.9570
  135SAPE   C2314598   6.199   0.818  10.144 -0.1066 -0.0105  0.6297
  135SAPE   H3R14599   6.111   0.750  10.151 -1.3650  1.6501  1.7838
  135SAPE   H3S14600   6.233   0.843  10.247  1.6650  4.6426 -0.8495
  135SAPE   C2414601   6.299   0.740  10.058  0.1042 -0.3659 -0.0707
  135SAPE   H4R14602   6.255   0.720   9.958 -0.6807  0.9959 -0.0266
  135SAPE   H4S14603   6.304   0.641  10.108 -0.0601  0.4051  1.5522
  135SAPE   C2514604   6.441   0.792  10.064  0.1964 -0.1449  0.1589
  135SAPE   H5R14605   6.493   0.747  10.150 -1.2451 -1.9035  0.1614
  135SAPE   C2614606   6.511   0.850   9.967  0.1366 -0.7408  0.5165
  135SAPE   H6R14607   6.619   0.858   9.987  0.5752 -3.2976 -0.4600
  135SAPE   C2714608   6.462   0.896   9.840 -0.8569 -0.4735  0.2266
  135SAPE   H7R14609   6.426   1.001   9.848 -1.5984 -0.5319 -1.7802
  135SAPE   H7S14610   6.383   0.827   9.803 -0.9677  0.6111 -1.6875
  135SAPE   C2814611   6.577   0.900   9.747  0.5946 -0.1496  0.4351
  135SAPE   H8R14612   6.672   0.931   9.793  0.1363  1.6372  0.2241
  135SAPE   C2914613   6.575   0.871   9.614  0.3283  0.7398 -0.0351
  135SAPE   H9R14614   6.667   0.886   9.556 -0.0207  0.9235 -0.5425
  135SAPE  C21014615   6.452   0.839   9.533  0.4867  0.5050 -0.1804
  135SAPE  H10R14616   6.363   0.819   9.596  0.0756  2.4722 -0.0968
  135SAPE  H10S14617   6.455   0.764   9.451 -2.5889 -0.6220  0.5909
  135SAPE  C21114618   6.416   0.960   9.457  0.4218 -0.0872  0.6907
  135SAPE  H11R14619   6.398   1.048   9.521 -1.5592 -0.0077  0.0898
  135SAPE  C21214620   6.416   0.976   9.321 -0.1757  0.4094  0.1792
  135SAPE  H12R14621   6.379   1.074   9.288  0.5520  0.0477 -1.7939
  135SAPE  C21314622   6.431   0.879   9.202 -0.4321 -0.0959  0.6116
  135SAPE  H13R14623   6.341   0.875   9.137  0.9590  3.1675 -1.7903
  135SAPE  H13S14624   6.436   0.779   9.251 -1.0750 -0.2551  0.3665
  135SAPE  C21414625   6.562   0.908   9.125 -0.2084  0.2296 -0.0505
  135SAPE  H14R14626   6.648   0.930   9.190 -1.4979  0.8767  1.5055
  135SAPE  C21514627   6.566   0.933   8.996 -0.1509  0.4124  0.1449
  135SAPE  H15R14628   6.662   0.944   8.942 -0.7967 -1.0603 -1.3733
  135SAPE  C21614629   6.449   0.930   8.900  0.2206  0.7891 -0.0089
  135SAPE  H16R14630   6.479   0.991   8.812 -2.6645  0.6313 -1.2059
  135SAPE  H16S14631   6.358   0.969   8.950  0.2035  1.4369 -0.5317
  135SAPE  C21714632   6.458   0.782   8.851 -0.3668 -0.3705  0.6074
  135SAPE  H17R14633   6.433   0.718   8.939  2.5422  0.0537  1.8321
  135SAPE  H17S14634   6.558   0.753   8.812 -0.2817 -1.1517  1.3577
  135SAPE  C21814635   6.346   0.753   8.750 -0.1419 -0.2568 -0.2863
  135SAPE  H18R14636   6.337   0.839   8.679 -0.4959  1.6437  1.9378
  135SAPE  H18S14637   6.249   0.749   8.804  1.4933 -1.6961  2.7746
  135SAPE  C21914638   6.367   0.627   8.671  0.2732  0.4743 -0.2868
  135SAPE  H19R14639   6.382   0.547   8.746  1.4444  0.8529 -0.0962
  135SAPE  H19S14640   6.455   0.620   8.604  2.2227 -2.0110  2.2897
  135SAPE  C22014641   6.253   0.595   8.571  0.2936  0.6232 -0.1460
  135SAPE  H20R14642   6.218   0.677   8.505 -2.5174 -1.8611 -1.9864
  135SAPE  H20S14643   6.168   0.576   8.640  2.3661 -2.5353  1.7757
  135SAPE  H20T14644   6.276   0.505   8.510 -3.5874 -0.6729  0.0295
  135SAPE   C3314645   6.013   1.211   9.769  0.0725 -0.3075  0.1596
  135SAPE   H3X14646   6.080   1.209   9.857  0.1104  1.7775  0.2331
  135SAPE   H3Y14647   6.063   1.278   9.696 -1.9583 -0.0859 -1.1295
  135SAPE   C3414648   5.979   1.075   9.708  0.0855  0.4166  0.5964
  135SAPE   H4X14649   5.896   1.069   9.634  1.0938  0.5951 -0.5834
  135SAPE   H4Y14650   5.955   1.002   9.788 -1.9152 -0.7515 -0.9860
  135SAPE   C3514651   6.104   1.018   9.637 -0.5815  0.2174  0.2860
  135SAPE   H5X14652   6.188   0.993   9.707  0.8023  0.8298 -1.0968
  135SAPE   H5Y14653   6.129   1.103   9.570  1.6182 -0.0573  0.6827
  135SAPE   C3614654   6.064   0.894   9.557  0.6474 -0.5644 -0.4367
  135SAPE   H6X14655   6.154   0.863   9.500  1.3543 -0.8805  0.8218
  135SAPE   H6Y14656   5.981   0.914   9.485  0.9915 -3.0091 -1.6049
  135SAPE   C3714657   6.023   0.774   9.644 -1.4561 -0.1027  0.6727
  135SAPE   H7X14658   5.938   0.794   9.713  0.0683 -1.1103  2.9564
  135SAPE   H7Y14659   6.100   0.739   9.716 -1.6822 -0.9151  0.5278
  135SAPE   C3814660   5.998   0.648   9.557 -0.0445  0.5814  0.1221
  135SAPE   H8X14661   6.094   0.623   9.507  0.2260 -1.9982  1.7209
  135SAPE   H8Y14662   5.921   0.670   9.481 -0.9297 -1.2326  0.4299
  135SAPE   C3914663   5.957   0.523   9.646 -0.5081 -0.8570  0.1859
  135SAPE   H9X14664   5.873   0.551   9.714 -1.1546 -1.5916 -0.2864
  135SAPE   H9Y14665   6.042   0.479   9.703 -1.3128 -0.1041  2.0340
  135SAPE  C31014666   5.894   0.413   9.551 -0.0880  0.3679 -0.3541
  135SAPE  H10X14667   5.983   0.382   9.492  1.2156  0.7467  1.3267
  135SAPE  H10Y14668   5.810   0.454   9.490 -1.2947  0.6990  1.4623
  135SAPE  C31114669   5.846   0.282   9.621 -0.6300  0.3806 -0.6041
  135SAPE  H11X14670   5.750   0.309   9.671 -0.6373  0.3621 -0.6075
  135SAPE  H11Y14671   5.914   0.247   9.702 -0.5017 -1.6625 -1.5491
  135SAPE  C31214672   5.839   0.160   9.524 -0.7036 -0.4445 -0.0283
  135SAPE  H12X14673   5.785   0.076   9.573  0.8193 -0.6797  1.3286
  135SAPE  H12Y14674   5.939   0.115   9.505 -1.6706 -3.6599  1.7746
  135SAPE  C31314675   5.764   0.173   9.391  0.5909  0.1351  0.4612
  135SAPE  H13X14676   5.832   0.248   9.345 -2.3842  2.9013  0.2384
  135SAPE  H13Y14677   5.669   0.226   9.413  1.1968  1.0820  0.8452
  135SAPE  C31414678   5.745   0.039   9.316 -0.0088 -0.5628 -0.6627
  135SAPE  H14X14679   5.675  -0.022   9.377 -2.6780 -0.5291 -3.4277
  135SAPE  H14Y14680   5.838  -0.020   9.310  0.7287  0.6076 -1.0065
  135SAPE  C31514681   5.677   0.046   9.183  0.2024 -0.4038 -0.5170
  135SAPE  H15X14682   5.576   0.089   9.198  0.5325  0.1221  0.3064
  135SAPE  H15Y14683   5.657  -0.054   9.138  0.7123  0.3314 -2.5077
  135SAPE  C31614684   5.752   0.132   9.075 -0.3421  0.0177 -0.5537
  135SAPE  H16X14685   5.768   0.237   9.109  1.4289 -0.5510  0.4647
  135SAPE  H16Y14686   5.687   0.147   8.986  0.0292 -1.3143 -1.0713
  135SAPE  C31714687   5.887   0.077   9.024  0.4967  0.0816  0.8217
  135SAPE  H17X14688   5.959   0.063   9.108  2.3697 -1.5896 -0.9461
  135SAPE  H17Y14689   5.936   0.150   8.957 -1.1308  2.2573  1.8906
  135SAPE  C31814690   5.885  -0.062   8.958 -0.2111  0.2068  0.4647
  135SAPE  H18X14691   5.885  -0.144   9.033 -2.6907 -1.9272 -1.6502
  135SAPE  H18Y14692   5.973  -0.079   8.892 -0.3825 -1.2913  0.5972
  135SAPE  H18Z14693   5.799  -0.077   8.890 -0.2973  2.7667 -0.0782
  136SAPE     N14694   2.312   1.758  10.599 -0.2059 -0.1631  0.3759
  136SAPE   HN114695   2.254   1.786  10.681  1.3261  2.3313  0.7062
  136SAPE   HN214696   2.245   1.723  10.527  3.1138 -0.1733 -3.0512
  136SAPE   HN314697   2.370   1.675  10.622 -1.2065 -0.4882  1.8530
  136SAPE   C1214698   2.380   1.872  10.531 -0.0945 -0.0662  0.5003
  136SAPE  H12A14699   2.488   1.852  10.545  0.1551  0.2417 -0.8367
  136SAPE  H12B14700   2.351   1.964  10.586 -2.7128 -0.5070 -0.0203
  136SAPE   C1114701   2.330   1.889  10.383 -0.1691 -0.1488 -0.5821
  136SAPE  H11A14702   2.356   1.798  10.326  0.5260  1.2275 -2.5704
  136SAPE  H11B14703   2.378   1.979  10.338  0.2604 -0.0901 -0.0323
  136SAPE     P14704   2.141   1.992  10.246 -0.0430 -0.1293  0.5060
  136SAPE   O1314705   1.991   1.978  10.233 -0.7234  0.3413 -0.0503
  136SAPE   O1414706   2.192   2.136  10.258 -0.2015  0.2553  0.3418
  136SAPE   O1214707   2.190   1.908  10.376 -0.5776  0.3939 -0.4816
  136SAPE   O1114708   2.224   1.925  10.127 -0.0624  0.1406 -0.3625
  136SAPE    C114709   2.206   1.793  10.080  0.3802  0.0473  0.2522
  136SAPE    HA14710   2.241   1.715  10.151  2.6615  0.1899 -0.6275
  136SAPE    HB14711   2.101   1.770  10.051  0.0968  1.5764 -0.0189
  136SAPE    C214712   2.289   1.753   9.942 -0.4034 -0.1126 -0.9543
  136SAPE    HS14713   2.265   1.648   9.914  0.2126 -0.3279 -0.6915
  136SAPE   O2114714   2.427   1.782   9.947 -0.3777  0.3396  0.4980
  136SAPE   C2114715   2.485   1.705  10.035 -0.6722  0.2221  0.4167
  136SAPE   O2214716   2.434   1.609  10.090  0.0274  0.2916 -0.3678
  136SAPE   C2214717   2.633   1.755  10.032 -0.8177  0.4032 -0.8075
  136SAPE   H2R14718   2.619   1.864  10.048 -3.5036  0.2338 -1.4572
  136SAPE   H2S14719   2.686   1.703  10.115 -0.8657  1.7411  0.0811
  136SAPE    C314720   2.239   1.842   9.831 -0.1301  0.6924  0.2659
  136SAPE    HX14721   2.252   1.946   9.868 -1.5600  0.9951 -0.0522
  136SAPE    HY14722   2.129   1.833   9.832  0.0317 -2.1111  1.6809
  136SAPE   O3114723   2.296   1.805   9.701 -0.1333 -0.6172  0.1214
  136SAPE   C3114724   2.223   1.734   9.609  0.2352  0.2946 -0.6793
  136SAPE   O3214725   2.108   1.702   9.627 -0.1682  0.6985 -0.4353
  136SAPE   C3214726   2.303   1.709   9.486 -0.4310  0.6243  0.5364
  136SAPE   H2X14727   2.300   1.601   9.458 -1.5379  0.6295  0.6254
  136SAPE   H2Y14728   2.411   1.736   9.487  0.0552 -0.9884 -1.4992
  136SAPE   C2314729   2.707   1.732   9.902  0.4238 -0.1244 -0.1261
  136SAPE   H3R14730   2.803   1.786   9.915  0.8762 -0.9296 -0.0616
  136SAPE   H3S14731   2.656   1.779   9.815  1.2384 -0.2771 -0.6988
  136SAPE   C2414732   2.741   1.584   9.865  0.0886  0.0913  0.4971
  136SAPE   H4R14733   2.645   1.529   9.871  0.2431 -0.0349  4.3286
  136SAPE   H4S14734   2.815   1.543   9.937  0.7066  1.8265  0.9074
  136SAPE   C2514735   2.806   1.578   9.727  0.0839  0.1268  0.5868
  136SAPE   H5R14736   2.806   1.669   9.665  1.1487 -0.0333  0.3295
  136SAPE   C2614737   2.892   1.475   9.683 -0.4855 -0.4461 -0.1765
  136SAPE   H6R14738   2.944   1.472   9.586  0.9133  1.0811  0.4750
  136SAPE   C2714739   2.914   1.346   9.760  0.5082  0.0171  0.5906
  136SAPE   H7R14740   2.892   1.255   9.700  0.5176  1.4620 -1.7212
  136SAPE   H7S14741   2.845   1.346   9.847  1.3396 -0.4562  1.2601
  136SAPE   C2814742   3.049   1.335   9.819  0.9696 -0.0698 -0.6390
  136SAPE   H8R14743   3.104   1.430   9.822  0.8302  0.0544 -1.5842
  136SAPE   C2914744   3.120   1.226   9.858 -0.2823 -0.0968  0.1911
  136SAPE   H9R14745   3.222   1.248   9.892 -0.3223  1.7784 -0.7699
  136SAPE  C21014746   3.073   1.084   9.859 -0.2266 -0.1804 -0.2942
  136SAPE  H10R14747   3.020   1.065   9.763  1.7134  0.5935 -1.5810
  136SAPE  H10S14748   2.996   1.076   9.938 -0.0806  1.1153  0.0067
  136SAPE  C21114749   3.184   0.982   9.883  0.8985  0.6384 -0.2597
  136SAPE  H11R14750   3.214   0.973   9.988 -0.5947 -0.1916  0.1279
  136SAPE  C21214751   3.230   0.893   9.796 -0.4744  0.6744  0.4597
  136SAPE  H12R14752   3.320   0.845   9.836 -0.7977 -1.1058 -0.8070
  136SAPE  C21314753   3.231   0.896   9.648  0.0717 -0.5825 -0.3558
  136SAPE  H13R14754   3.128   0.865   9.618 -0.9025  0.7333  1.4681
  136SAPE  H13S14755   3.301   0.819   9.609  1.0534  0.3783 -0.5414
  136SAPE  C21414756   3.267   1.023   9.580  0.2053 -0.1471  0.3793
  136SAPE  H14R14757   3.286   1.108   9.647  3.1438 -1.1804  1.0047
  136SAPE  C21514758   3.268   1.041   9.449  0.7826 -0.5322  0.7899
  136SAPE  H15R14759   3.300   1.133   9.397  0.1288 -1.6866 -1.8477
  136SAPE  C21614760   3.244   0.935   9.347  0.0304  0.0665 -0.3746
  136SAPE  H16R14761   3.139   0.915   9.318 -0.1736 -2.3362  1.6785
  136SAPE  H16S14762   3.285   0.842   9.393  1.1085  1.3047  1.2788
  136SAPE  C21714763   3.331   0.958   9.217  0.2770  0.1247 -0.1790
  136SAPE  H17R14764   3.439   0.951   9.243  0.3252 -0.5527 -0.5299
  136SAPE  H17S14765   3.313   1.057   9.171 -0.8815 -0.2903 -0.6613
  136SAPE  C21814766   3.294   0.839   9.128  0.1937  0.6399  0.2650
  136SAPE  H18R14767   3.183   0.841   9.116  0.1804  1.6049  0.4329
  136SAPE  H18S14768   3.330   0.737   9.154  1.4559  0.5566 -1.6242
  136SAPE  C21914769   3.351   0.854   8.983 -0.1498 -0.1133  0.0297
  136SAPE  H19R14770   3.457   0.829   9.005 -0.7418 -1.0140  2.0703
  136SAPE  H19S14771   3.337   0.959   8.949  0.9391  1.1188  3.0760
  136SAPE  C22014772   3.299   0.759   8.876 -0.2652  0.2605 -0.4153
  136SAPE  H20R14773   3.193   0.781   8.851 -0.6944  1.0928  1.8900
  136SAPE  H20S14774   3.303   0.651   8.899  0.2289  0.1967 -0.7928
  136SAPE  H20T14775   3.360   0.775   8.784 -0.0625 -0.5521 -0.4248
  136SAPE   C3314776   2.236   1.777   9.362  0.3766  0.4198 -0.1727
  136SAPE   H3X14777   2.211   1.880   9.395 -2.4542 -0.4561  0.7114
  136SAPE   H3Y14778   2.136   1.730   9.346  0.9082 -1.6219  2.0339
  136SAPE   C3414779   2.322   1.787   9.231  0.1719  0.6541  0.1990
  136SAPE   H4X14780   2.361   1.682   9.228  0.7795  0.8747  0.2896
  136SAPE   H4Y14781   2.411   1.852   9.241  1.3905 -1.0771  1.2625
  136SAPE   C3514782   2.241   1.802   9.104  0.0466 -0.1202 -0.8768
  136SAPE   H5X14783   2.166   1.883   9.114 -1.2117 -1.4164  1.0298
  136SAPE   H5Y14784   2.169   1.718   9.094 -1.5854  1.1935 -0.6572
  136SAPE   C3614785   2.321   1.837   8.978  0.0864 -0.7469  0.7597
  136SAPE   H6X14786   2.406   1.898   9.016 -0.4920 -0.2302  1.2549
  136SAPE   H6Y14787   2.264   1.906   8.912  1.2645  0.8744  1.3652
  136SAPE   C3714788   2.381   1.711   8.909 -0.4202  0.4098  0.5189
  136SAPE   H7X14789   2.300   1.655   8.857 -0.6819  1.4392 -0.2196
  136SAPE   H7Y14790   2.430   1.643   8.982 -0.0366  0.0938 -0.0302
  136SAPE   C3814791   2.484   1.746   8.799  0.2281  0.4336 -0.6906
  136SAPE   H8X14792   2.567   1.675   8.821 -0.4091 -0.0374  0.2445
  136SAPE   H8Y14793   2.525   1.848   8.813 -2.9488  1.8508 -0.8153
  136SAPE   C3914794   2.442   1.729   8.650  0.1072 -0.3990 -0.7279
  136SAPE   H9X14795   2.350   1.791   8.642  0.7373  1.2462  2.8261
  136SAPE   H9Y14796   2.406   1.625   8.640  0.3219 -0.5523  0.0450
  136SAPE  C31014797   2.550   1.754   8.550  0.4325  0.0331  0.5936
  136SAPE  H10X14798   2.626   1.673   8.562  0.5833  0.2523  1.1555
  136SAPE  H10Y14799   2.604   1.850   8.565  1.5353 -0.6884  1.3920
  136SAPE  C31114800   2.506   1.732   8.402 -0.2541  0.5633  0.7539
  136SAPE  H11X14801   2.518   1.826   8.345  2.0472 -0.2038 -0.1387
  136SAPE  H11Y14802   2.399   1.703   8.409 -0.0902 -1.0358 -2.0601
  136SAPE  C31214803   2.585   1.616   8.335 -0.4786  0.3237 -0.4898
  136SAPE  H12X14804   2.559   1.521   8.386 -0.9034  0.8949  0.3783
  136SAPE  H12Y14805   2.694   1.635   8.348 -0.4691  0.0234 -0.1044
  136SAPE  C31314806   2.544   1.609   8.185 -0.5250 -0.0149  0.4930
  136SAPE  H13X14807   2.436   1.635   8.173  0.1899  3.1417 -0.1320
  136SAPE  H13Y14808   2.573   1.512   8.141  1.0361  0.5002  0.3311
  136SAPE  C31414809   2.609   1.713   8.092 -0.0723 -0.1876 -0.0937
  136SAPE  H14X14810   2.717   1.702   8.112 -0.3683  0.2873  2.0845
  136SAPE  H14Y14811   2.575   1.812   8.129 -0.7654 -0.1566 -0.7867
  136SAPE  C31514812   2.557   1.683   7.949  0.5566  0.0652 -0.2328
  136SAPE  H15X14813   2.447   1.671   7.947  0.6620 -3.1638  3.1779
  136SAPE  H15Y14814   2.591   1.578   7.931  3.0968  0.3317  2.3014
  136SAPE  C31614815   2.602   1.779   7.845  0.0129  0.4366  0.2441
  136SAPE  H16X14816   2.543   1.757   7.753  1.0849 -1.0097 -0.1274
  136SAPE  H16Y14817   2.711   1.769   7.825  0.0159 -0.8083  0.7969
  136SAPE  C31714818   2.573   1.931   7.870  0.3963 -0.6987 -0.2955
  136SAPE  H17X14819   2.620   1.967   7.964 -1.3950 -0.8562  0.7056
  136SAPE  H17Y14820   2.463   1.946   7.878  0.2094 -1.2842 -1.4392
  136SAPE  C31814821   2.623   2.000   7.743 -0.6380 -0.2398 -0.3417
  136SAPE  H18X14822   2.592   2.105   7.723  3.1581  1.5211  1.9095
  136SAPE  H18Y14823   2.595   1.937   7.656  0.6787  0.5706 -1.3872
  136SAPE  H18Z14824   2.733   2.006   7.753 -0.6526 -1.1631  0.6114
  137SAPE     N14825   6.309   4.948  10.529  0.4796 -0.1868 -0.1789
  137SAPE   HN114826   6.272   5.035  10.487  1.5057  1.4270  2.0929
  137SAPE   HN214827   6.263   4.867  10.481  0.0961  0.2178 -0.5037
  137SAPE   HN314828   6.280   4.942  10.628 -2.0685  0.4085 -0.8111
  137SAPE   C1214829   6.460   4.934  10.532  0.3322  0.3439 -0.1843
  137SAPE  H12A14830   6.480   4.844  10.593  0.5955 -0.1734 -1.0298
  137SAPE  H12B14831   6.499   5.026  10.581  1.2369 -0.3042  0.3144
  137SAPE   C1114832   6.519   4.901  10.396  0.0691  0.4507 -0.1697
  137SAPE  H11A14833   6.450   4.840  10.334  0.1475  0.1481  0.0365
  137SAPE  H11B14834   6.601   4.828  10.414 -2.4195 -2.4500  0.2198
  137SAPE     P14835   6.671   5.110  10.355  0.2087 -0.1270  0.3242
  137SAPE   O1314836   6.638   5.251  10.319  0.0396 -0.2172 -0.1654
  137SAPE   O1414837   6.730   5.085  10.492  0.5678 -0.1273 -0.0536
  137SAPE   O1214838   6.546   5.017  10.322  0.2345  0.2712  0.2243
  137SAPE   O1114839   6.757   5.064  10.246  0.2278  0.7282 -0.0276
  137SAPE    C114840   6.718   5.048  10.103  0.3429 -0.3402  0.4645
  137SAPE    HA14841   6.617   5.089  10.078  0.7736  0.8542  0.6385
  137SAPE    HB14842   6.797   5.095  10.041 -1.8651 -1.0893 -3.2749
  137SAPE    C214843   6.730   4.912  10.051  0.2409  0.9368 -0.2357
  137SAPE    HS14844   6.654   4.855  10.109 -1.0505  1.0510 -1.7177
  137SAPE   O2114845   6.860   4.874  10.097  0.3036 -0.1781 -0.1971
  137SAPE   C2114846   6.956   4.882  10.009  0.5026  0.0804 -0.1010
  137SAPE   O2214847   6.969   4.967   9.922 -0.3482  0.1443 -0.3849
  137SAPE   C2214848   7.044   4.762  10.027  0.8328  0.5254  0.0059
  137SAPE   H2R14849   7.116   4.764  10.111 -0.1567 -1.0147  0.9286
  137SAPE   H2S14850   6.977   4.680  10.060  1.9826 -0.5346 -0.2541
  137SAPE    C314851   6.695   4.892   9.902  0.2283  0.1493  0.6270
  137SAPE    HX14852   6.718   4.986   9.846  0.5596 -1.2890 -1.7903
  137SAPE    HY14853   6.584   4.888   9.893  0.2684 -0.2037  0.2939
  137SAPE   O3114854   6.757   4.780   9.841  0.0562  0.7273  0.1786
  137SAPE   C3114855   6.733   4.773   9.708 -0.4234 -0.5352 -0.1230
  137SAPE   O3214856   6.667   4.853   9.645 -0.2766  0.1312  0.1916
  137SAPE   C3214857   6.799   4.647   9.651  0.4247 -0.2251  0.0884
  137SAPE   H2X14858   6.723   4.566   9.642  0.1326  0.1538 -1.0758
  137SAPE   H2Y14859   6.881   4.607   9.714  0.2881 -0.3972  0.1600
  137SAPE   C2314860   7.126   4.737   9.897 -0.1301 -1.1373  0.2337
  137SAPE   H3R14861   7.174   4.830   9.861 -1.3597 -0.8216 -0.6581
  137SAPE   H3S14862   7.061   4.720   9.808 -4.3245 -2.1657  3.1988
  137SAPE   C2414863   7.231   4.625   9.926  0.4559  0.0304 -0.2428
  137SAPE   H4R14864   7.170   4.543   9.970 -1.2391  1.2951 -0.1351
  137SAPE   H4S14865   7.299   4.662  10.004  2.1502 -2.6856 -0.2884
  137SAPE   C2514866   7.309   4.581   9.807 -0.4309 -0.7274 -0.2747
  137SAPE   H5R14867   7.389   4.652   9.783 -0.7911 -0.8334 -1.8900
  137SAPE   C2614868   7.307   4.460   9.741  0.1317 -1.0835 -0.3583
  137SAPE   H6R14869   7.374   4.431   9.659 -0.5161 -0.6308 -1.0603
  137SAPE   C2714870   7.192   4.363   9.761  0.4605 -0.7504 -0.8944
  137SAPE   H7R14871   7.104   4.390   9.698  0.4345  1.2163 -0.1184
  137SAPE   H7S14872   7.142   4.378   9.860 -0.9523  1.6660 -1.8634
  137SAPE   C2814873   7.224   4.226   9.735  0.2928  0.2126 -0.2023
  137SAPE   H8R14874   7.264   4.164   9.817 -2.0552  0.1798  0.9948
  137SAPE   C2914875   7.221   4.158   9.615  0.7478  0.1986 -0.2623
  137SAPE   H9R14876   7.273   4.063   9.595 -1.5541 -1.4390  1.0207
  137SAPE  C21014877   7.155   4.201   9.484  0.2803 -0.2570 -0.0543
  137SAPE  H10R14878   7.225   4.173   9.402  2.3342  1.6358  0.9692
  137SAPE  H10S14879   7.148   4.311   9.475 -1.0014 -0.2546  0.7619
  137SAPE  C21114880   7.020   4.137   9.468 -0.9829  1.2751  0.2874
  137SAPE  H11R14881   6.942   4.155   9.543 -3.3309  1.1389 -1.9478
  137SAPE  C21214882   6.982   4.045   9.376  0.3014 -0.1643 -0.1703
  137SAPE  H12R14883   6.877   4.012   9.380  0.6291 -1.1813  0.4011
  137SAPE  C21314884   7.063   3.982   9.261 -0.1394  0.7146 -0.5811
  137SAPE  H13R14885   7.038   3.874   9.250 -0.2151  0.4950  1.4303
  137SAPE  H13S14886   7.171   3.990   9.287 -1.1282  1.8838  4.0492
  137SAPE  C21414887   7.034   4.068   9.141 -0.5252 -0.1225 -0.5672
  137SAPE  H14R14888   7.067   4.170   9.166  0.2621 -0.5891  0.3647
  137SAPE  C21514889   7.016   4.030   9.016  1.0728  0.7040 -0.0140
  137SAPE  H15R14890   6.983   4.108   8.945 -1.8492 -0.1638  0.2508
  137SAPE  C21614891   6.983   3.887   8.983 -0.8901  0.3296  0.3671
  137SAPE  H16R14892   7.048   3.813   9.034 -0.7857  1.2679  1.6517
  137SAPE  H16S14893   7.011   3.875   8.876 -1.3185  1.3963  0.1186
  137SAPE  C21714894   6.837   3.845   9.013  0.6516  0.3939  0.8335
  137SAPE  H17R14895   6.805   3.872   9.116  1.7811 -1.0302  1.6068
  137SAPE  H17S14896   6.835   3.735   8.998 -0.1966  0.2739  1.7180
  137SAPE  C21814897   6.733   3.907   8.910  0.5315 -0.4368 -0.0309
  137SAPE  H18R14898   6.750   3.867   8.808 -0.1291  1.1059 -0.7831
  137SAPE  H18S14899   6.750   4.017   8.907 -0.4053 -0.1565  2.3520
  137SAPE  C21914900   6.593   3.887   8.966 -0.0787 -0.1301  0.5229
  137SAPE  H19R14901   6.595   3.919   9.072  3.6189  0.8531  0.3153
  137SAPE  H19S14902   6.580   3.777   8.963 -0.8899 -0.0732 -3.2568
  137SAPE  C22014903   6.483   3.952   8.886  0.3161  0.6582  0.3184
  137SAPE  H20R14904   6.473   4.055   8.927  0.8895  0.7428  0.2505
  137SAPE  H20S14905   6.389   3.895   8.901  1.2634 -1.4285 -1.1821
  137SAPE  H20T14906   6.510   3.963   8.779  2.7988  2.1741  1.0124
  137SAPE   C3314907   6.859   4.671   9.512  0.3878 -0.0497 -0.0824
  137SAPE   H3X14908   6.913   4.767   9.504  3.1493 -1.6551 -2.4479
  137SAPE   H3Y14909   6.785   4.653   9.431 -0.3467  1.0623  0.3185
  137SAPE   C3414910   6.977   4.568   9.490  0.6902 -0.6938  0.0166
  137SAPE   H4X14911   6.946   4.465   9.463  0.4266 -0.0987 -2.1281
  137SAPE   H4Y14912   7.046   4.562   9.577 -0.0169 -0.9021  0.5652
  137SAPE   C3514913   7.072   4.606   9.368  0.8701  0.0283 -0.4802
  137SAPE   H5X14914   7.162   4.541   9.373  1.1673  0.5335  1.3769
  137SAPE   H5Y14915   7.083   4.716   9.379  3.2222 -0.1891 -0.0412
  137SAPE   C3614916   7.000   4.578   9.235 -0.4199  0.2285  0.3039
  137SAPE   H6X14917   6.892   4.604   9.232 -0.3115  0.6091 -2.0207
  137SAPE   H6Y14918   7.005   4.468   9.220  0.3467  0.0112  1.8921
  137SAPE   C3714919   7.069   4.637   9.115  0.0012 -0.1872  0.1327
  137SAPE   H7X14920   7.178   4.617   9.124 -0.0626 -0.6180 -0.0139
  137SAPE   H7Y14921   7.072   4.748   9.113  0.5278 -0.1351  1.9670
  137SAPE   C3814922   7.006   4.592   8.987  0.1183 -0.4539 -0.3467
  137SAPE   H8X14923   6.895   4.603   8.994  0.2093 -0.4632  1.4518
  137SAPE   H8Y14924   7.023   4.482   8.985 -1.8942 -0.8117 -0.3205
  137SAPE   C3914925   7.077   4.656   8.867 -0.5119 -0.5875 -0.1946
  137SAPE   H9X14926   7.181   4.683   8.894 -0.5857 -1.2347  0.8044
  137SAPE   H9Y14927   7.026   4.747   8.827  1.2055  0.5858  0.1784
  137SAPE  C31014928   7.088   4.563   8.743  0.3136  0.3295  0.9726
  137SAPE  H10X14929   6.989   4.539   8.699  0.7601 -1.9354  1.0791
  137SAPE  H10Y14930   7.129   4.471   8.791 -1.7666 -1.5620 -0.6197
  137SAPE  C31114931   7.182   4.607   8.626  0.2085 -0.2726 -0.5315
  137SAPE  H11X14932   7.285   4.620   8.667 -0.4435  0.5799  0.9171
  137SAPE  H11Y14933   7.146   4.704   8.588  0.5324  0.2558  0.4579
  137SAPE  C31214934   7.181   4.506   8.515 -1.4228 -0.1594 -0.3336
  137SAPE  H12X14935   7.077   4.482   8.482 -0.9710 -1.5815 -0.7806
  137SAPE  H12Y14936   7.232   4.415   8.554  0.0363  1.7925  2.7501
  137SAPE  C31314937   7.258   4.559   8.388  0.1325 -0.4065  0.2030
  137SAPE  H13X14938   7.366   4.578   8.401 -0.0739  0.5331  0.6032
  137SAPE  H13Y14939   7.210   4.655   8.358  2.0933  0.4815 -0.2868
  137SAPE  C31414940   7.242   4.457   8.273  0.1640 -0.4676  0.2007
  137SAPE  H14X14941   7.134   4.462   8.248  0.2564  0.7953 -0.0246
  137SAPE  H14Y14942   7.264   4.357   8.316 -1.8078 -1.2822 -0.5653
  137SAPE  C31514943   7.338   4.495   8.158  0.1264  0.3945  0.6239
  137SAPE  H15X14944   7.442   4.499   8.196  1.3538  1.9400 -2.5377
  137SAPE  H15Y14945   7.313   4.596   8.120 -3.1076 -1.2160 -2.0139
  137SAPE  C31614946   7.330   4.399   8.042  1.6164 -0.1958  0.1866
  137SAPE  H16X14947   7.224   4.401   8.008  1.8332 -1.6866 -0.6513
  137SAPE  H16Y14948   7.355   4.296   8.074 -0.6527 -0.8220  0.1551
  137SAPE  C31714949   7.418   4.456   7.935  0.4635  0.0931 -0.9338
  137SAPE  H17X14950   7.471   4.382   7.871  2.5673 -1.8458  2.7199
  137SAPE  H17Y14951   7.497   4.529   7.965  0.1470 -0.0471  0.2721
  137SAPE  C31814952   7.337   4.538   7.828  0.1139  0.1635  0.9593
  137SAPE  H18X14953   7.386   4.568   7.734  0.2465  2.4987  1.7149
  137SAPE  H18Y14954   7.320   4.635   7.880  0.9283  0.2245  1.1142
  137SAPE  H18Z14955   7.245   4.482   7.801  0.9859 -0.6148 -0.5084
  138SAPE     N14956   2.025   4.491  10.235 -0.1245 -0.2012  0.1284
  138SAPE   HN114957   2.036   4.391  10.207 -1.0807  0.0486 -1.2524
  138SAPE   HN214958   2.115   4.506  10.284 -0.7949 -0.7282  1.5902
  138SAPE   HN314959   1.952   4.501  10.309 -1.5607  0.8018 -1.3328
  138SAPE   C1214960   2.000   4.587  10.122  0.1578 -0.4374 -0.2213
  138SAPE  H12A14961   2.082   4.572  10.048 -0.4317  1.5190 -1.3291
  138SAPE  H12B14962   2.011   4.692  10.155 -0.9916 -0.8598  1.6253
  138SAPE   C1114963   1.862   4.552  10.058  0.6131  0.0146 -0.3945
  138SAPE  H11A14964   1.854   4.444  10.033 -0.7852  0.3712 -1.6373
  138SAPE  H11B14965   1.856   4.611   9.964  1.2423  1.5336  0.4632
  138SAPE     P14966   1.647   4.701  10.122  0.3575 -0.1985 -0.2824
  138SAPE   O1314967   1.556   4.701  10.239  0.4396  0.2345  0.5470
  138SAPE   O1414968   1.698   4.829  10.073  0.3505  0.4737  0.3371
  138SAPE   O1214969   1.767   4.595  10.147  0.4893 -0.1801  0.1172
  138SAPE   O1114970   1.572   4.628   9.995  0.5160  0.0168 -0.1483
  138SAPE    C114971   1.538   4.490  10.020  0.3549 -0.0552 -0.3745
  138SAPE    HA14972   1.622   4.434  10.066  1.1079  1.0033 -0.4100
  138SAPE    HB14973   1.447   4.479  10.082  1.6552 -2.4476  1.2493
  138SAPE    C214974   1.524   4.409   9.885 -0.3452 -0.0846  0.2550
  138SAPE    HS14975   1.488   4.307   9.908 -0.5246 -0.2070 -0.5698
  138SAPE   O2114976   1.656   4.400   9.812  0.7353 -0.2549  0.1057
  138SAPE   C2114977   1.694   4.278   9.780 -0.4463 -0.4768 -0.3242
  138SAPE   O2214978   1.627   4.176   9.789  0.3548 -0.4168  0.1406
  138SAPE   C2214979   1.840   4.278   9.733 -0.0941 -1.5495 -0.3461
  138SAPE   H2R14980   1.906   4.297   9.821 -0.7300  0.3743 -0.2452
  138SAPE   H2S14981   1.868   4.186   9.678  0.0430 -0.4453 -2.1960
  138SAPE    C314982   1.420   4.474   9.787  0.0444  0.5474 -0.1227
  138SAPE    HX14983   1.447   4.581   9.777  1.1959  0.3760  1.0176
  138SAPE    HY14984   1.320   4.478   9.836 -0.7834 -2.1597 -1.3718
  138SAPE   O3114985   1.424   4.411   9.655  0.1117 -0.0108  0.4996
  138SAPE   C3114986   1.331   4.320   9.637  0.1157  0.0918  0.4596
  138SAPE   O3214987   1.231   4.299   9.705 -0.1698  0.2370  0.1552
  138SAPE   C3214988   1.353   4.255   9.500 -0.3404 -0.3038  0.7598
  138SAPE   H2X14989   1.421   4.167   9.512 -0.2145 -0.1761  0.9976
  138SAPE   H2Y14990   1.393   4.340   9.441 -0.2567 -1.4016 -0.8323
  138SAPE   C2314991   1.879   4.380   9.626 -0.7918 -0.6599  0.0080
  138SAPE   H3R14992   1.882   4.485   9.662 -0.1531 -1.0504  1.1356
  138SAPE   H3S14993   1.803   4.362   9.547 -1.6336 -2.1095  1.1147
  138SAPE   C2414994   2.022   4.357   9.562  0.0621  0.7965 -0.5140
  138SAPE   H4R14995   2.018   4.249   9.536 -1.1197 -0.2093  3.2021
  138SAPE   H4S14996   2.092   4.367   9.647 -0.6312 -1.3757  0.4064
  138SAPE   C2514997   2.036   4.446   9.438 -0.0468  0.4495 -0.3645
  138SAPE   H5R14998   1.994   4.407   9.344 -0.3900  0.8623 -0.3848
  138SAPE   C2614999   2.100   4.567   9.443 -0.5275 -0.7723 -0.0872
  138SAPE   H6R15000   2.103   4.616   9.345  0.8593  0.3764  0.5015
  138SAPE   C2715001   2.172   4.644   9.554 -0.2606 -0.1876  0.3660
  138SAPE   H7R15002   2.251   4.713   9.516 -0.3212  0.8334  1.9676
  138SAPE   H7S15003   2.231   4.587   9.629 -0.6822  1.3531  1.9396
  138SAPE   C2815004   2.082   4.724   9.643 -0.4140 -0.1203  0.3583
  138SAPE   H8R15005   2.008   4.670   9.704 -0.6436 -1.5976 -1.1327
  138SAPE   C2915006   2.098   4.852   9.675 -0.6812 -1.2843  0.4701
  138SAPE   H9R15007   2.034   4.893   9.754  1.2531 -0.2930  1.6020
  138SAPE  C21015008   2.204   4.942   9.616 -0.0219 -0.5265 -0.1261
  138SAPE  H10R15009   2.300   4.896   9.648 -0.4629 -0.9649  0.5784
  138SAPE  H10S15010   2.191   5.037   9.674 -1.8074 -0.1885 -1.0253
  138SAPE  C21115011   2.204   4.982   9.476  0.4561  1.0892 -0.1902
  138SAPE  H11R15012   2.115   4.947   9.422 -0.0836 -0.0346  1.3606
  138SAPE  C21215013   2.285   5.073   9.414 -0.7165  0.2081 -0.0377
  138SAPE  H12R15014   2.283   5.083   9.305  1.8166  2.0650 -0.0226
  138SAPE  C21315015   2.394   5.152   9.474 -0.6277  0.4628  0.0612
  138SAPE  H13R15016   2.487   5.149   9.413 -1.0234 -3.2349 -0.5741
  138SAPE  H13S15017   2.436   5.097   9.561  2.3912 -0.0962 -1.5988
  138SAPE  C21415018   2.354   5.291   9.535  1.2213 -0.3435 -0.2449
  138SAPE  H14R15019   2.283   5.270   9.616 -0.2676  1.9193 -0.8637
  138SAPE  C21515020   2.402   5.416   9.504 -0.2512 -0.1456  0.0161
  138SAPE  H15R15021   2.364   5.507   9.553 -0.2725  0.0930 -0.4366
  138SAPE  C21615022   2.497   5.433   9.388 -0.4247  0.2150 -0.3537
  138SAPE  H16R15023   2.491   5.351   9.313 -3.2479 -0.2411  0.2406
  138SAPE  H16S15024   2.598   5.430   9.435 -0.1915 -0.0456 -0.8582
  138SAPE  C21715025   2.490   5.566   9.312 -0.3837 -0.1713  0.4148
  138SAPE  H17R15026   2.468   5.649   9.383 -1.6232 -0.4125  0.3517
  138SAPE  H17S15027   2.406   5.573   9.239 -0.5182  6.1807  0.6414
  138SAPE  C21815028   2.624   5.602   9.239  0.4211 -0.5425  0.2501
  138SAPE  H18R15029   2.709   5.613   9.309 -0.0830 -2.8802  1.3092
  138SAPE  H18S15030   2.604   5.694   9.180  1.6928 -2.0362 -2.7318
  138SAPE  C21915031   2.663   5.497   9.140  0.3812  1.1382  0.3518
  138SAPE  H19R15032   2.583   5.453   9.076  0.8971  0.4008  0.1961
  138SAPE  H19S15033   2.707   5.419   9.206 -0.3073  0.5070  0.0899
  138SAPE  C22015034   2.771   5.543   9.044  0.7197 -0.4321 -0.1730
  138SAPE  H20R15035   2.872   5.543   9.089  1.8516  2.1487 -2.4720
  138SAPE  H20S15036   2.742   5.635   8.989  0.1034  0.1195  1.0184
  138SAPE  H20T15037   2.775   5.472   8.959 -2.2706  0.6677 -1.3979
  138SAPE   C3315038   1.226   4.205   9.433  0.2180  0.4065 -0.2252
  138SAPE   H3X15039   1.145   4.282   9.433 -1.3275 -1.0267  2.6651
  138SAPE   H3Y15040   1.186   4.124   9.498 -0.1660  0.6493 -0.1513
  138SAPE   C3415041   1.242   4.151   9.283  0.4726 -0.6690 -1.0214
  138SAPE   H4X15042   1.151   4.096   9.253 -0.0777 -1.2168  1.4576
  138SAPE   H4Y15043   1.319   4.072   9.276 -0.7439 -1.9956  0.0852
  138SAPE   C3515044   1.270   4.265   9.186  0.9462  0.3365 -0.4084
  138SAPE   H5X15045   1.379   4.271   9.166  0.9502 -1.2577 -1.0171
  138SAPE   H5Y15046   1.244   4.360   9.237 -2.1512 -1.6473  2.1138
  138SAPE   C3615047   1.217   4.249   9.043  0.8257  0.2488  0.8608
  138SAPE   H6X15048   1.264   4.160   8.995  1.3626  0.4313  1.0440
  138SAPE   H6Y15049   1.262   4.332   8.984 -1.7383  0.3736 -1.1179
  138SAPE   C3715050   1.063   4.255   9.035  0.9805  0.0488  0.3404
  138SAPE   H7X15051   1.043   4.349   9.090 -1.6752 -1.4866  2.2020
  138SAPE   H7Y15052   1.009   4.168   9.078  2.1226 -0.6118  0.4741
  138SAPE   C3815053   1.000   4.277   8.889 -0.9718 -0.5351 -0.0170
  138SAPE   H8X15054   1.068   4.352   8.842 -0.6127 -1.8482 -1.6690
  138SAPE   H8Y15055   0.900   4.323   8.905 -1.3747 -1.6266  0.6563
  138SAPE   C3915056   0.989   4.158   8.801  0.2828  0.1456 -0.3976
  138SAPE   H9X15057   0.905   4.102   8.848 -0.4876  2.7984  1.6511
  138SAPE   H9Y15058   1.081   4.097   8.813  0.4781  0.4221 -0.4586
  138SAPE  C31015059   0.951   4.202   8.662 -0.4509  0.7094 -0.2260
  138SAPE  H10X15060   1.001   4.296   8.628  1.3428  0.1641  0.7427
  138SAPE  H10Y15061   0.845   4.232   8.675 -0.8462 -0.1463 -1.3850
  138SAPE  C31115062   0.947   4.095   8.554 -0.0575  0.7760 -0.8190
  138SAPE  H11X15063   0.879   4.142   8.480 -1.1849  0.8653  0.2412
  138SAPE  H11Y15064   0.894   4.005   8.590 -0.1751  0.7047 -1.1656
  138SAPE  C31215065   1.084   4.049   8.497  0.3630  0.5679 -0.1028
  138SAPE  H12X15066   1.130   3.991   8.580 -0.4446 -0.4074 -0.3196
  138SAPE  H12Y15067   1.139   4.143   8.475 -1.4539  1.4035 -1.3161
  138SAPE  C31315068   1.062   3.965   8.366  0.0319  0.2904 -0.0910
  138SAPE  H13X15069   1.161   3.925   8.332  1.0199  2.2276  0.3463
  138SAPE  H13Y15070   1.016   4.026   8.285 -1.8534 -0.7724  0.1288
  138SAPE  C31415071   0.955   3.849   8.373  0.1869  0.5437 -0.0519
  138SAPE  H14X15072   0.854   3.894   8.380  0.2658  1.1893 -2.4833
  138SAPE  H14Y15073   0.984   3.795   8.466 -0.4241  1.0470  0.4399
  138SAPE  C31515074   0.969   3.760   8.248 -0.2085 -0.2506  0.5633
  138SAPE  H15X15075   0.960   3.823   8.156  1.3189  0.8138  1.0862
  138SAPE  H15Y15076   0.884   3.690   8.247 -0.5080  0.0983 -0.4331
  138SAPE  C31615077   1.087   3.668   8.238  0.1826 -0.7131 -0.1895
  138SAPE  H16X15078   1.094   3.603   8.328  1.1026  1.4737  1.3977
  138SAPE  H16Y15079   1.174   3.736   8.227 -1.8227  1.8542 -0.9868
  138SAPE  C31715080   1.081   3.571   8.119 -0.7451 -0.5465  0.8417
  138SAPE  H17X15081   1.080   3.621   8.020 -0.0335 -1.3598  0.4058
  138SAPE  H17Y15082   0.991   3.509   8.137 -1.1895  0.5799  2.8091
  138SAPE  C31815083   1.202   3.479   8.109  0.1888 -0.6157  0.2159
  138SAPE  H18X15084   1.224   3.430   8.206  0.2353 -2.0721 -0.5018
  138SAPE  H18Y15085   1.292   3.532   8.071 -0.0523 -0.7912 -0.6284
  138SAPE  H18Z15086   1.174   3.397   8.039  1.2458 -0.5652 -0.2791
  139SAPE     N15087   3.598   5.116  10.739 -0.1215  0.0423  0.3568
  139SAPE   HN115088   3.565   5.132  10.836  1.4609 -1.0057  1.0985
  139SAPE   HN215089   3.506   5.119  10.690 -0.1623  3.5399  0.4616
  139SAPE   HN315090   3.626   5.017  10.721 -0.0623  0.1604 -0.2387
  139SAPE   C1215091   3.702   5.206  10.686 -0.8787 -0.6478 -0.1238
  139SAPE  H12A15092   3.797   5.204  10.743  0.1004 -0.4824 -1.6960
  139SAPE  H12B15093   3.669   5.312  10.677 -1.8145 -0.9166  0.0508
  139SAPE   C1115094   3.746   5.159  10.546  0.1325 -0.4718 -0.4553
  139SAPE  H11A15095   3.812   5.227  10.489  0.0645 -1.0207 -1.2126
  139SAPE  H11B15096   3.654   5.152  10.484 -0.4887 -1.9082  0.5676
  139SAPE     P15097   3.903   4.977  10.423  0.7313 -0.3043 -0.3725
  139SAPE   O1315098   4.036   5.029  10.445 -0.2548  0.2915  0.5713
  139SAPE   O1415099   3.874   4.832  10.418 -0.2947 -0.4229 -0.4000
  139SAPE   O1215100   3.810   5.029  10.542 -0.5833  0.2147  0.5253
  139SAPE   O1115101   3.865   5.044  10.298  0.0689 -0.5453 -0.0984
  139SAPE    C115102   3.743   5.021  10.231  0.6053  0.0526  0.3101
  139SAPE    HA15103   3.672   4.941  10.263  0.6278  0.1493  0.6023
  139SAPE    HB15104   3.683   5.115  10.230 -1.7569 -1.3547  1.1038
  139SAPE    C215105   3.774   5.005  10.079 -0.5316  0.5839  0.3571
  139SAPE    HS15106   3.818   4.902  10.075 -2.2614 -0.1958 -4.0962
  139SAPE   O2115107   3.861   5.111  10.032 -0.2695  0.1648  0.2558
  139SAPE   C2115108   3.964   5.068   9.959 -0.6660  0.2459  0.2882
  139SAPE   O2215109   3.992   4.955   9.931 -0.3193 -0.5743 -0.1340
  139SAPE   C2215110   4.049   5.189   9.919  0.2147  0.0931  0.2609
  139SAPE   H2R15111   3.986   5.256   9.857  2.0828  3.8589  2.0580
  139SAPE   H2S15112   4.078   5.256  10.003  0.6933  0.9496 -0.5743
  139SAPE    C315113   3.649   4.995   9.990 -0.4711  0.2980  0.4846
  139SAPE    HX15114   3.602   5.096   9.988 -0.8059  0.1346 -1.0633
  139SAPE    HY15115   3.567   4.935  10.035  1.5250 -3.4898 -0.5446
  139SAPE   O3115116   3.685   4.952   9.852 -0.0203 -0.0365  0.2195
  139SAPE   C3115117   3.647   4.826   9.824 -0.0671 -0.5286  0.6590
  139SAPE   O3215118   3.592   4.748   9.900  0.6207  0.2816  0.5302
  139SAPE   C3215119   3.675   4.793   9.679 -0.0296  0.5952 -0.2221
  139SAPE   H2X15120   3.782   4.797   9.652 -0.8452  1.5510 -3.7243
  139SAPE   H2Y15121   3.625   4.875   9.622  2.8072  1.8925 -0.9906
  139SAPE   C2315122   4.179   5.144   9.844  0.1925  0.0906 -0.7334
  139SAPE   H3R15123   4.144   5.090   9.754 -2.1132  0.8264 -0.3630
  139SAPE   H3S15124   4.230   5.082   9.920 -0.7127  1.8223  1.4058
  139SAPE   C2415125   4.270   5.267   9.809  0.4292 -0.1444  0.4293
  139SAPE   H4R15126   4.351   5.226   9.745  1.3731  0.5175  1.1771
  139SAPE   H4S15127   4.299   5.313   9.905  0.1328  0.5655  0.1886
  139SAPE   C2515128   4.189   5.368   9.732  0.7669  0.4332  0.1915
  139SAPE   H5R15129   4.138   5.449   9.784 -0.4835 -0.8188  0.9872
  139SAPE   C2615130   4.160   5.371   9.599  0.4151  0.7712  0.5984
  139SAPE   H6R15131   4.112   5.458   9.551 -1.2899 -1.4231 -2.0302
  139SAPE   C2715132   4.211   5.271   9.492  1.1869 -0.0364 -0.2783
  139SAPE   H7R15133   4.307   5.224   9.521  1.9209  0.8569 -1.2019
  139SAPE   H7S15134   4.243   5.331   9.404 -2.2115 -0.5785 -2.0563
  139SAPE   C2815135   4.108   5.155   9.472 -0.0494  0.1772 -0.1763
  139SAPE   H8R15136   4.075   5.100   9.561  0.3768 -1.1699 -0.8342
  139SAPE   C2915137   4.056   5.111   9.359 -0.6986  0.0096  0.6486
  139SAPE   H9R15138   3.998   5.017   9.360 -2.6988  1.1774  1.5804
  139SAPE  C21015139   4.073   5.168   9.224  0.3055 -0.1670 -0.0511
  139SAPE  H10R15140   4.052   5.094   9.144 -0.1691 -0.6418  0.4981
  139SAPE  H10S15141   4.183   5.174   9.212  0.4702 -1.2968  0.7533
  139SAPE  C21115142   3.999   5.296   9.207 -0.4803  1.3182 -0.3000
  139SAPE  H11R15143   3.978   5.346   9.303 -0.5694 -0.5149  0.6980
  139SAPE  C21215144   3.953   5.356   9.095 -0.2660 -0.2122  0.5961
  139SAPE  H12R15145   3.894   5.448   9.110  0.3173  0.2850 -0.1301
  139SAPE  C21315146   3.960   5.310   8.954 -0.2901  0.9904  0.0674
  139SAPE  H13R15147   4.018   5.216   8.946  0.3602  1.3994 -0.1809
  139SAPE  H13S15148   4.027   5.380   8.899  3.6739 -3.1151 -0.8333
  139SAPE  C21415149   3.819   5.302   8.891  0.4742 -0.1536 -0.4192
  139SAPE  H14R15150   3.752   5.386   8.915  0.2394  0.0907 -1.8914
  139SAPE  C21515151   3.776   5.209   8.804 -0.3316 -0.2152  0.9814
  139SAPE  H15R15152   3.669   5.212   8.782  0.1490  0.2308 -1.5925
  139SAPE  C21615153   3.859   5.087   8.770 -0.6074 -0.4753  0.3497
  139SAPE  H16R15154   3.968   5.107   8.758 -0.7646  1.8843  2.1891
  139SAPE  H16S15155   3.821   5.044   8.675 -1.9494  2.0718 -0.3329
  139SAPE  C21715156   3.848   4.966   8.879 -0.2626  0.6757  0.5108
  139SAPE  H17R15157   3.743   4.931   8.882  0.9144 -3.9053 -2.4380
  139SAPE  H17S15158   3.880   4.998   8.981 -0.4201  1.5867  0.2906
  139SAPE  C21815159   3.933   4.858   8.816  0.0755  0.0110 -1.1200
  139SAPE  H18R15160   4.037   4.894   8.801  0.9427 -1.2002  1.4701
  139SAPE  H18S15161   3.904   4.824   8.714  1.7121 -3.3068 -0.6229
  139SAPE  C21915162   3.930   4.722   8.895  0.6215  0.3735 -0.1092
  139SAPE  H19R15163   3.840   4.670   8.856 -0.8675  2.6563  0.1326
  139SAPE  H19S15164   3.934   4.734   9.006  1.2450  1.1132 -0.2034
  139SAPE  C22015165   4.054   4.638   8.870  0.5152  0.3597  0.9256
  139SAPE  H20R15166   4.044   4.534   8.906 -0.6595  0.2067  0.2053
  139SAPE  H20S15167   4.147   4.673   8.921  0.9913 -1.8802  1.6915
  139SAPE  H20T15168   4.064   4.646   8.759 -2.0507  0.8589  0.6644
  139SAPE   C3315169   3.625   4.648   9.640  0.6473 -0.2369 -0.2092
  139SAPE   H3X15170   3.564   4.599   9.719 -1.1609  0.9428 -0.8318
  139SAPE   H3Y15171   3.713   4.584   9.619  0.3070 -1.4673  1.7954
  139SAPE   C3415172   3.552   4.654   9.503  0.1691 -0.0698 -0.1497
  139SAPE   H4X15173   3.491   4.746   9.496 -0.1043 -0.0340  2.0701
  139SAPE   H4Y15174   3.475   4.573   9.500 -0.4897  0.5649 -1.3446
  139SAPE   C3515175   3.642   4.646   9.380 -0.2505  0.1290  0.6710
  139SAPE   H5X15176   3.709   4.558   9.390 -1.4413 -0.9819 -0.7252
  139SAPE   H5Y15177   3.705   4.738   9.374 -0.0297  0.1089  2.3654
  139SAPE   C3615178   3.574   4.620   9.244 -0.6311 -0.1728 -0.1809
  139SAPE   H6X15179   3.648   4.626   9.162 -0.0695  0.0383  0.3327
  139SAPE   H6Y15180   3.499   4.700   9.226  0.8599  1.3128 -0.0028
  139SAPE   C3715181   3.529   4.476   9.237  0.3741  0.5514  0.3491
  139SAPE   H7X15182   3.459   4.459   9.322 -2.1774  0.1350 -1.6774
  139SAPE   H7Y15183   3.614   4.406   9.246  0.7858  1.1962  1.5930
  139SAPE   C3815184   3.451   4.468   9.113  0.5021 -0.7121  0.3441
  139SAPE   H8X15185   3.513   4.501   9.027 -0.8071 -1.8586 -1.1056
  139SAPE   H8Y15186   3.368   4.539   9.136  0.5103  0.5180 -2.9923
  139SAPE   C3915187   3.398   4.329   9.072 -0.1922 -0.5342  0.1106
  139SAPE   H9X15188   3.360   4.272   9.159  0.4925 -0.3582  0.5265
  139SAPE   H9Y15189   3.492   4.273   9.056  0.4793  0.9858 -1.6281
  139SAPE  C31015190   3.305   4.328   8.955  0.3761 -0.4867  0.0772
  139SAPE  H10X15191   3.358   4.368   8.866 -0.3604 -1.0194 -0.6189
  139SAPE  H10Y15192   3.222   4.398   8.977  0.4184 -0.3620 -0.1581
  139SAPE  C31115193   3.248   4.185   8.931  0.2080  0.2635  0.2889
  139SAPE  H11X15194   3.181   4.145   9.010  1.0306 -1.3973  0.1944
  139SAPE  H11Y15195   3.326   4.106   8.930 -1.3774 -1.4289  1.9841
  139SAPE  C31215196   3.174   4.175   8.801  0.0284 -0.1984  0.4446
  139SAPE  H12X15197   3.235   4.203   8.712 -0.2588 -1.2491 -0.1007
  139SAPE  H12Y15198   3.079   4.233   8.807  0.6434  1.0650 -1.1505
  139SAPE  C31315199   3.140   4.019   8.773  0.5962  0.3606  0.5288
  139SAPE  H13X15200   3.093   3.973   8.863 -2.1729  1.0182 -0.4952
  139SAPE  H13Y15201   3.238   3.971   8.752 -0.0128  0.0072 -1.6607
  139SAPE  C31415202   3.045   4.007   8.660  0.5432  0.0984 -0.2146
  139SAPE  H14X15203   3.073   4.058   8.565 -1.6942  2.2815  0.1689
  139SAPE  H14Y15204   2.947   4.056   8.679  0.0848 -0.8323 -0.1419
  139SAPE  C31515205   3.016   3.858   8.620  0.1229 -0.9025  0.2391
  139SAPE  H15X15206   2.988   3.798   8.709  0.4622  0.3977  1.2494
  139SAPE  H15Y15207   3.110   3.808   8.587 -0.2830 -1.3206 -0.3237
  139SAPE  C31615208   2.907   3.849   8.506  0.0581 -0.2607 -0.1341
  139SAPE  H16X15209   2.822   3.917   8.523 -0.5904 -1.5223  2.0251
  139SAPE  H16Y15210   2.954   3.889   8.413  0.7769  1.6614  1.0126
  139SAPE  C31715211   2.847   3.710   8.495 -0.5020 -0.5230  0.3599
  139SAPE  H17X15212   2.795   3.673   8.586  0.9878 -3.9437 -0.0167
  139SAPE  H17Y15213   2.937   3.649   8.475 -1.0254 -1.0732 -0.3601
  139SAPE  C31815214   2.785   3.696   8.361 -0.4729 -0.5675  0.1862
  139SAPE  H18X15215   2.692   3.756   8.348 -1.2646 -2.1405 -2.0688
  139SAPE  H18Y15216   2.765   3.592   8.329  0.4769 -1.5092  2.4542
  139SAPE  H18Z15217   2.861   3.733   8.288 -2.0393 -1.2624 -1.9025
  140SAPE     N15218   6.312   1.730  10.370 -0.3067 -0.0565  0.3369
  140SAPE   HN115219   6.397   1.782  10.401  2.0539 -1.4832 -3.0988
  140SAPE   HN215220   6.225   1.781  10.394  1.4637  3.1744  0.4407
  140SAPE   HN315221   6.301   1.645  10.429  0.3217  0.9676  2.0145
  140SAPE   C1215222   6.338   1.696  10.222  0.7026  0.1052  0.0818
  140SAPE  H12A15223   6.361   1.794  10.175 -3.4693  1.1049 -0.2673
  140SAPE  H12B15224   6.239   1.668  10.182  1.3957 -1.8715 -0.3281
  140SAPE   C1115225   6.440   1.582  10.200 -0.4563  0.1028 -0.3422
  140SAPE  H11A15226   6.443   1.548  10.095  1.4178 -0.5241 -0.1243
  140SAPE  H11B15227   6.405   1.496  10.260  0.2922 -1.2038 -1.7303
  140SAPE     P15228   6.673   1.499  10.278  0.1402 -0.0236 -0.0165
  140SAPE   O1315229   6.797   1.554  10.314  0.5273 -0.2085 -0.3375
  140SAPE   O1415230   6.622   1.405  10.371  0.7327 -0.0715  0.1650
  140SAPE   O1215231   6.574   1.622  10.244  0.2727 -0.2728 -0.6728
  140SAPE   O1115232   6.685   1.421  10.141  0.2364 -0.7233  0.2638
  140SAPE    C115233   6.756   1.490  10.034  0.8212  0.0130 -0.3106
  140SAPE    HA15234   6.687   1.562   9.985  1.4166 -0.2670 -1.5923
  140SAPE    HB15235   6.849   1.534  10.077  1.4584 -2.2298  0.7550
  140SAPE    C215236   6.820   1.389   9.928  0.2185  0.2656  0.0509
  140SAPE    HS15237   6.883   1.453   9.864  1.6264 -1.0144  0.1047
  140SAPE   O2115238   6.723   1.324   9.848 -0.6052  0.0856 -0.4431
  140SAPE   C2115239   6.665   1.407   9.754 -0.3352  0.4485  0.1264
  140SAPE   O2215240   6.703   1.517   9.730 -0.2467 -0.1633  0.6568
  140SAPE   C2215241   6.549   1.336   9.686 -0.0663  0.3414 -0.8689
  140SAPE   H2R15242   6.584   1.273   9.601  0.7272  1.4367 -1.3831
  140SAPE   H2S15243   6.495   1.268   9.755 -0.4439 -1.0225 -2.4376
  140SAPE    C315244   6.908   1.277   9.995 -0.5232 -0.8670 -0.2022
  140SAPE    HX15245   6.834   1.231  10.065 -0.9981  1.9486  1.2971
  140SAPE    HY15246   6.978   1.333  10.061 -0.7139  1.2448 -1.6911
  140SAPE   O3115247   6.974   1.195   9.899 -0.4142  0.2426  0.0815
  140SAPE   C3115248   6.908   1.075   9.881 -0.3163 -0.0859  0.0527
  140SAPE   O3215249   6.822   1.033   9.954 -0.2231  0.3258  0.0450
  140SAPE   C3215250   6.960   1.009   9.758 -0.6602 -0.3070  0.9820
  140SAPE   H2X15251   6.973   0.898   9.753 -2.2284 -0.4692 -0.0951
  140SAPE   H2Y15252   7.064   1.047   9.748 -1.1351  0.6768 -0.5183
  140SAPE   C2315253   6.457   1.437   9.619  0.2545 -0.3537  0.1016
  140SAPE   H3R15254   6.513   1.492   9.540  2.0984 -1.9032  0.2718
  140SAPE   H3S15255   6.428   1.507   9.701  1.4119 -0.1081  0.3188
  140SAPE   C2415256   6.339   1.367   9.551  0.9006 -0.4434  0.5176
  140SAPE   H4R15257   6.305   1.286   9.620 -1.5967  0.8119  0.9095
  140SAPE   H4S15258   6.385   1.311   9.468  1.6537 -1.7593  1.7664
  140SAPE   C2515259   6.224   1.454   9.501  0.0850 -0.3720 -0.2350
  140SAPE   H5R15260   6.146   1.474   9.576 -0.1759 -1.8413 -0.0898
  140SAPE   C2615261   6.203   1.484   9.374  0.1704  0.5363  0.5944
  140SAPE   H6R15262   6.109   1.530   9.339 -0.5284 -2.0443 -1.1886
  140SAPE   C2715263   6.315   1.474   9.268  0.4780  0.0209  0.5076
  140SAPE   H7R15264   6.339   1.366   9.263  3.5305  0.5611  1.3978
  140SAPE   H7S15265   6.413   1.516   9.300 -0.0051  1.5239  0.1075
  140SAPE   C2815266   6.285   1.529   9.131  0.1836 -0.5625  1.2255
  140SAPE   H8R15267   6.264   1.635   9.112 -1.3083 -0.9245  0.6908
  140SAPE   C2915268   6.315   1.463   9.024 -0.2416  0.1895 -0.3278
  140SAPE   H9R15269   6.308   1.510   8.925  0.0148  0.1728 -0.3553
  140SAPE  C21015270   6.363   1.322   9.009  0.3021 -0.3830 -0.8525
  140SAPE  H10R15271   6.431   1.297   9.093 -1.3314  2.6205  1.5921
  140SAPE  H10S15272   6.429   1.318   8.919  0.9686 -0.1339 -0.3880
  140SAPE  C21115273   6.241   1.233   8.995 -0.2838  0.2439  0.4685
  140SAPE  H11R15274   6.190   1.212   9.090  0.4698  0.4038  0.9151
  140SAPE  C21215275   6.205   1.170   8.881  1.0047 -0.6703  0.3840
  140SAPE  H12R15276   6.105   1.125   8.878  1.1387 -0.9535  0.1348
  140SAPE  C21315277   6.267   1.182   8.744 -0.6581 -0.4721  0.5237
  140SAPE  H13R15278   6.377   1.167   8.752 -0.0210  1.6678 -2.6082
  140SAPE  H13S15279   6.263   1.289   8.715  2.3718 -1.2559 -3.6042
  140SAPE  C21415280   6.204   1.099   8.632 -0.8150  0.2954 -0.7294
  140SAPE  H14R15281   6.271   1.044   8.563  0.3608 -0.4944  0.9772
  140SAPE  C21515282   6.073   1.106   8.591 -0.9690 -1.0000  0.3391
  140SAPE  H15R15283   6.037   1.034   8.516 -3.4553 -0.4843  0.9621
  140SAPE  C21615284   5.975   1.192   8.659 -0.5404 -0.1061  0.1148
  140SAPE  H16R15285   6.021   1.284   8.700 -2.8674  0.8659  0.7291
  140SAPE  H16S15286   5.928   1.132   8.740 -1.1106  1.2186  0.7998
  140SAPE  C21715287   5.855   1.235   8.575  1.1995 -0.0903 -0.1811
  140SAPE  H17R15288   5.810   1.143   8.531 -0.3160  1.1202 -1.3185
  140SAPE  H17S15289   5.881   1.302   8.490 -1.0290  0.4113 -0.5512
  140SAPE  C21815290   5.739   1.295   8.661  0.3563  1.1825  0.4834
  140SAPE  H18R15291   5.711   1.216   8.735 -4.6758 -0.8990 -3.0611
  140SAPE  H18S15292   5.650   1.316   8.598 -0.1898  0.2801  0.9294
  140SAPE  C21915293   5.770   1.420   8.742  0.5596 -0.0369  0.5171
  140SAPE  H19R15294   5.782   1.507   8.674  2.9640 -0.9314 -0.2971
  140SAPE  H19S15295   5.872   1.406   8.783  1.9198  1.5773 -2.0598
  140SAPE  C22015296   5.672   1.443   8.850  0.3789 -0.0681 -0.3684
  140SAPE  H20R15297   5.569   1.453   8.811  0.3222 -1.0675 -0.4775
  140SAPE  H20S15298   5.682   1.539   8.905 -0.1467 -0.5074  0.5092
  140SAPE  H20T15299   5.665   1.355   8.917  0.0693  1.2591  1.4382
  140SAPE   C3315300   6.883   1.053   9.633 -0.1038 -0.6935  0.6021
  140SAPE   H3X15301   6.774   1.047   9.653 -0.3467 -2.2608 -0.9518
  140SAPE   H3Y15302   6.910   0.982   9.552 -0.0574 -1.4233  1.2403
  140SAPE   C3415303   6.914   1.192   9.586  0.1730 -0.0021 -0.2066
  140SAPE   H4X15304   7.024   1.208   9.579 -0.1554  3.3741  0.5794
  140SAPE   H4Y15305   6.876   1.269   9.656 -2.5410  0.9183 -2.5217
  140SAPE   C3515306   6.845   1.225   9.462  0.1115  0.5204 -0.2267
  140SAPE   H5X15307   6.741   1.202   9.493  0.4473 -1.6817 -0.5971
  140SAPE   H5Y15308   6.874   1.157   9.379 -1.9059  0.0142 -0.5916
  140SAPE   C3615309   6.863   1.356   9.405  0.5828  0.3111  0.8784
  140SAPE   H6X15310   6.969   1.369   9.377 -0.1024  1.1276 -1.6000
  140SAPE   H6Y15311   6.823   1.434   9.474 -1.5038  0.8390 -0.7954
  140SAPE   C3715312   6.787   1.377   9.270  0.7647  0.2848  0.7490
  140SAPE   H7X15313   6.825   1.465   9.215  0.8034  0.3006  0.8017
  140SAPE   H7Y15314   6.683   1.403   9.299 -0.1189 -1.3150 -0.7921
  140SAPE   C3815315   6.789   1.264   9.170 -0.3640 -0.6830  0.2880
  140SAPE   H8X15316   6.740   1.172   9.208  0.1180 -1.5168 -1.0399
  140SAPE   H8Y15317   6.891   1.224   9.151  0.2242  1.0606 -0.4494
  140SAPE   C3915318   6.721   1.297   9.033 -0.0802 -0.0984 -0.2339
  140SAPE   H9X15319   6.625   1.352   9.047 -0.6121 -0.9876 -0.3113
  140SAPE   H9Y15320   6.695   1.194   9.001 -1.4059  0.0649  0.2252
  140SAPE  C31015321   6.817   1.376   8.945 -0.0535 -0.0719 -0.0787
  140SAPE  H10X15322   6.906   1.314   8.922  0.2347  0.2995  0.0397
  140SAPE  H10Y15323   6.849   1.473   8.988  2.0667 -0.5999 -0.3470
  140SAPE  C31115324   6.757   1.399   8.802 -0.6299 -0.3088 -0.7941
  140SAPE  H11X15325   6.723   1.301   8.763  0.9289 -1.3843  0.4197
  140SAPE  H11Y15326   6.843   1.444   8.748  0.7055 -1.9741 -0.1510
  140SAPE  C31215327   6.636   1.501   8.794 -0.7500 -0.5647  0.3417
  140SAPE  H12X15328   6.693   1.588   8.833  0.8983 -2.0074  1.3153
  140SAPE  H12Y15329   6.555   1.479   8.868 -1.4302  2.1950  0.5429
  140SAPE  C31315330   6.589   1.524   8.651 -0.0577  0.6234 -0.8838
  140SAPE  H13X15331   6.491   1.576   8.652 -0.2779  0.2139  0.4268
  140SAPE  H13Y15332   6.559   1.421   8.623  1.9266  0.3377 -2.1645
  140SAPE  C31415333   6.685   1.591   8.547  0.3065  0.4889  0.4923
  140SAPE  H14X15334   6.771   1.520   8.550  0.3766  0.5694  0.3777
  140SAPE  H14Y15335   6.712   1.693   8.582  1.3176 -0.5019  2.8701
  140SAPE  C31515336   6.625   1.607   8.411 -0.3154 -0.0714 -0.4997
  140SAPE  H15X15337   6.539   1.678   8.411  1.3209  2.0198  0.6870
  140SAPE  H15Y15338   6.586   1.513   8.366  0.6170 -0.5012 -0.4216
  140SAPE  C31615339   6.725   1.641   8.297 -0.0630 -0.1157 -0.6516
  140SAPE  H16X15340   6.785   1.733   8.313  1.6685 -1.1476 -0.9330
  140SAPE  H16Y15341   6.662   1.666   8.209 -0.6070 -1.0342 -0.5286
  140SAPE  C31715342   6.829   1.532   8.266 -0.0505  0.5434 -0.5334
  140SAPE  H17X15343   6.779   1.435   8.248 -1.2390  1.2475 -1.2046
  140SAPE  H17Y15344   6.898   1.526   8.353 -0.1009 -1.3800 -0.5865
  140SAPE  C31815345   6.915   1.570   8.141  0.5073  1.2585  0.6809
  140SAPE  H18X15346   6.993   1.493   8.126 -1.5170 -0.7790  0.0600
  140SAPE  H18Y15347   6.953   1.673   8.155 -1.2686  2.1637 -0.6588
  140SAPE  H18Z15348   6.848   1.568   8.052  0.0539 -0.9365  1.0176
  141SAPE     N15349   6.744   2.417  10.526  0.3599  0.3135 -0.0694
  141SAPE   HN115350   6.642   2.397  10.519  0.8708 -2.6936 -0.3384
  141SAPE   HN215351   6.749   2.516  10.557 -0.7789  1.3610 -2.8970
  141SAPE   HN315352   6.785   2.417  10.431  1.3036 -0.3204  0.3188
  141SAPE   C1215353   6.804   2.311  10.615 -0.2520  0.6514 -0.4148
  141SAPE  H12A15354   6.765   2.336  10.716  2.4248  1.2515  0.5544
  141SAPE  H12B15355   6.914   2.327  10.612 -0.2506  1.3401  1.4207
  141SAPE   C1115356   6.763   2.168  10.575  0.0736  0.0596  0.1986
  141SAPE  H11A15357   6.653   2.158  10.565  0.2382  0.2581 -2.3296
  141SAPE  H11B15358   6.810   2.109  10.657 -0.7633  2.8661  2.9030
  141SAPE     P15359   6.763   2.126  10.308 -0.0419  0.4710 -0.5770
  141SAPE   O1315360   6.617   2.099  10.338  0.0280 -0.4176  0.1274
  141SAPE   O1415361   6.790   2.255  10.241  0.2051 -0.4642 -0.2441
  141SAPE   O1215362   6.833   2.129  10.454 -0.3253 -0.8775  0.5173
  141SAPE   O1115363   6.824   2.007  10.232 -0.3007  0.0816 -0.1131
  141SAPE    C115364   6.755   1.887  10.206 -0.4702  0.8323 -0.1173
  141SAPE    HA15365   6.818   1.801  10.237 -2.6381 -0.3828  1.1285
  141SAPE    HB15366   6.658   1.868  10.256 -0.0681  0.4430  0.5274
  141SAPE    C215367   6.722   1.883  10.047 -0.0834 -0.3035 -0.3692
  141SAPE    HS15368   6.692   1.777  10.033 -1.2350 -0.1269  0.5952
  141SAPE   O2115369   6.834   1.932   9.970  0.2726 -0.2424  0.3515
  141SAPE   C2115370   6.936   1.849   9.964  0.5844 -0.1472 -0.3008
  141SAPE   O2215371   6.951   1.744  10.022 -0.1968 -0.1368  0.1806
  141SAPE   C2215372   7.032   1.900   9.857  0.0324  0.6611  0.4288
  141SAPE   H2R15373   7.011   2.007   9.834 -1.5818  0.2355 -0.1585
  141SAPE   H2S15374   7.136   1.882   9.893  0.4535  1.1016 -0.5179
  141SAPE    C315375   6.591   1.955  10.007 -0.3387  0.5092  0.2727
  141SAPE    HX15376   6.606   2.065  10.011  1.1971  0.3566 -0.6569
  141SAPE    HY15377   6.514   1.922  10.081  0.3506  1.2004  1.3210
  141SAPE   O3115378   6.548   1.925   9.869  0.6494  0.6097 -0.0968
  141SAPE   C3115379   6.414   1.936   9.839 -0.5854  0.1950 -0.4235
  141SAPE   O3215380   6.331   1.967   9.925  0.1640  0.0371  1.1438
  141SAPE   C3215381   6.389   1.929   9.682  0.1432 -0.8056  0.0786
  141SAPE   H2X15382   6.467   1.875   9.625 -1.0401 -0.8812 -1.5274
  141SAPE   H2Y15383   6.396   2.033   9.644  0.9049 -1.0354 -0.4166
  141SAPE   C2315384   7.011   1.828   9.722 -0.5230 -0.2037 -0.4973
  141SAPE   H3R15385   7.006   1.719   9.744 -0.1009 -0.1979 -0.3676
  141SAPE   H3S15386   7.101   1.845   9.659 -0.0089  0.1362  0.3132
  141SAPE   C2415387   6.886   1.883   9.640 -0.8419 -0.7861  0.0080
  141SAPE   H4R15388   6.920   1.983   9.607  1.9397 -1.2867  1.1343
  141SAPE   H4S15389   6.801   1.904   9.708  0.9936 -0.6515  2.3723
  141SAPE   C2515390   6.845   1.781   9.536 -0.1580 -0.4525  0.1039
  141SAPE   H5R15391   6.779   1.700   9.571  0.8649 -0.5441  1.9185
  141SAPE   C2615392   6.885   1.778   9.406  0.3092 -0.0963  0.0620
  141SAPE   H6R15393   6.853   1.690   9.348  0.8548 -0.4431  0.2757
  141SAPE   C2715394   6.980   1.869   9.330 -0.0516 -0.0728  0.7056
  141SAPE   H7R15395   7.058   1.905   9.400  1.4732  0.5883 -1.2542
  141SAPE   H7S15396   6.919   1.947   9.280 -0.6025 -1.4610 -0.8668
  141SAPE   C2815397   7.046   1.797   9.216  0.8065 -0.1483  0.4263
  141SAPE   H8R15398   7.131   1.737   9.250  0.7502 -2.0146 -2.4471
  141SAPE   C2915399   7.026   1.822   9.082  0.3501  0.0003  0.5825
  141SAPE   H9R15400   7.079   1.758   9.010  0.3485 -0.7306  1.2065
  141SAPE  C21015401   6.923   1.912   9.016  0.1595  0.2334 -0.1371
  141SAPE  H10R15402   6.842   1.911   9.092  1.1206 -1.4613  0.9355
  141SAPE  H10S15403   6.900   1.846   8.930 -3.4928 -2.3615  2.5177
  141SAPE  C21115404   6.980   2.045   8.970 -0.3415 -0.0396  0.0243
  141SAPE  H11R15405   7.045   2.097   9.042 -0.5636 -1.3949  1.2471
  141SAPE  C21215406   6.947   2.094   8.848 -0.2813  0.0206  0.1964
  141SAPE  H12R15407   6.996   2.189   8.820  1.7198 -1.3104 -1.0630
  141SAPE  C21315408   6.846   2.044   8.748 -0.3863 -0.0511 -0.2738
  141SAPE  H13R15409   6.774   2.123   8.719 -1.2447  0.3148  2.5153
  141SAPE  H13S15410   6.787   1.961   8.793 -1.1928  1.3337  1.3001
  141SAPE  C21415411   6.920   2.003   8.618 -0.0522 -0.6803 -0.1823
  141SAPE  H14R15412   7.030   1.998   8.620  0.0271  0.6959 -0.2634
  141SAPE  C21515413   6.865   2.007   8.495  0.1341  0.3198 -0.0651
  141SAPE  H15R15414   6.937   2.002   8.413  1.5112 -0.0325  1.1158
  141SAPE  C21615415   6.723   2.022   8.459 -0.0326 -0.2751 -0.3293
  141SAPE  H16R15416   6.661   2.043   8.549  1.0346  2.7524 -0.1651
  141SAPE  H16S15417   6.682   1.926   8.422  1.6641 -1.6377  1.1631
  141SAPE  C21715418   6.700   2.135   8.349 -0.6932 -0.3803  0.1969
  141SAPE  H17R15419   6.590   2.125   8.339 -0.8965  0.5329  1.3570
  141SAPE  H17S15420   6.757   2.124   8.254  0.2244  1.0857  0.5310
  141SAPE  C21815421   6.730   2.282   8.404  1.0445  0.6442  0.8357
  141SAPE  H18R15422   6.834   2.304   8.437  0.1002  2.5255  2.8597
  141SAPE  H18S15423   6.678   2.287   8.502 -1.1791  0.0174 -0.2451
  141SAPE  C21915424   6.672   2.380   8.307 -0.5061 -0.1885  0.3839
  141SAPE  H19R15425   6.570   2.358   8.268  0.0448 -0.2966 -1.0256
  141SAPE  H19S15426   6.744   2.382   8.223 -2.9246 -0.3533 -1.8128
  141SAPE  C22015427   6.678   2.523   8.357  0.2246  0.0918  0.3303
  141SAPE  H20R15428   6.635   2.599   8.289 -0.5851 -1.5483 -1.0681
  141SAPE  H20S15429   6.778   2.556   8.394 -0.4499  0.5471  1.7939
  141SAPE  H20T15430   6.613   2.538   8.446  0.1333  1.9741 -0.0181
  141SAPE   C3315431   6.243   1.883   9.644  0.0080  0.8431  0.6218
  141SAPE   H3X15432   6.170   1.913   9.723  0.9384 -1.1145  2.3294
  141SAPE   H3Y15433   6.235   1.773   9.638 -0.7720  0.9429 -0.3361
  141SAPE   C3415434   6.193   1.941   9.506  0.3446  0.4257 -0.2779
  141SAPE   H4X15435   6.165   2.048   9.512 -0.5458  0.3539 -2.2385
  141SAPE   H4Y15436   6.097   1.895   9.475  1.6819 -1.8277 -1.3522
  141SAPE   C3515437   6.289   1.916   9.383 -0.2102  0.0781  0.4050
  141SAPE   H5X15438   6.328   1.813   9.391 -1.2583 -0.4471 -0.9084
  141SAPE   H5Y15439   6.372   1.990   9.396  0.6292 -0.4095 -1.8008
  141SAPE   C3615440   6.225   1.948   9.244 -0.4860  0.3185 -0.7194
  141SAPE   H6X15441   6.183   2.050   9.250  0.0969  0.5513 -0.6175
  141SAPE   H6Y15442   6.138   1.881   9.227  0.3407 -0.4410 -2.1226
  141SAPE   C3715443   6.317   1.927   9.122 -0.2903 -0.5187  0.0982
  141SAPE   H7X15444   6.347   1.820   9.122 -0.0764 -0.4932 -1.5002
  141SAPE   H7Y15445   6.404   1.995   9.133  0.7659 -1.6578 -0.8611
  141SAPE   C3815446   6.250   1.953   8.984 -0.2321  0.4786 -1.0209
  141SAPE   H8X15447   6.183   2.041   8.989 -0.4253  0.3850 -1.8063
  141SAPE   H8Y15448   6.184   1.864   8.973  2.1896 -1.5355 -0.1845
  141SAPE   C3915449   6.338   1.966   8.861  0.0989 -1.0072  0.0932
  141SAPE   H9X15450   6.424   2.034   8.881 -0.0139 -0.1820 -1.9426
  141SAPE   H9Y15451   6.279   2.037   8.799 -1.1071  0.2201  2.5217
  141SAPE  C31015452   6.372   1.838   8.790  0.5715  0.0372 -0.5918
  141SAPE  H10X15453   6.289   1.765   8.783 -1.4582  2.1659 -0.1746
  141SAPE  H10Y15454   6.445   1.785   8.854 -0.1630  0.9694  1.0818
  141SAPE  C31115455   6.434   1.870   8.654 -0.2239  0.1004  0.7079
  141SAPE  H11X15456   6.460   1.776   8.601  3.6865  1.3371  0.1216
  141SAPE  H11Y15457   6.521   1.936   8.673  0.4299 -0.8915  1.2507
  141SAPE  C31215458   6.329   1.930   8.552  0.4496 -0.4531 -0.4779
  141SAPE  H12X15459   6.314   2.038   8.569  0.9933 -0.5825  0.9103
  141SAPE  H12Y15460   6.233   1.879   8.576  2.0071 -1.7780  3.8903
  141SAPE  C31315461   6.368   1.906   8.401  0.1718 -0.0527  0.4089
  141SAPE  H13X15462   6.351   1.799   8.375 -1.8023  0.2254  0.4038
  141SAPE  H13Y15463   6.476   1.934   8.398 -0.4746  2.6382 -1.3242
  141SAPE  C31415464   6.301   1.994   8.291  0.0619 -0.2969 -0.0301
  141SAPE  H14X15465   6.287   2.097   8.331 -2.3269 -1.0055  1.1531
  141SAPE  H14Y15466   6.208   1.940   8.264 -0.4765  1.1361 -1.2064
  141SAPE  C31515467   6.384   1.990   8.155  0.2852  0.3939  0.0419
  141SAPE  H15X15468   6.405   1.883   8.130  1.1353  0.5804 -0.0781
  141SAPE  H15Y15469   6.480   2.043   8.172  0.6173 -0.3525  0.5379
  141SAPE  C31615470   6.311   2.054   8.042 -0.0334 -0.3787  0.8814
  141SAPE  H16X15471   6.230   1.984   8.015  1.1495 -1.6611  0.5652
  141SAPE  H16Y15472   6.373   2.078   7.952 -0.9194  1.2711  0.6596
  141SAPE  C31715473   6.231   2.184   8.080 -0.2326 -0.2105 -0.3328
  141SAPE  H17X15474   6.297   2.265   8.119 -1.3270  0.0113  1.1447
  141SAPE  H17Y15475   6.163   2.147   8.160  0.7835 -0.8218  0.2699
  141SAPE  C31815476   6.153   2.226   7.966  0.4815  0.4606 -0.1006
  141SAPE  H18X15477   6.091   2.312   8.000  0.7549 -0.0988  1.8835
  141SAPE  H18Y15478   6.092   2.142   7.928  1.1563 -0.2895  0.4579
  141SAPE  H18Z15479   6.219   2.254   7.880  1.7725 -0.4989  0.5553
  142SAPE     N15480   0.796   0.135  10.566 -0.3713 -0.6210  0.0863
  142SAPE   HN115481   0.705   0.086  10.569  0.6619 -2.6218  0.4991
  142SAPE   HN215482   0.872   0.085  10.616  2.0305  0.9726 -1.7008
  142SAPE   HN315483   0.796   0.231  10.606 -1.9679 -0.7814  0.5021
  142SAPE   C1215484   0.844   0.144  10.423  0.0514 -0.0978  0.7480
  142SAPE  H12A15485   0.839   0.048  10.367 -0.3726  1.5168 -2.1574
  142SAPE  H12B15486   0.951   0.169  10.438  0.2002 -0.5834  0.5137
  142SAPE   C1115487   0.766   0.247  10.355  0.3751  0.0205 -0.0649
  142SAPE  H11A15488   0.663   0.208  10.341  0.1323  1.0656 -1.2792
  142SAPE  H11B15489   0.795   0.263  10.250 -3.4316  1.6021 -1.0481
  142SAPE     P15490   0.660   0.488  10.398 -0.3019  0.1545  0.3036
  142SAPE   O1315491   0.565   0.498  10.513  0.3107  0.3841 -0.6083
  142SAPE   O1415492   0.735   0.613  10.358  0.5719 -0.2778 -0.3624
  142SAPE   O1215493   0.762   0.370  10.427  0.2069 -0.0235  0.2122
  142SAPE   O1115494   0.574   0.433  10.280 -0.2668  0.5445 -0.0594
  142SAPE    C115495   0.443   0.379  10.297 -0.1029  0.2469 -0.0042
  142SAPE    HA15496   0.431   0.287  10.358 -4.9068 -0.1706 -1.1981
  142SAPE    HB15497   0.373   0.446  10.352 -1.5890 -1.5992  0.4335
  142SAPE    C215498   0.375   0.372  10.162 -0.2395  0.1207 -0.2443
  142SAPE    HS15499   0.267   0.357  10.183 -0.2108  1.3540  0.8917
  142SAPE   O2115500   0.420   0.262  10.083 -0.0513 -0.5504  0.0553
  142SAPE   C2115501   0.430   0.142  10.139  0.1164 -0.3763 -0.3137
  142SAPE   O2215502   0.377   0.105  10.247 -0.4920 -0.0940  0.2214
  142SAPE   C2215503   0.513   0.056  10.050 -0.0226  0.5960  0.0266
  142SAPE   H2R15504   0.584  -0.004  10.110  0.0313  0.8786  0.2490
  142SAPE   H2S15505   0.443  -0.014   9.999 -1.3379  2.8323 -1.4028
  142SAPE    C315506   0.379   0.509  10.082 -0.4831 -0.8826  0.7390
  142SAPE    HX15507   0.479   0.518  10.035  0.5788 -0.7171  2.9005
  142SAPE    HY15508   0.384   0.596  10.151  1.1787 -0.3733  0.0350
  142SAPE   O3115509   0.267   0.511   9.991 -0.7228  0.5480 -0.4106
  142SAPE   C3115510   0.206   0.631   9.985  0.7564  0.0779 -0.3941
  142SAPE   O3215511   0.227   0.728  10.057  0.4647  0.2272  0.1456
  142SAPE   C3215512   0.091   0.638   9.889  0.3586  0.7313  0.0032
  142SAPE   H2X15513   0.050   0.741   9.899  2.9695  1.6524  2.4589
  142SAPE   H2Y15514   0.015   0.567   9.930  2.3837 -1.7334 -0.2607
  142SAPE   C2315515   0.583   0.145   9.937 -0.0913 -0.4049 -0.8350
  142SAPE   H3R15516   0.638   0.229   9.984 -1.2157 -0.5458  0.8171
  142SAPE   H3S15517   0.504   0.185   9.871  0.7241  4.1335  0.5714
  142SAPE   C2415518   0.673   0.049   9.858  0.4129 -0.1317  0.3699
  142SAPE   H4R15519   0.624  -0.043   9.821 -1.5330  1.7349 -2.0855
  142SAPE   H4S15520   0.756   0.026   9.928 -0.8157  1.9661  2.6702
  142SAPE   C2515521   0.728   0.118   9.735  0.4938  0.3628  0.9967
  142SAPE   H5R15522   0.735   0.228   9.746  1.6743  0.4929 -0.7165
  142SAPE   C2615523   0.734   0.086   9.606  0.9872  0.4698 -0.0489
  142SAPE   H6R15524   0.784   0.165   9.548 -0.5809  0.9077 -0.8561
  142SAPE   C2715525   0.698  -0.048   9.543  0.2261 -0.5531  0.1152
  142SAPE   H7R15526   0.647  -0.110   9.620 -2.7881  4.2332  2.4493
  142SAPE   H7S15527   0.791  -0.104   9.520  0.5982  0.0430  0.1660
  142SAPE   C2815528   0.613  -0.052   9.415 -0.5728 -0.0219 -0.2703
  142SAPE   H8R15529   0.507  -0.071   9.436 -0.6095  0.6715  0.1927
  142SAPE   C2915530   0.658  -0.059   9.289  0.3160 -0.1247 -0.2722
  142SAPE   H9R15531   0.586  -0.039   9.208 -0.3470  0.6623  0.4902
  142SAPE  C21015532   0.801  -0.072   9.258 -0.0454  0.1021 -0.0951
  142SAPE  H10R15533   0.820  -0.179   9.278 -0.7437  0.3611  2.2492
  142SAPE  H10S15534   0.867  -0.032   9.338 -0.4125 -2.5605  1.6507
  142SAPE  C21115535   0.850  -0.013   9.132 -0.3348 -0.3984 -0.0381
  142SAPE  H11R15536   0.892  -0.080   9.055 -0.2178  0.4692 -0.7536
  142SAPE  C21215537   0.882   0.114   9.112  0.3264  0.3562  0.2432
  142SAPE  H12R15538   0.939   0.128   9.019  3.0388 -1.2601  1.5153
  142SAPE  C21315539   0.864   0.234   9.195  0.1980  0.5668 -0.0471
  142SAPE  H13R15540   0.842   0.195   9.297  0.7862 -1.6756 -0.7179
  142SAPE  H13S15541   0.768   0.286   9.175 -0.7217 -0.9201  0.2842
  142SAPE  C21415542   0.985   0.331   9.200  0.0325  0.6325  0.1408
  142SAPE  H14R15543   1.022   0.355   9.300  0.9013  1.9616 -0.4716
  142SAPE  C21515544   1.045   0.389   9.094  0.1325 -0.5757  0.5358
  142SAPE  H15R15545   1.134   0.448   9.122 -0.4525  1.3625 -1.4286
  142SAPE  C21615546   1.022   0.390   8.941  0.2154 -0.1078  0.2608
  142SAPE  H16R15547   0.916   0.363   8.921 -0.0032  0.5872  0.4583
  142SAPE  H16S15548   1.095   0.319   8.898 -1.2658 -2.5731  1.6120
  142SAPE  C21715549   1.034   0.537   8.883 -0.3791  0.1404 -0.1467
  142SAPE  H17R15550   1.118   0.584   8.938  0.7783 -1.2336 -0.6664
  142SAPE  H17S15551   0.951   0.600   8.921 -0.4476 -0.8913  1.5081
  142SAPE  C21815552   1.032   0.554   8.731 -0.3559  0.2695  0.3320
  142SAPE  H18R15553   1.043   0.659   8.696  1.4134  0.0786  0.2242
  142SAPE  H18S15554   0.929   0.534   8.694 -0.8155  2.2689  0.4458
  142SAPE  C21915555   1.132   0.463   8.656 -0.6168 -0.2979 -0.2058
  142SAPE  H19R15556   1.125   0.366   8.709 -0.0384 -0.7888 -1.0112
  142SAPE  H19S15557   1.236   0.496   8.672 -0.5292 -0.8215  0.3519
  142SAPE  C22015558   1.116   0.456   8.510  0.4143 -0.0069 -0.0808
  142SAPE  H20R15559   1.195   0.398   8.459 -1.5214 -0.7564 -2.4338
  142SAPE  H20S15560   1.128   0.559   8.470  2.1194  0.0346  0.4842
  142SAPE  H20T15561   1.018   0.411   8.482  0.4918  0.9626 -2.0405
  142SAPE   C3315562   0.119   0.603   9.737 -0.4792  0.2810 -0.1168
  142SAPE   H3X15563   0.164   0.502   9.734 -0.0111  0.5066 -1.7479
  142SAPE   H3Y15564   0.191   0.675   9.692 -0.0409 -0.3082 -0.3560
  142SAPE   C3415565  -0.003   0.604   9.645 -0.4010  0.1722  0.2574
  142SAPE   H4X15566  -0.054   0.702   9.640 -0.5443  0.1820  1.6514
  142SAPE   H4Y15567  -0.081   0.530   9.672 -0.9966  1.4686  2.3316
  142SAPE   C3515568   0.046   0.572   9.506 -0.1200  0.7845  0.4035
  142SAPE   H5X15569   0.097   0.475   9.489 -1.8085  0.2893 -2.3393
  142SAPE   H5Y15570   0.123   0.645   9.470 -0.6804  0.4060 -1.6773
  142SAPE   C3615571  -0.072   0.573   9.399  0.2256  0.6915  0.3470
  142SAPE   H6X15572  -0.126   0.669   9.415 -1.5383 -0.4902  1.8874
  142SAPE   H6Y15573  -0.150   0.498   9.420  1.9818 -1.3834 -0.2282
  142SAPE   C3715574  -0.034   0.555   9.250  0.8483  0.2354  0.3332
  142SAPE   H7X15575   0.003   0.451   9.236  1.5752  0.3460  1.3058
  142SAPE   H7Y15576   0.044   0.623   9.210 -0.3194  0.2430 -2.1580
  142SAPE   C3815577  -0.151   0.570   9.153 -0.2497 -0.9382  0.6369
  142SAPE   H8X15578  -0.170   0.675   9.120  1.6537 -1.1212 -1.2315
  142SAPE   H8Y15579  -0.243   0.518   9.186  0.6310 -2.2672  1.0320
  142SAPE   C3915580  -0.101   0.511   9.022  0.2282 -0.4688  0.0424
  142SAPE   H9X15581  -0.200   0.498   8.972 -0.7231  1.6672  1.2157
  142SAPE   H9Y15582  -0.065   0.407   9.035 -0.2165 -0.3152  3.2011
  142SAPE  C31015583  -0.013   0.598   8.944  0.5574 -0.9542 -0.0567
  142SAPE  H10X15584   0.083   0.619   8.996  0.4833 -0.3471 -0.1578
  142SAPE  H10Y15585  -0.065   0.695   8.934  0.6405 -1.0518 -1.7393
  142SAPE  C31115586   0.037   0.522   8.822  0.6931 -0.4040  0.5854
  142SAPE  H11X15587  -0.050   0.459   8.794 -1.0291  1.0557  2.4147
  142SAPE  H11Y15588   0.118   0.448   8.844  0.0893 -1.8676 -1.7942
  142SAPE  C31215589   0.083   0.606   8.706 -0.1212  0.7071  0.4148
  142SAPE  H12X15590   0.180   0.652   8.735  1.0044 -1.5652  0.4299
  142SAPE  H12Y15591   0.002   0.680   8.685  0.1731  0.8810 -0.1159
  142SAPE  C31315592   0.116   0.518   8.579 -0.4004 -0.3614 -0.1334
  142SAPE  H13X15593   0.190   0.444   8.616  0.1972  1.0543  1.6900
  142SAPE  H13Y15594   0.150   0.594   8.505 -0.9583  2.7724  2.5824
  142SAPE  C31415595  -0.006   0.443   8.524 -0.1753  0.0321  0.3749
  142SAPE  H14X15596  -0.035   0.368   8.601 -2.2684  0.4132  0.0139
  142SAPE  H14Y15597   0.018   0.389   8.430 -0.1755  0.0021  0.3917
  142SAPE  C31515598  -0.115   0.539   8.490 -0.3732 -0.0130  0.4025
  142SAPE  H15X15599  -0.072   0.638   8.464 -0.2356 -0.1005  0.2977
  142SAPE  H15Y15600  -0.178   0.549   8.581  0.9433 -0.1280  1.3455
  142SAPE  C31615601  -0.181   0.492   8.362  0.2842  0.1224 -0.5985
  142SAPE  H16X15602  -0.239   0.398   8.364 -0.2661  0.4637 -0.1519
  142SAPE  H16Y15603  -0.107   0.478   8.280 -1.2568 -0.4229 -1.9515
  142SAPE  C31715604  -0.280   0.592   8.306  0.0101  0.2341  0.3691
  142SAPE  H17X15605  -0.240   0.691   8.337 -0.5231  0.8922 -0.9873
  142SAPE  H17Y15606  -0.376   0.570   8.357 -0.4744 -0.4423 -0.7916
  142SAPE  C31815607  -0.286   0.596   8.153 -0.1518 -0.8436 -0.3217
  142SAPE  H18X15608  -0.182   0.602   8.114 -0.2285  0.3973 -0.3809
  142SAPE  H18Y15609  -0.336   0.693   8.133  0.1923 -0.8293 -1.1596
  142SAPE  H18Z15610  -0.338   0.507   8.113 -0.8511 -1.0008  0.8939
  143SAPE     N15611   1.328   1.803  10.223 -0.5517  0.0114  0.6741
  143SAPE   HN115612   1.296   1.869  10.149 -1.8550  0.1916  1.3732
  143SAPE   HN215613   1.352   1.715  10.172  2.9534  1.4134 -0.3985
  143SAPE   HN315614   1.248   1.785  10.286 -0.9668 -2.6641 -0.4732
  143SAPE   C1215615   1.440   1.878  10.288  0.1088  0.2701 -0.1879
  143SAPE  H12A15616   1.521   1.905  10.216 -0.9185 -1.9407 -2.3398
  143SAPE  H12B15617   1.473   1.811  10.371  1.1282 -1.0835 -1.6103
  143SAPE   C1115618   1.362   2.009  10.343  0.2231 -0.0805 -0.4084
  143SAPE  H11A15619   1.437   2.062  10.405 -0.7360 -0.9215  1.5838
  143SAPE  H11B15620   1.277   1.988  10.411  0.0150  0.5811 -0.4563
  143SAPE     P15621   1.305   2.232  10.228 -0.2566  0.0839 -0.5178
  143SAPE   O1315622   1.196   2.280  10.142 -0.2932 -0.1947  0.4672
  143SAPE   O1415623   1.301   2.275  10.375 -0.5907 -0.1709  0.1152
  143SAPE   O1215624   1.317   2.084  10.231  0.0034 -0.2121  0.3722
  143SAPE   O1115625   1.439   2.291  10.174 -0.4113 -0.1095 -0.0671
  143SAPE    C115626   1.567   2.237  10.194 -0.0220  0.4415  0.2876
  143SAPE    HA15627   1.627   2.295  10.267 -1.3650 -1.5440  3.1293
  143SAPE    HB15628   1.567   2.134  10.235 -1.1194  0.8051  1.2582
  143SAPE    C215629   1.644   2.225  10.063  0.1615 -0.3140 -0.2623
  143SAPE    HS15630   1.663   2.325  10.018 -2.3365 -0.6624 -2.3631
  143SAPE   O2115631   1.575   2.140   9.973 -0.0490  0.1819  0.6401
  143SAPE   C2115632   1.569   2.180   9.846 -0.5060  0.4173  0.0691
  143SAPE   O2215633   1.606   2.286   9.799  0.4412  0.0616 -0.2677
  143SAPE   C2215634   1.538   2.061   9.758  0.1928  0.5587  0.3502
  143SAPE   H2R15635   1.496   1.977   9.817  0.2137 -0.0363 -0.4641
  143SAPE   H2S15636   1.470   2.099   9.679 -0.5411 -0.5272  0.4501
  143SAPE    C315637   1.793   2.177  10.075  0.2606  0.6464 -0.5711
  143SAPE    HX15638   1.798   2.070  10.107 -0.5498  0.0922 -2.2108
  143SAPE    HY15639   1.841   2.236  10.156  2.1516 -1.1489 -0.2719
  143SAPE   O3115640   1.855   2.180   9.950  0.4061  0.3535  0.0807
  143SAPE   C3115641   1.915   2.293   9.918  0.5874 -0.5641  0.0379
  143SAPE   O3215642   1.932   2.388   9.996  0.1715 -0.5208  0.0646
  143SAPE   C3215643   1.946   2.296   9.770  0.6000 -0.1613  0.7860
  143SAPE   H2X15644   1.966   2.401   9.742 -0.8600  0.0573  0.4556
  143SAPE   H2Y15645   1.852   2.272   9.716  1.0441 -1.6873  0.6522
  143SAPE   C2315646   1.667   2.010   9.693 -0.1933  0.3145 -0.0289
  143SAPE   H3R15647   1.709   1.951   9.777  0.8869  0.1814 -0.6392
  143SAPE   H3S15648   1.732   2.094   9.660 -0.6519  0.2875 -1.0187
  143SAPE   C2415649   1.629   1.910   9.575 -0.6762 -0.5190 -0.3527
  143SAPE   H4R15650   1.620   1.976   9.487  2.0604  2.3936  1.3510
  143SAPE   H4S15651   1.526   1.869   9.583 -1.1288  0.0452 -2.6869
  143SAPE   C2515652   1.741   1.808   9.569 -0.0266  0.3039  0.0443
  143SAPE   H5R15653   1.790   1.773   9.661  1.8658  0.4180 -0.8716
  143SAPE   C2615654   1.804   1.780   9.455  0.4856 -0.4351  0.0261
  143SAPE   H6R15655   1.887   1.709   9.445  0.3556 -0.3903 -1.5954
  143SAPE   C2715656   1.769   1.841   9.319  0.3137  0.1066 -0.1190
  143SAPE   H7R15657   1.852   1.816   9.249  1.1836  3.8204 -0.6323
  143SAPE   H7S15658   1.764   1.952   9.320  0.3708  0.1047  1.0897
  143SAPE   C2815659   1.640   1.790   9.260 -0.5753  0.4397 -0.1522
  143SAPE   H8R15660   1.588   1.725   9.332  1.9489 -0.3019  1.1153
  143SAPE   C2915661   1.598   1.808   9.137 -0.4788 -0.2325  0.9069
  143SAPE   H9R15662   1.508   1.753   9.103  1.4515 -0.2482 -5.3008
  143SAPE  C21015663   1.644   1.903   9.030  0.9416 -0.0749 -0.5519
  143SAPE  H10R15664   1.638   2.004   9.076  1.0934  0.0804 -0.8644
  143SAPE  H10S15665   1.563   1.908   8.954 -0.2953  0.1232  0.7280
  143SAPE  C21115666   1.769   1.869   8.969 -0.2379 -0.1906  0.1799
  143SAPE  H11R15667   1.848   1.859   9.045  0.1852 -1.5696 -0.3987
  143SAPE  C21215668   1.788   1.859   8.836  0.4833 -0.2182  0.3280
  143SAPE  H12R15669   1.886   1.833   8.794 -0.3227 -0.7026 -1.3664
  143SAPE  C21315670   1.693   1.902   8.726  0.2521  0.1289  0.4007
  143SAPE  H13R15671   1.588   1.879   8.754  0.0986 -0.4364 -0.5895
  143SAPE  H13S15672   1.722   1.854   8.630 -1.8176 -0.6448  0.1213
  143SAPE  C21415673   1.689   2.047   8.714  0.2898  0.0007  0.1136
  143SAPE  H14R15674   1.711   2.103   8.806  0.8459  2.4793 -1.4316
  143SAPE  C21515675   1.656   2.120   8.606 -0.3789  0.3158 -0.4862
  143SAPE  H15R15676   1.660   2.229   8.614  1.2183  0.3524 -1.4543
  143SAPE  C21615677   1.641   2.056   8.473 -0.2468  0.1625 -0.1521
  143SAPE  H16R15678   1.565   2.119   8.423  0.6364  1.0819 -0.3797
  143SAPE  H16S15679   1.604   1.952   8.471  2.0761 -0.7378  0.4497
  143SAPE  C21715680   1.772   2.056   8.388 -0.5117 -0.3171  0.3525
  143SAPE  H17R15681   1.821   1.957   8.403 -0.8759 -0.4681  0.5865
  143SAPE  H17S15682   1.838   2.128   8.440 -1.1263  1.0603 -0.7048
  143SAPE  C21815683   1.754   2.091   8.244 -0.0356  0.6470 -0.5476
  143SAPE  H18R15684   1.854   2.099   8.195  0.0650 -0.4384 -0.5583
  143SAPE  H18S15685   1.714   2.194   8.240  0.8452  1.0051 -0.4704
  143SAPE  C21915686   1.658   1.999   8.166  0.2367  0.0923 -0.0537
  143SAPE  H19R15687   1.555   2.020   8.202 -0.0942 -0.6716 -0.5285
  143SAPE  H19S15688   1.672   1.890   8.184 -0.6823 -0.2920 -1.5101
  143SAPE  C22015689   1.678   2.021   8.024 -0.5033  0.1423  0.5240
  143SAPE  H20R15690   1.603   1.968   7.963 -0.5208 -0.0884  0.7457
  143SAPE  H20S15691   1.782   1.997   7.993 -0.5611 -0.2407  0.6293
  143SAPE  H20T15692   1.665   2.131   8.010  0.6137  0.6115  2.7152
  143SAPE   C3315693   2.065   2.207   9.740 -0.6244 -0.1821 -0.4699
  143SAPE   H3X15694   2.045   2.100   9.762  1.8148 -0.6487 -0.2331
  143SAPE   H3Y15695   2.153   2.243   9.797  0.2777 -1.1092 -1.2486
  143SAPE   C3415696   2.104   2.222   9.593  0.1600  0.6411 -0.5148
  143SAPE   H4X15697   2.205   2.176   9.581 -0.3097 -0.4788 -0.3039
  143SAPE   H4Y15698   2.108   2.330   9.570  2.5182  0.7495  0.1175
  143SAPE   C3515699   1.999   2.158   9.496  0.4783 -0.1065 -0.1572
  143SAPE   H5X15700   1.902   2.212   9.507  0.0345 -0.4933 -1.9425
  143SAPE   H5Y15701   1.978   2.055   9.531  0.7580 -0.0499  0.1768
  143SAPE   C3615702   2.038   2.162   9.352  0.0335 -0.0087 -0.1629
  143SAPE   H6X15703   1.958   2.113   9.292  1.2899 -0.9718 -1.1049
  143SAPE   H6Y15704   2.129   2.099   9.341  0.3484  0.0766  1.6922
  143SAPE   C3715705   2.075   2.300   9.297 -0.1130 -0.6610  0.0040
  143SAPE   H7X15706   2.143   2.355   9.365  1.3930  1.5728 -3.0482
  143SAPE   H7Y15707   1.987   2.367   9.295 -0.6644 -1.3281 -2.4767
  143SAPE   C3815708   2.142   2.303   9.162  0.0827 -0.1301 -0.5882
  143SAPE   H8X15709   2.232   2.239   9.174  0.4223  0.6871  1.8576
  143SAPE   H8Y15710   2.172   2.408   9.143  3.3093 -1.2290 -2.2339
  143SAPE   C3915711   2.055   2.237   9.048 -0.3932 -0.4403  0.5217
  143SAPE   H9X15712   1.965   2.302   9.043 -0.9105 -1.1886 -0.2028
  143SAPE   H9Y15713   2.026   2.137   9.088 -2.4742  0.7350  2.0729
  143SAPE  C31015714   2.140   2.226   8.925  0.3194  0.2020 -0.2929
  143SAPE  H10X15715   2.221   2.151   8.936  0.0318 -0.1302 -0.4209
  143SAPE  H10Y15716   2.197   2.318   8.902  2.8463 -1.2273 -0.1172
  143SAPE  C31115717   2.062   2.198   8.797  0.2422  0.3741  0.4342
  143SAPE  H11X15718   2.026   2.293   8.753 -0.0053 -0.5147 -1.3730
  143SAPE  H11Y15719   1.972   2.138   8.823  0.6416  0.4412  2.0556
  143SAPE  C31215720   2.145   2.124   8.684  0.0567  0.0368 -0.2824
  143SAPE  H12X15721   2.071   2.076   8.617  0.3828  0.2329 -0.7950
  143SAPE  H12Y15722   2.203   2.039   8.725 -0.2017 -0.5734 -1.1601
  143SAPE  C31315723   2.229   2.203   8.585  0.1478 -0.0906  0.1735
  143SAPE  H13X15724   2.321   2.245   8.632  0.7954 -0.5869 -0.6091
  143SAPE  H13Y15725   2.176   2.288   8.537  0.0870 -0.6266 -0.7266
  143SAPE  C31415726   2.274   2.116   8.469 -0.4099 -0.1381 -0.1303
  143SAPE  H14X15727   2.184   2.077   8.417 -0.2728  0.2232 -0.6449
  143SAPE  H14Y15728   2.338   2.032   8.504 -1.0152  0.0515  1.4914
  143SAPE  C31515729   2.354   2.199   8.361  0.3729 -0.4566  0.0275
  143SAPE  H15X15730   2.424   2.264   8.417  0.4557 -0.1209 -0.4611
  143SAPE  H15Y15731   2.286   2.257   8.294  0.0152 -0.2510  0.5618
  143SAPE  C31615732   2.426   2.107   8.263 -0.0307 -0.2949  0.6407
  143SAPE  H16X15733   2.347   2.059   8.202  0.8580 -0.1894 -0.6288
  143SAPE  H16Y15734   2.495   2.032   8.308 -2.4597 -1.7888  2.0436
  143SAPE  C31715735   2.511   2.192   8.168 -0.0184  0.2550 -0.2464
  143SAPE  H17X15736   2.448   2.272   8.123 -0.4095 -1.1558 -2.3745
  143SAPE  H17Y15737   2.542   2.131   8.080  1.0299 -0.3246  0.5070
  143SAPE  C31815738   2.643   2.247   8.223  0.1754 -0.0580 -0.0125
  143SAPE  H18X15739   2.701   2.155   8.247 -0.6461 -0.9569 -1.3145
  143SAPE  H18Y15740   2.622   2.305   8.315 -0.3186 -0.5778  0.2077
  143SAPE  H18Z15741   2.687   2.320   8.152 -0.3659 -0.8008 -1.1365
  144SAPE     N15742   4.400   5.380  10.787  0.1147 -0.6076  0.4995
  144SAPE   HN115743   4.362   5.307  10.850  0.5722 -0.3561  1.0639
  144SAPE   HN215744   4.478   5.423  10.839  0.7265 -0.2056 -0.7150
  144SAPE   HN315745   4.326   5.450  10.762  1.4711  0.7171  0.0624
  144SAPE   C1215746   4.463   5.324  10.662  0.0299 -0.3614  0.4144
  144SAPE  H12A15747   4.383   5.265  10.613 -0.7699  1.8750 -1.1357
  144SAPE  H12B15748   4.555   5.268  10.690  0.2026 -1.6429 -2.4172
  144SAPE   C1115749   4.521   5.425  10.555 -0.0750  0.4829 -0.2343
  144SAPE  H11A15750   4.435   5.483  10.515 -1.1086 -1.8162 -1.5495
  144SAPE  H11B15751   4.562   5.358  10.476 -1.5382  0.5515 -1.0812
  144SAPE     P15752   4.764   5.513  10.609 -0.2916  0.1647  0.0022
  144SAPE   O1315753   4.812   5.613  10.701 -0.6157 -0.6020 -0.1587
  144SAPE   O1415754   4.791   5.372  10.643  0.0377  0.3158 -0.5336
  144SAPE   O1215755   4.607   5.529  10.607 -0.1229  0.0473 -0.0538
  144SAPE   O1115756   4.824   5.540  10.463  0.1610  0.2155 -0.3712
  144SAPE    C115757   4.798   5.658  10.390  0.8358 -0.9176 -0.3318
  144SAPE    HA15758   4.743   5.725  10.459 -0.2842 -2.5982  0.4693
  144SAPE    HB15759   4.895   5.706  10.363  1.7692 -1.7893  1.3729
  144SAPE    C215760   4.714   5.613  10.270  0.3572  0.1229 -0.0112
  144SAPE    HS15761   4.625   5.558  10.307 -0.9749  1.1205 -1.5910
  144SAPE   O2115762   4.793   5.543  10.171 -0.0419  0.3838 -0.0094
  144SAPE   C2115763   4.756   5.421  10.139  1.1370 -0.7506 -0.5024
  144SAPE   O2215764   4.652   5.364  10.175 -0.8186  0.0783 -0.3159
  144SAPE   C2215765   4.869   5.365  10.044 -0.8301  0.4659  0.7071
  144SAPE   H2R15766   4.934   5.450  10.015 -0.5830  0.2514  0.6258
  144SAPE   H2S15767   4.926   5.294  10.108 -1.6280 -1.1924 -0.3718
  144SAPE    C315768   4.652   5.726  10.187 -0.6292 -0.0695  0.1260
  144SAPE    HX15769   4.720   5.813  10.170  0.3356 -0.9346 -0.5632
  144SAPE    HY15770   4.584   5.772  10.261  0.1606 -1.0218  1.4747
  144SAPE   O3115771   4.603   5.678  10.054 -0.6842 -0.0991  0.3376
  144SAPE   C3115772   4.495   5.746  10.020  0.1686  0.7829 -0.0398
  144SAPE   O3215773   4.452   5.840  10.088 -0.4715  0.0287  0.9029
  144SAPE   C3215774   4.429   5.689   9.891  0.3308  0.6268  0.9159
  144SAPE   H2X15775   4.398   5.583   9.904  0.7520  0.5520  1.3721
  144SAPE   H2Y15776   4.510   5.696   9.816 -0.0932  0.8794  0.4799
  144SAPE   C2315777   4.819   5.284   9.920 -0.2629  0.4433 -0.5219
  144SAPE   H3R15778   4.807   5.179   9.954  0.9955 -0.4252 -2.5673
  144SAPE   H3S15779   4.906   5.274   9.851 -0.3180 -1.1732 -0.3982
  144SAPE   C2415780   4.697   5.330   9.844  0.1029  0.6838 -0.0174
  144SAPE   H4R15781   4.598   5.312   9.891 -1.3280 -0.2925 -3.1109
  144SAPE   H4S15782   4.693   5.258   9.760  2.8257  0.7835 -0.3259
  144SAPE   C2515783   4.708   5.468   9.775 -0.2000 -1.0105  0.1107
  144SAPE   H5R15784   4.745   5.551   9.836 -1.6806 -0.1212 -0.1533
  144SAPE   C2615785   4.669   5.500   9.651  0.4600 -0.3261 -0.0826
  144SAPE   H6R15786   4.657   5.604   9.618  1.2760  0.3586  1.6656
  144SAPE   C2715787   4.618   5.407   9.545 -0.3610  0.0007  0.1603
  144SAPE   H7R15788   4.512   5.436   9.529 -0.2554 -0.0715 -0.6814
  144SAPE   H7S15789   4.624   5.301   9.580  2.1982  0.1664  0.3712
  144SAPE   C2815790   4.693   5.407   9.412  0.5708 -0.3142 -0.5582
  144SAPE   H8R15791   4.790   5.354   9.411  0.2102 -1.0842  1.4059
  144SAPE   C2915792   4.642   5.435   9.292  0.1136 -0.4831  0.5137
  144SAPE   H9R15793   4.720   5.429   9.215 -0.3149  0.8819 -0.0549
  144SAPE  C21015794   4.507   5.499   9.258 -0.4811  0.1858 -0.1825
  144SAPE  H10R15795   4.435   5.458   9.332 -1.6341  1.6283 -0.4492
  144SAPE  H10S15796   4.481   5.463   9.156 -1.5796 -0.5911  0.3520
  144SAPE  C21115797   4.527   5.648   9.269  0.2366 -0.3759  0.1029
  144SAPE  H11R15798   4.582   5.679   9.359  1.1427  0.7470 -0.8179
  144SAPE  C21215799   4.455   5.739   9.192 -0.3985 -0.9876  0.3141
  144SAPE  H12R15800   4.468   5.845   9.218 -1.9004 -0.7576  0.1817
  144SAPE  C21315801   4.359   5.704   9.079 -0.6000  0.3920  0.5023
  144SAPE  H13R15802   4.298   5.796   9.067 -1.6017 -0.0910  1.6517
  144SAPE  H13S15803   4.282   5.626   9.099 -1.2553  0.9751  0.3232
  144SAPE  C21415804   4.427   5.659   8.947  0.0400  0.1857  0.7938
  144SAPE  H14R15805   4.495   5.573   8.948  5.0195  3.6109 -1.4569
  144SAPE  C21515806   4.392   5.708   8.822  0.7268  0.0719 -0.5647
  144SAPE  H15R15807   4.451   5.666   8.739  1.0344  1.7982 -1.2620
  144SAPE  C21615808   4.281   5.812   8.787 -0.3932 -0.0096 -0.7343
  144SAPE  H16R15809   4.231   5.845   8.881  3.1513 -1.1555  1.7720
  144SAPE  H16S15810   4.213   5.759   8.717 -2.6723  0.9222  0.6564
  144SAPE  C21715811   4.346   5.930   8.715 -0.4260  0.3061  0.0411
  144SAPE  H17R15812   4.421   5.892   8.642 -0.4862  0.4497 -0.0972
  144SAPE  H17S15813   4.406   5.990   8.787  1.1769  0.8738 -1.6750
  144SAPE  C21815814   4.243   6.017   8.636  0.2154  0.2757 -0.0731
  144SAPE  H18R15815   4.271   6.124   8.628 -0.6783  0.4854 -0.4670
  144SAPE  H18S15816   4.149   6.023   8.695 -1.3967  1.4610 -2.5854
  144SAPE  C21915817   4.218   5.964   8.492 -0.1878  0.4902 -0.2475
  144SAPE  H19R15818   4.194   5.857   8.509 -0.3497  0.8240  1.9500
  144SAPE  H19S15819   4.305   5.968   8.423 -1.7865  2.7598 -2.2785
  144SAPE  C22015820   4.107   6.045   8.421 -0.6019  0.2658  1.2933
  144SAPE  H20R15821   4.154   6.144   8.401  1.1512 -0.1388  3.0510
  144SAPE  H20S15822   4.009   6.048   8.474 -0.9414  1.7507  0.6331
  144SAPE  H20T15823   4.102   5.997   8.321  0.5650 -0.4222  1.5459
  144SAPE   C3315824   4.307   5.777   9.833  0.7129 -0.2087 -0.2722
  144SAPE   H3X15825   4.218   5.765   9.899 -1.4884 -2.4894 -3.3344
  144SAPE   H3Y15826   4.266   5.720   9.747 -0.0911 -1.6683  1.0265
  144SAPE   C3415827   4.340   5.930   9.806 -0.2507  0.4743 -0.1069
  144SAPE   H4X15828   4.446   5.920   9.774 -0.0818 -0.3011  0.6522
  144SAPE   H4Y15829   4.339   5.984   9.903 -0.9134  1.1076 -0.4540
  144SAPE   C3515830   4.257   6.006   9.697  0.2036 -0.2538 -0.1224
  144SAPE   H5X15831   4.284   6.112   9.678 -1.2342  0.0267 -0.8196
  144SAPE   H5Y15832   4.151   5.997   9.729  0.5064 -1.1759  0.6608
  144SAPE   C3615833   4.263   5.948   9.557  0.7584 -0.0504 -0.4095
  144SAPE   H6X15834   4.254   5.837   9.565  1.7441 -0.1210 -0.1450
  144SAPE   H6Y15835   4.362   5.969   9.510  0.6436  2.5302  0.3818
  144SAPE   C3715836   4.145   5.994   9.473  0.2365 -0.2624  1.0080
  144SAPE   H7X15837   4.147   6.105   9.477  1.0528 -0.1324 -1.3602
  144SAPE   H7Y15838   4.053   5.957   9.524 -0.5929 -0.1407 -0.3440
  144SAPE   C3815839   4.139   5.956   9.325 -0.1709 -0.0232 -0.3166
  144SAPE   H8X15840   4.106   5.851   9.307 -0.4170  0.2981 -1.9326
  144SAPE   H8Y15841   4.243   5.970   9.288 -0.2399  1.5510  0.0146
  144SAPE   C3915842   4.032   6.045   9.248  0.4024  0.8591  0.3849
  144SAPE   H9X15843   4.062   6.151   9.264  1.4984  0.4319  1.3893
  144SAPE   H9Y15844   3.937   6.016   9.297 -0.0291 -0.5554 -1.1898
  144SAPE  C31015845   4.021   6.000   9.100 -0.3284  0.1777  0.6551
  144SAPE  H10X15846   4.119   5.989   9.048 -1.4156 -1.5759 -1.1414
  144SAPE  H10Y15847   3.972   6.085   9.047  1.1937  0.2219 -0.7606
  144SAPE  C31115848   3.949   5.868   9.075 -0.2666 -0.3483  1.1799
  144SAPE  H11X15849   3.862   5.859   9.144 -3.8742  0.3033 -2.8427
  144SAPE  H11Y15850   4.018   5.791   9.114  0.7309  0.3779  0.8946
  144SAPE  C31215851   3.899   5.845   8.933 -0.2368 -0.0387  0.1635
  144SAPE  H12X15852   3.980   5.841   8.857  0.2621 -1.0572  0.7210
  144SAPE  H12Y15853   3.831   5.931   8.914  0.6145  0.4689 -0.6354
  144SAPE  C31315854   3.822   5.710   8.915 -0.9466 -0.8812  0.0179
  144SAPE  H13X15855   3.757   5.694   9.004 -0.7254  1.4649  0.6710
  144SAPE  H13Y15856   3.901   5.633   8.927 -0.6961 -0.5448  0.5731
  144SAPE  C31415857   3.739   5.695   8.790 -0.5097 -0.1752 -0.1319
  144SAPE  H14X15858   3.677   5.783   8.763  1.6486  0.8257 -2.1922
  144SAPE  H14Y15859   3.669   5.612   8.816 -0.9828 -0.5150 -2.3449
  144SAPE  C31515860   3.819   5.657   8.669 -0.4318  0.4793  0.2760
  144SAPE  H15X15861   3.875   5.561   8.675  0.9532  1.1339 -1.3047
  144SAPE  H15Y15862   3.895   5.739   8.662  1.0189 -0.7558  0.9085
  144SAPE  C31615863   3.737   5.661   8.529 -0.1744  0.5906 -0.2457
  144SAPE  H16X15864   3.801   5.667   8.438  0.2558 -1.5024 -0.1273
  144SAPE  H16Y15865   3.676   5.754   8.530 -0.2978  0.5096 -0.2582
  144SAPE  C31715866   3.633   5.544   8.525 -0.1134  0.2539  0.2548
  144SAPE  H17X15867   3.573   5.559   8.617  1.4431 -0.9085  1.5150
  144SAPE  H17Y15868   3.684   5.447   8.539 -1.7212 -0.5984  0.4358
  144SAPE  C31815869   3.561   5.539   8.394  0.3204 -0.4122  0.4401
  144SAPE  H18X15870   3.510   5.637   8.379  0.4612  0.2348  3.5136
  144SAPE  H18Y15871   3.486   5.457   8.393 -1.4484  1.1142 -1.3755
  144SAPE  H18Z15872   3.629   5.526   8.308  0.6228 -1.3736  0.8129
  145SAPE     N15873   1.633   0.818  10.321 -0.4097  0.2926 -0.6974
  145SAPE   HN115874   1.542   0.796  10.276 -1.2355 -0.5260  1.2873
  145SAPE   HN215875   1.654   0.742  10.389 -0.1368 -0.2628 -1.3878
  145SAPE   HN315876   1.601   0.901  10.374 -1.8870 -0.5707 -0.1896
  145SAPE   C1215877   1.753   0.826  10.237  0.0682 -0.7649 -0.0593
  145SAPE  H12A15878   1.783   0.933  10.238 -1.1296 -0.4141  0.1355
  145SAPE  H12B15879   1.721   0.790  10.137 -1.6797 -0.6266  0.4015
  145SAPE   C1115880   1.864   0.741  10.294 -0.3378  0.4984 -0.1463
  145SAPE  H11A15881   1.933   0.727  10.208  1.1505  1.2748  0.8825
  145SAPE  H11B15882   1.816   0.647  10.328 -3.3561  1.7424 -0.6698
  145SAPE     P15883   2.067   0.733  10.438 -0.3416  0.2672  0.0216
  145SAPE   O1315884   2.132   0.794  10.561 -0.4133  0.1790  0.0474
  145SAPE   O1415885   2.063   0.585  10.440  0.4092 -0.2572  0.3334
  145SAPE   O1215886   1.931   0.801  10.409  0.2727  0.1980 -0.5445
  145SAPE   O1115887   2.150   0.772  10.309 -1.0690 -0.3874  0.0063
  145SAPE    C115888   2.191   0.904  10.279 -0.2558  0.0607 -0.1169
  145SAPE    HA15889   2.140   0.983  10.338 -0.4133  1.2406 -1.7663
  145SAPE    HB15890   2.301   0.902  10.296  0.2239 -0.3400 -2.7566
  145SAPE    C215891   2.172   0.954  10.125 -0.8059 -0.5082  0.1555
  145SAPE    HS15892   2.070   0.928  10.088 -0.3702  0.1478 -1.5970
  145SAPE   O2115893   2.274   0.885  10.053  0.1400 -0.2055  0.0847
  145SAPE   C2115894   2.237   0.804   9.955  0.5531  0.6034 -0.6398
  145SAPE   O2215895   2.126   0.781   9.908  0.1784 -0.1282  0.7465
  145SAPE   C2215896   2.363   0.741   9.902 -0.3107  0.2936  0.0489
  145SAPE   H2R15897   2.414   0.794   9.819  1.6036  1.8763  2.0952
  145SAPE   H2S15898   2.443   0.734   9.980 -0.7468 -0.5025  0.4477
  145SAPE    C315899   2.194   1.109  10.108  0.6733 -0.4699 -0.5133
  145SAPE    HX15900   2.302   1.132  10.123  1.4702 -1.9763 -3.2421
  145SAPE    HY15901   2.128   1.157  10.184 -0.2372 -4.0603  1.1590
  145SAPE   O3115902   2.164   1.152   9.967 -0.3522 -0.6858 -0.0043
  145SAPE   C3115903   2.048   1.192   9.947 -0.2007 -1.1610  0.4930
  145SAPE   O3215904   1.956   1.202  10.026  0.3207 -0.2532 -0.1160
  145SAPE   C3215905   2.044   1.251   9.800 -0.1608 -0.0752 -0.5343
  145SAPE   H2X15906   2.141   1.294   9.766 -1.5820  2.5249 -1.5391
  145SAPE   H2Y15907   1.974   1.337   9.803 -1.1597 -0.8604 -0.6351
  145SAPE   C2315908   2.346   0.597   9.850 -0.0572  0.2156  0.2691
  145SAPE   H3R15909   2.253   0.598   9.789  0.3457 -3.4206 -0.6642
  145SAPE   H3S15910   2.329   0.526   9.934 -0.0654 -0.7581 -0.5262
  145SAPE   C2415911   2.456   0.551   9.757 -0.0386 -0.2741  0.3668
  145SAPE   H4R15912   2.552   0.551   9.814  1.4674  2.1259 -1.9239
  145SAPE   H4S15913   2.469   0.624   9.675  4.5727 -1.2366 -0.0449
  145SAPE   C2515914   2.413   0.417   9.703 -0.4579 -0.1821  0.0416
  145SAPE   H5R15915   2.341   0.365   9.767 -1.5516  0.4960 -0.6046
  145SAPE   C2615916   2.453   0.370   9.583  0.2535  0.0868 -0.6743
  145SAPE   H6R15917   2.401   0.282   9.543  0.1724  0.5913 -1.7292
  145SAPE   C2715918   2.544   0.460   9.495 -0.5017  0.4298 -0.3795
  145SAPE   H7R15919   2.630   0.490   9.558 -0.4826 -3.8446  2.0097
  145SAPE   H7S15920   2.496   0.555   9.463 -0.1931  0.8204  0.3062
  145SAPE   C2815921   2.596   0.401   9.365  0.0962  0.0152 -0.5780
  145SAPE   H8R15922   2.673   0.326   9.386 -0.7870 -1.0138 -0.9591
  145SAPE   C2915923   2.556   0.429   9.239  0.2919 -0.0862 -0.2771
  145SAPE   H9R15924   2.602   0.380   9.152  1.7290  0.5322  0.0942
  145SAPE  C21015925   2.443   0.523   9.198 -0.3825  0.0260  0.3060
  145SAPE  H10R15926   2.463   0.621   9.245 -0.1510 -0.0720  0.4195
  145SAPE  H10S15927   2.353   0.486   9.251  1.4885 -2.4423  2.0233
  145SAPE  C21115928   2.422   0.547   9.049  0.2536 -0.0160 -0.5732
  145SAPE  H11R15929   2.496   0.615   9.003  0.0137  1.3763  1.0325
  145SAPE  C21215930   2.321   0.495   8.968 -0.2094 -0.4246 -0.1913
  145SAPE  H12R15931   2.308   0.531   8.865  2.4743  0.6551 -0.2417
  145SAPE  C21315932   2.216   0.394   9.019 -0.3842 -0.3784 -0.7354
  145SAPE  H13R15933   2.113   0.434   9.005 -0.8838 -1.5749 -0.5935
  145SAPE  H13S15934   2.230   0.364   9.125  0.6496  0.9475 -0.4675
  145SAPE  C21415935   2.214   0.257   8.960 -0.2793  0.3577 -0.3382
  145SAPE  H14R15936   2.273   0.178   9.009 -0.1210  0.3272 -0.5799
  145SAPE  C21515937   2.163   0.222   8.844 -0.1174 -0.2077 -0.2672
  145SAPE  H15R15938   2.187   0.125   8.797  1.3337  0.6355 -1.3805
  145SAPE  C21615939   2.092   0.333   8.766  0.1630  0.4009  1.0750
  145SAPE  H16R15940   2.097   0.440   8.796  2.7687  0.6309  0.1405
  145SAPE  H16S15941   1.983   0.313   8.775  0.0058  0.1942 -0.8399
  145SAPE  C21715942   2.123   0.341   8.609 -0.3320  0.9913 -0.6127
  145SAPE  H17R15943   2.104   0.238   8.572  0.5240  0.4680  0.3654
  145SAPE  H17S15944   2.232   0.353   8.590  0.0478 -0.0694  0.7534
  145SAPE  C21815945   2.049   0.456   8.531  0.3294 -0.3489  0.4730
  145SAPE  H18R15946   1.942   0.433   8.544  0.1138  1.0056  1.2455
  145SAPE  H18S15947   2.080   0.443   8.425 -1.4601  0.7924 -0.2371
  145SAPE  C21915948   2.071   0.600   8.578 -0.2104 -0.6226  0.4267
  145SAPE  H19R15949   2.030   0.600   8.681  1.7010 -0.0899  1.2333
  145SAPE  H19S15950   1.999   0.655   8.514  0.4689 -1.3891 -1.0560
  145SAPE  C22015951   2.207   0.663   8.566  0.0591 -0.4513 -0.0293
  145SAPE  H20R15952   2.208   0.773   8.583 -1.0201 -0.2356 -1.2697
  145SAPE  H20S15953   2.254   0.642   8.468  0.0142  0.7930 -0.3368
  145SAPE  H20T15954   2.266   0.615   8.647 -0.2255  1.2249  1.2353
  145SAPE   C3315955   1.978   1.155   9.698 -0.2334 -0.2450  0.3383
  145SAPE   H3X15956   1.892   1.105   9.748  1.3892 -0.8310  2.6907
  145SAPE   H3Y15957   2.050   1.074   9.672 -0.2392 -0.2748  0.4158
  145SAPE   C3415958   1.925   1.203   9.562  0.2375  0.0023 -0.7201
  145SAPE   H4X15959   1.837   1.271   9.573  0.9856  0.9167 -0.1899
  145SAPE   H4Y15960   1.887   1.113   9.510 -1.1687  0.5359 -0.6658
  145SAPE   C3515961   2.030   1.285   9.491 -0.0195  0.3614 -0.2018
  145SAPE   H5X15962   2.121   1.224   9.472 -0.0578 -0.2011  1.2925
  145SAPE   H5Y15963   2.052   1.387   9.529 -3.1192  0.9666  0.1758
  145SAPE   C3615964   1.996   1.302   9.346  0.9829  0.1579  0.7523
  145SAPE   H6X15965   1.885   1.308   9.334  0.8955 -1.7549  0.2353
  145SAPE   H6Y15966   2.020   1.205   9.297 -0.8207  0.2136 -0.3530
  145SAPE   C3715967   2.070   1.413   9.267  0.2172 -0.1798  0.5362
  145SAPE   H7X15968   2.177   1.418   9.294 -0.3992 -1.4681  3.5818
  145SAPE   H7Y15969   2.022   1.507   9.303  0.4795  0.2976 -0.3313
  145SAPE   C3815970   2.066   1.404   9.117  1.1155  0.2628  0.2578
  145SAPE   H8X15971   2.115   1.313   9.077  0.1518  0.7613 -2.2733
  145SAPE   H8Y15972   2.129   1.483   9.070 -0.7672  3.0591  2.1176
  145SAPE   C3915973   1.919   1.417   9.053 -0.3244 -0.2265 -0.3836
  145SAPE   H9X15974   1.887   1.516   9.092 -0.5328 -0.6430  0.5198
  145SAPE   H9Y15975   1.845   1.345   9.092 -3.2681  3.0119  0.5451
  145SAPE  C31015976   1.925   1.408   8.903  0.6746 -0.2528 -0.9554
  145SAPE  H10X15977   1.817   1.392   8.883  0.0149 -3.8700  3.7128
  145SAPE  H10Y15978   1.967   1.314   8.862  0.4505 -0.5017 -0.6216
  145SAPE  C31115979   1.988   1.531   8.835  0.0442 -0.1530 -0.2087
  145SAPE  H11X15980   2.095   1.544   8.861  0.4999  0.2657 -2.1078
  145SAPE  H11Y15981   1.932   1.615   8.882 -3.5113 -3.5701  2.2133
  145SAPE  C31215982   1.977   1.534   8.679  0.7688 -0.4683 -0.3313
  145SAPE  H12X15983   1.868   1.527   8.658  0.0120  0.7298  2.6309
  145SAPE  H12Y15984   2.030   1.451   8.627  3.9561  1.4096 -0.3439
  145SAPE  C31315985   2.022   1.670   8.616  0.2709  0.4431  0.1920
  145SAPE  H13X15986   2.106   1.706   8.680  0.3153  0.7677 -0.0481
  145SAPE  H13Y15987   1.939   1.743   8.609 -2.2156 -2.0992  1.3047
  145SAPE  C31415988   2.064   1.647   8.469 -0.2052  0.4058  0.1083
  145SAPE  H14X15989   1.982   1.597   8.413 -0.0653  1.7905 -1.4090
  145SAPE  H14Y15990   2.149   1.575   8.462 -0.1169 -0.0976  3.9569
  145SAPE  C31515991   2.079   1.777   8.402  0.5511  0.3934 -0.2458
  145SAPE  H15X15992   2.147   1.843   8.460  1.0340 -0.2012 -0.1257
  145SAPE  H15Y15993   1.977   1.822   8.401  0.2448 -0.2704 -0.0576
  145SAPE  C31615994   2.132   1.754   8.261 -0.7166  0.1611  0.3195
  145SAPE  H16X15995   2.066   1.676   8.219 -1.9458  1.3314 -0.0063
  145SAPE  H16Y15996   2.238   1.723   8.263 -0.1450  1.8761 -0.5894
  145SAPE  C31715997   2.115   1.877   8.175  0.3697  0.2851 -0.2356
  145SAPE  H17X15998   2.145   1.967   8.233  1.9555 -0.3687  0.0179
  145SAPE  H17Y15999   2.008   1.893   8.151 -0.5680 -0.7217  2.8081
  145SAPE  C31816000   2.180   1.864   8.038  0.4873 -0.0845  0.1814
  145SAPE  H18X16001   2.149   1.773   7.984  0.4509  0.6632 -1.0968
  145SAPE  H18Y16002   2.289   1.854   8.057  0.1889 -1.1129  1.5009
  145SAPE  H18Z16003   2.186   1.949   7.967  2.5471 -1.2467 -1.1240
  146SAPE     N16004   0.059   6.234  10.473 -0.1427  0.3469  0.6950
  146SAPE   HN116005   0.116   6.254  10.557 -0.1714  1.1599  0.5321
  146SAPE   HN216006  -0.035   6.278  10.483  0.3538  1.7253 -0.2653
  146SAPE   HN316007   0.052   6.131  10.460 -1.0492  0.5669 -0.9504
  146SAPE   C1216008   0.140   6.301  10.360  0.2047 -0.2510 -0.2293
  146SAPE  H12A16009   0.242   6.258  10.365  0.7166  1.0900  2.0686
  146SAPE  H12B16010   0.148   6.409  10.382  2.2830 -0.2363 -0.8328
  146SAPE   C1116011   0.064   6.269  10.229  0.0974  0.1346  0.0471
  146SAPE  H11A16012   0.035   6.162  10.227  0.8134 -0.0536 -0.4871
  146SAPE  H11B16013   0.140   6.284  10.149  1.7794  0.3138  1.6186
  146SAPE     P16014  -0.196   6.306  10.169  0.3181 -0.1784 -0.1298
  146SAPE   O1316015  -0.248   6.227  10.279  0.0696  0.2262 -0.2691
  146SAPE   O1416016  -0.283   6.419  10.138  0.1936  0.1249 -0.9850
  146SAPE   O1216017  -0.045   6.355  10.198 -0.0746 -0.2298  0.1054
  146SAPE   O1116018  -0.180   6.209  10.048 -0.3344 -0.2946  0.6559
  146SAPE    C116019  -0.100   6.226   9.937 -0.7857 -0.2656  0.0532
  146SAPE    HA16020  -0.025   6.308   9.942 -0.9571 -0.0617 -0.6781
  146SAPE    HB16021  -0.032   6.139   9.931 -3.2520 -2.3775  0.9533
  146SAPE    C216022  -0.187   6.255   9.812  0.1513  0.0158  0.7176
  146SAPE    HS16023  -0.279   6.192   9.818  1.3716 -1.9709 -0.2609
  146SAPE   O2116024  -0.115   6.217   9.694  0.4388 -0.2958  0.0591
  146SAPE   C2116025  -0.102   6.089   9.676 -0.4290 -0.2803  0.2288
  146SAPE   O2216026  -0.166   5.997   9.725  0.2464  0.1176 -0.0779
  146SAPE   C2216027   0.009   6.067   9.564  0.4801 -0.0495  0.3545
  146SAPE   H2R16028  -0.024   6.138   9.486 -0.2076  2.0600  2.4517
  146SAPE   H2S16029   0.100   6.095   9.622  1.3125 -0.8507 -0.5177
  146SAPE    C316030  -0.223   6.403   9.810  0.0458  0.2972  0.5916
  146SAPE    HX16031  -0.132   6.464   9.821  1.5676 -2.0386  1.6117
  146SAPE    HY16032  -0.284   6.427   9.899 -0.1416 -0.0772  0.5649
  146SAPE   O3116033  -0.303   6.438   9.691 -0.0293 -0.0218  0.3907
  146SAPE   C3116034  -0.275   6.537   9.618 -0.1253 -0.1183 -0.0487
  146SAPE   O3216035  -0.188   6.622   9.635 -0.1969 -0.2386  0.0935
  146SAPE   C3216036  -0.383   6.539   9.509 -0.7257  0.1378  0.3601
  146SAPE   H2X16037  -0.455   6.622   9.528  0.1745  1.6890 -2.4614
  146SAPE   H2Y16038  -0.435   6.441   9.520 -0.6634  0.0603 -0.0166
  146SAPE   C2316039   0.014   5.930   9.492  0.0511 -0.2916  0.2265
  146SAPE   H3R16040   0.033   5.849   9.565 -1.0333 -1.4698 -0.7593
  146SAPE   H3S16041   0.106   5.928   9.429  1.9877 -3.4995  2.8515
  146SAPE   C2416042  -0.103   5.888   9.400  0.5240  0.7284 -0.2079
  146SAPE   H4R16043  -0.126   5.962   9.321 -1.5846 -0.8502 -1.1978
  146SAPE   H4S16044  -0.191   5.882   9.468  1.9862 -0.0811  1.6819
  146SAPE   C2516045  -0.082   5.759   9.333 -0.6324  1.1326 -0.2107
  146SAPE   H5R16046  -0.133   5.674   9.382  0.3840 -0.1306 -1.2760
  146SAPE   C2616047  -0.035   5.738   9.208  0.5253 -0.6453 -0.5153
  146SAPE   H6R16048  -0.038   5.637   9.166 -3.2717 -0.8932 -0.0698
  146SAPE   C2716049   0.036   5.847   9.132 -0.4085  0.5555  0.0253
  146SAPE   H7R16050   0.085   5.923   9.197 -0.2900  2.1493 -1.8562
  146SAPE   H7S16051  -0.031   5.904   9.064 -1.2158 -0.1111  0.2394
  146SAPE   C2816052   0.150   5.786   9.057  0.8589  0.0195  0.3158
  146SAPE   H8R16053   0.209   5.716   9.117 -0.5087 -0.1571  1.5192
  146SAPE   C2916054   0.192   5.827   8.938 -0.3861  0.7405  0.0392
  146SAPE   H9R16055   0.270   5.772   8.884 -0.3808  0.5763  0.2135
  146SAPE  C21016056   0.107   5.914   8.854 -0.5183  0.5931 -0.1642
  146SAPE  H10R16057   0.097   6.008   8.912 -1.7787  0.0499  0.5400
  146SAPE  H10S16058   0.005   5.870   8.856 -0.4687  0.1273 -3.0143
  146SAPE  C21116059   0.130   5.942   8.705 -1.5813  0.5257 -0.2822
  146SAPE  H11R16060   0.150   6.045   8.671 -2.5683  1.0825  0.7594
  146SAPE  C21216061   0.132   5.856   8.603 -0.1781  0.1472 -0.2713
  146SAPE  H12R16062   0.140   5.901   8.503 -0.0440 -0.9374 -0.7618
  146SAPE  C21316063   0.107   5.707   8.609 -0.4520 -0.4312 -0.2793
  146SAPE  H13R16064   0.084   5.678   8.713 -1.1185 -0.0185 -0.3037
  146SAPE  H13S16065   0.203   5.667   8.568 -0.9182 -1.2877 -0.5656
  146SAPE  C21416066  -0.005   5.680   8.512 -0.1632 -0.1636 -0.1769
  146SAPE  H14R16067  -0.091   5.748   8.523  0.5666  0.8249 -0.4022
  146SAPE  C21516068  -0.008   5.595   8.407  0.6386  0.4053 -0.2428
  146SAPE  H15R16069  -0.105   5.576   8.359 -0.3006 -1.1401  2.0897
  146SAPE  C21616070   0.099   5.490   8.375 -0.2995  0.7285  0.1860
  146SAPE  H16R16071   0.060   5.389   8.399 -2.5082  1.1944 -1.1906
  146SAPE  H16S16072   0.182   5.503   8.449 -1.3791 -0.9916  1.7976
  146SAPE  C21716073   0.141   5.515   8.233  0.2641  0.1696  0.9007
  146SAPE  H17R16074   0.225   5.446   8.209  0.2404  0.9702 -1.7779
  146SAPE  H17S16075   0.176   5.620   8.227 -1.5353  0.7498 -0.0906
  146SAPE  C21816076   0.034   5.495   8.127  0.2509 -0.6610 -0.5064
  146SAPE  H18R16077  -0.013   5.593   8.106 -1.1043 -1.1940 -0.0324
  146SAPE  H18S16078  -0.049   5.431   8.165 -0.6955  0.9459  0.2121
  146SAPE  C21916079   0.082   5.449   7.997 -0.0554  0.1606  0.9316
  146SAPE  H19R16080   0.144   5.358   8.001  1.8636  1.3309 -0.2468
  146SAPE  H19S16081   0.156   5.527   7.968 -0.2684  0.8326  2.1273
  146SAPE  C22016082  -0.022   5.438   7.883  0.6604 -0.5562  0.0071
  146SAPE  H20R16083  -0.074   5.535   7.870 -0.6133 -1.3387 -1.0504
  146SAPE  H20S16084  -0.094   5.361   7.918  0.0873  0.5141  1.2352
  146SAPE  H20T16085   0.030   5.423   7.785  0.6901  3.2092 -0.7300
  146SAPE   C3316086  -0.318   6.566   9.367 -0.1096  0.1301 -0.0819
  146SAPE   H3X16087  -0.246   6.650   9.374 -0.2491  0.1593  1.1825
  146SAPE   H3Y16088  -0.400   6.589   9.296  1.5369  2.0582 -1.4838
  146SAPE   C3416089  -0.241   6.447   9.310 -0.0808  0.2558  0.1568
  146SAPE   H4X16090  -0.305   6.359   9.332 -1.5588  1.3780  0.5329
  146SAPE   H4Y16091  -0.153   6.430   9.375 -0.2059 -1.4025 -0.0800
  146SAPE   C3516092  -0.206   6.462   9.162 -0.2908 -0.0586 -0.3689
  146SAPE   H5X16093  -0.140   6.374   9.142  2.1510  1.5314  0.3445
  146SAPE   H5Y16094  -0.143   6.551   9.144 -1.7322  0.7776 -1.4971
  146SAPE   C3616095  -0.330   6.457   9.066  0.7542 -0.2324 -0.4495
  146SAPE   H6X16096  -0.414   6.523   9.096  1.4780  0.6921 -0.4012
  146SAPE   H6Y16097  -0.364   6.352   9.066 -1.6566  0.4712  0.7524
  146SAPE   C3716098  -0.295   6.492   8.911  0.2341  0.4053 -0.1952
  146SAPE   H7X16099  -0.207   6.436   8.872 -1.2889 -0.9474 -1.8848
  146SAPE   H7Y16100  -0.268   6.598   8.894 -0.8975  0.4295 -2.2102
  146SAPE   C3816101  -0.399   6.443   8.808  0.4704  0.6291  0.1336
  146SAPE   H8X16102  -0.482   6.515   8.822  1.7123  2.1955 -0.2695
  146SAPE   H8Y16103  -0.441   6.346   8.844 -0.3288  0.4998 -1.0912
  146SAPE   C3916104  -0.348   6.436   8.667  0.0874 -0.6151  0.1829
  146SAPE   H9X16105  -0.436   6.413   8.602  1.1028 -1.4261 -0.9629
  146SAPE   H9Y16106  -0.257   6.375   8.650  0.3031 -0.1981 -0.1839
  146SAPE  C31016107  -0.298   6.571   8.608  0.1788  0.1514 -0.0600
  146SAPE  H10X16108  -0.205   6.602   8.660 -0.2656 -3.2543  3.1401
  146SAPE  H10Y16109  -0.370   6.655   8.621  1.0355  0.9381 -0.2702
  146SAPE  C31116110  -0.273   6.562   8.450 -0.3277  0.2415 -0.0764
  146SAPE  H11X16111  -0.301   6.661   8.410  0.5501  0.4661 -0.1435
  146SAPE  H11Y16112  -0.341   6.489   8.401 -1.9949 -1.1232  3.8414
  146SAPE  C31216113  -0.122   6.547   8.420  0.5300  0.2311  0.2725
  146SAPE  H12X16114  -0.081   6.448   8.450  0.4848 -0.6200 -2.2246
  146SAPE  H12Y16115  -0.055   6.624   8.462 -0.5303  1.0155  0.5735
  146SAPE  C31316116  -0.095   6.553   8.268 -0.0756 -0.1928 -0.4246
  146SAPE  H13X16117   0.004   6.597   8.247 -0.6901  1.7737  0.5439
  146SAPE  H13Y16118  -0.167   6.625   8.224  0.3849  0.1829 -0.5682
  146SAPE  C31416119  -0.126   6.419   8.199  0.4770  0.0182 -0.4460
  146SAPE  H14X16120  -0.216   6.372   8.243  0.7279  1.6258  1.9414
  146SAPE  H14Y16121  -0.036   6.358   8.220 -1.0812 -2.3744 -0.3354
  146SAPE  C31516122  -0.136   6.446   8.048 -0.2066 -0.1130 -0.4463
  146SAPE  H15X16123  -0.075   6.533   8.015 -2.1222  0.2491 -3.3855
  146SAPE  H15Y16124  -0.242   6.465   8.023 -0.6853 -0.4420  1.2139
  146SAPE  C31616125  -0.065   6.325   7.978 -0.2880  0.6850 -0.3339
  146SAPE  H16X16126  -0.081   6.306   7.870 -0.0162  0.6074 -0.3612
  146SAPE  H16Y16127  -0.107   6.235   8.029  0.2688  0.3484 -0.4622
  146SAPE  C31716128   0.085   6.325   7.978  0.3226 -0.5874  0.4367
  146SAPE  H17X16129   0.123   6.325   8.082 -1.8156  2.0200  1.3228
  146SAPE  H17Y16130   0.116   6.415   7.921  0.1572 -0.0754  1.1402
  146SAPE  C31816131   0.145   6.204   7.904  0.3053 -0.5993  0.3625
  146SAPE  H18X16132   0.256   6.213   7.892  0.4516  2.1348  2.7064
  146SAPE  H18Y16133   0.118   6.194   7.797 -0.2100 -0.8021  0.5111
  146SAPE  H18Z16134   0.109   6.118   7.965  0.1487  1.3664  3.2366
  147SAPE     N16135   5.334   5.878   6.315 -0.2515 -0.3705 -0.5064
  147SAPE   HN116136   5.276   5.898   6.399  0.4745 -2.0900  0.4545
  147SAPE   HN216137   5.360   5.962   6.260  0.2415 -1.1483 -1.5034
  147SAPE   HN316138   5.270   5.823   6.253 -1.9715  1.2653 -0.2803
  147SAPE   C1216139   5.447   5.801   6.359 -0.3776 -0.1537 -0.0040
  147SAPE  H12A16140   5.504   5.865   6.429  2.3459 -2.6466  0.2551
  147SAPE  H12B16141   5.517   5.779   6.275 -0.3652 -1.2619  0.2822
  147SAPE   C1116142   5.408   5.668   6.422  0.9737  0.3163  0.5080
  147SAPE  H11A16143   5.364   5.602   6.344  1.6277 -0.1525  0.5290
  147SAPE  H11B16144   5.333   5.673   6.504 -0.4989 -1.5157 -0.6454
  147SAPE     P16145   5.591   5.476   6.397 -0.1866 -0.5015 -0.0093
  147SAPE   O1316146   5.595   5.484   6.249 -0.2825  0.4535 -0.5715
  147SAPE   O1416147   5.719   5.457   6.466  0.2237  0.1692 -0.1293
  147SAPE   O1216148   5.523   5.605   6.467 -0.4862 -0.3786 -0.4208
  147SAPE   O1116149   5.489   5.359   6.437 -0.2492 -0.1560  0.0242
  147SAPE    C116150   5.437   5.355   6.568  0.3993  0.0876 -0.3477
  147SAPE    HA16151   5.433   5.454   6.618  2.1196  0.2198 -0.4180
  147SAPE    HB16152   5.329   5.331   6.572  0.6929 -1.1624  0.5433
  147SAPE    C216153   5.495   5.242   6.659  0.2226  0.2649  0.2420
  147SAPE    HS16154   5.443   5.242   6.757 -1.1837 -0.7501 -0.4636
  147SAPE   O2116155   5.635   5.252   6.682  0.2358  0.9250  0.5425
  147SAPE   C2116156   5.663   5.357   6.759 -0.0620  0.4718  0.7863
  147SAPE   O2216157   5.575   5.433   6.806 -0.0733  0.4107 -0.1136
  147SAPE   C2216158   5.816   5.374   6.771 -0.3391 -1.0918  0.7671
  147SAPE   H2R16159   5.850   5.276   6.811 -2.6015 -1.7827  1.1162
  147SAPE   H2S16160   5.851   5.389   6.667 -1.3136 -0.0620  0.5687
  147SAPE    C316161   5.471   5.097   6.600  0.5123  0.4261  0.1891
  147SAPE    HX16162   5.525   5.025   6.665  1.7850  0.5124 -0.7353
  147SAPE    HY16163   5.516   5.091   6.498  1.5187 -0.1291  0.6478
  147SAPE   O3116164   5.329   5.080   6.595  0.1640 -0.2565  0.7163
  147SAPE   C3116165   5.268   4.998   6.676  0.7681  0.1541  0.2682
  147SAPE   O3216166   5.319   4.935   6.766 -1.1154 -0.1360  0.2113
  147SAPE   C3216167   5.119   4.978   6.631 -0.4084  0.0856 -0.5415
  147SAPE   H2X16168   5.078   4.906   6.705  1.3551 -0.0869  0.3377
  147SAPE   H2Y16169   5.124   4.920   6.537  2.1263 -0.2449 -0.2717
  147SAPE   C2316170   5.859   5.492   6.862  0.5300  0.6799 -0.3902
  147SAPE   H3R16171   5.797   5.499   6.953  1.9855  0.0813  0.6860
  147SAPE   H3S16172   5.844   5.588   6.809  0.5920  0.7835 -0.2198
  147SAPE   C2416173   6.008   5.483   6.909 -0.6185  0.1669  0.1262
  147SAPE   H4R16174   6.023   5.570   6.977  0.9948 -1.2931  1.7265
  147SAPE   H4S16175   6.066   5.513   6.819 -0.4677 -0.5053 -0.0058
  147SAPE   C2516176   6.064   5.358   6.965 -0.4506 -0.1343  0.4523
  147SAPE   H5R16177   6.121   5.305   6.888  1.7928  0.3847  1.6699
  147SAPE   C2616178   6.058   5.305   7.085  0.1996 -1.0011  0.4301
  147SAPE   H6R16179   6.100   5.208   7.114 -1.2012 -0.6022  4.3394
  147SAPE   C2716180   5.982   5.374   7.194  0.4568 -0.3800 -0.2803
  147SAPE   H7R16181   5.943   5.307   7.274 -0.7795  1.7695  1.0061
  147SAPE   H7S16182   5.887   5.412   7.152  0.9415  1.6669  0.3546
  147SAPE   C2816183   6.057   5.491   7.259 -0.9414  1.1229 -0.0820
  147SAPE   H8R16184   6.150   5.521   7.208 -1.6998  2.1691 -0.8933
  147SAPE   C2916185   6.009   5.559   7.367  0.0715 -0.2096  0.1970
  147SAPE   H9R16186   6.074   5.640   7.404  0.5544 -0.6909  0.4280
  147SAPE  C21016187   5.880   5.536   7.443 -0.5873 -0.3309 -0.1099
  147SAPE  H10R16188   5.862   5.428   7.463 -0.9309  0.1544  2.6771
  147SAPE  H10S16189   5.799   5.578   7.379  2.2966  1.6998 -2.7599
  147SAPE  C21116190   5.874   5.595   7.583  0.0999  0.1741 -0.0052
  147SAPE  H11R16191   5.809   5.683   7.599  1.9450  1.4765  0.7543
  147SAPE  C21216192   5.955   5.558   7.686  0.5242 -0.0441  0.2576
  147SAPE  H12R16193   5.934   5.618   7.775  0.1373 -0.3445  0.3764
  147SAPE  C21316194   6.058   5.447   7.676 -0.6827 -1.0868 -0.2379
  147SAPE  H13R16195   6.114   5.458   7.772 -1.0542 -0.8788 -0.0419
  147SAPE  H13S16196   6.137   5.465   7.601 -0.0093 -2.1213  0.1856
  147SAPE  C21416197   6.003   5.309   7.662  0.1040  0.1189  0.0028
  147SAPE  H14R16198   5.904   5.290   7.707  1.1975 -1.5788  1.8395
  147SAPE  C21516199   6.051   5.201   7.594  0.1717 -1.0341 -0.8884
  147SAPE  H15R16200   5.977   5.123   7.572 -4.5531  2.6373  0.2446
  147SAPE  C21616201   6.184   5.192   7.519  0.3097  0.6853  0.1201
  147SAPE  H16R16202   6.257   5.183   7.602  1.7560 -1.6559 -1.2810
  147SAPE  H16S16203   6.200   5.281   7.455 -2.0063  0.2233 -1.1823
  147SAPE  C21716204   6.186   5.068   7.415 -0.0844  0.4237 -0.8598
  147SAPE  H17R16205   6.286   5.060   7.367  1.1887 -0.7489  1.7380
  147SAPE  H17S16206   6.115   5.100   7.336 -1.9460  0.2714  0.6717
  147SAPE  C21816207   6.162   4.928   7.471  0.1992  0.6523  0.3256
  147SAPE  H18R16208   6.066   4.923   7.528  1.3876  2.6820  2.6852
  147SAPE  H18S16209   6.238   4.900   7.547 -0.9839  1.0402  1.7182
  147SAPE  C21916210   6.150   4.834   7.354 -0.8226 -0.2934  0.3568
  147SAPE  H19R16211   6.236   4.847   7.285  0.8489  0.8999  2.5645
  147SAPE  H19S16212   6.060   4.861   7.294  0.6997 -2.2506 -3.0685
  147SAPE  C22016213   6.146   4.686   7.379  0.1029 -0.0470 -0.6595
  147SAPE  H20R16214   6.247   4.655   7.414  0.1903  0.6525 -0.2543
  147SAPE  H20S16215   6.111   4.627   7.292  0.4062 -1.2483  0.0136
  147SAPE  H20T16216   6.088   4.659   7.470 -2.6610 -0.7163 -2.5230
  147SAPE   C3316217   5.027   5.098   6.620  0.0315 -1.1503  0.6283
  147SAPE   H3X16218   4.934   5.071   6.565 -0.1678  0.4306  0.1357
  147SAPE   H3Y16219   5.080   5.184   6.572  4.6080 -3.0904  1.6328
  147SAPE   C3416220   4.976   5.135   6.758 -0.0055 -0.4058 -0.0962
  147SAPE   H4X16221   5.068   5.165   6.811 -0.5965 -0.3262  0.9198
  147SAPE   H4Y16222   4.931   5.050   6.813  1.4224 -1.1015  0.0417
  147SAPE   C3516223   4.879   5.257   6.763 -0.2167  0.1995  0.0027
  147SAPE   H5X16224   4.775   5.233   6.732 -0.1186 -1.0409  0.5953
  147SAPE   H5Y16225   4.911   5.346   6.705 -3.3466  2.8512  1.9501
  147SAPE   C3616226   4.850   5.304   6.907  0.1106 -0.2146 -0.4342
  147SAPE   H6X16227   4.782   5.392   6.903  0.3852 -0.0481 -1.4970
  147SAPE   H6Y16228   4.934   5.336   6.973 -1.6886  2.2009  0.8594
  147SAPE   C3716229   4.761   5.198   6.974 -0.6710 -1.0985  0.1918
  147SAPE   H7X16230   4.821   5.109   6.998 -0.6398 -1.2755 -0.5091
  147SAPE   H7Y16231   4.675   5.180   6.905  1.5734 -1.4586 -2.7074
  147SAPE   C3816232   4.710   5.251   7.111  0.5126 -0.4340 -0.7353
  147SAPE   H8X16233   4.638   5.175   7.149 -1.0826  1.7738  0.9764
  147SAPE   H8Y16234   4.658   5.349   7.107  0.9522 -0.0481  1.4840
  147SAPE   C3916235   4.826   5.256   7.217 -0.6624 -0.3078 -0.5350
  147SAPE   H9X16236   4.910   5.321   7.186 -1.2123  0.6332 -0.0947
  147SAPE   H9Y16237   4.869   5.153   7.216 -0.1519 -0.0998 -0.1687
  147SAPE  C31016238   4.775   5.302   7.349  0.3973  0.1515 -0.4072
  147SAPE  H10X16239   4.699   5.230   7.386 -0.3052  1.3395  0.5778
  147SAPE  H10Y16240   4.725   5.399   7.328 -1.2374 -0.3152  1.0358
  147SAPE  C31116241   4.891   5.330   7.450 -0.4108  0.5794  0.1602
  147SAPE  H11X16242   4.956   5.400   7.395 -0.5752  0.6197  0.0161
  147SAPE  H11Y16243   4.941   5.235   7.480  1.4378  2.1691  2.4942
  147SAPE  C31216244   4.844   5.388   7.585  0.3883 -0.0487 -0.3932
  147SAPE  H12X16245   4.755   5.330   7.617  0.8859 -0.0991  0.9484
  147SAPE  H12Y16246   4.798   5.488   7.567 -1.0595 -0.4288  0.9756
  147SAPE  C31316247   4.960   5.394   7.693 -0.3650 -0.1579 -0.0771
  147SAPE  H13X16248   5.035   5.474   7.677 -0.7623  0.0122 -1.2234
  147SAPE  H13Y16249   5.022   5.302   7.682 -0.8917 -0.4636 -0.6226
  147SAPE  C31416250   4.918   5.408   7.839 -0.4224 -0.1581  0.0668
  147SAPE  H14X16251   4.851   5.325   7.871  1.2327 -2.0642 -1.2010
  147SAPE  H14Y16252   4.856   5.501   7.844  0.2629  0.2585  1.4473
  147SAPE  C31516253   5.037   5.435   7.936 -0.4543  0.0711  0.1576
  147SAPE  H15X16254   5.086   5.534   7.926 -0.8497  0.5085  2.1120
  147SAPE  H15Y16255   5.105   5.351   7.908 -0.3108  0.3117 -0.2319
  147SAPE  C31616256   5.001   5.422   8.078 -0.0399  0.8248  0.1241
  147SAPE  H16X16257   4.927   5.339   8.087 -0.3214  0.4936 -3.7571
  147SAPE  H16Y16258   4.942   5.512   8.106 -0.3107  0.6909 -0.0133
  147SAPE  C31716259   5.114   5.404   8.173  0.4267 -0.1423  0.0074
  147SAPE  H17X16260   5.190   5.485   8.163 -0.3006  0.4440 -0.8373
  147SAPE  H17Y16261   5.157   5.303   8.152  0.6081 -0.1012  0.1762
  147SAPE  C31816262   5.079   5.402   8.317  0.5096  0.3617  0.1957
  147SAPE  H18X16263   5.018   5.492   8.339  0.3586  1.2058 -3.0956
  147SAPE  H18Y16264   5.168   5.403   8.383  0.3688  0.6373  0.3818
  147SAPE  H18Z16265   5.018   5.313   8.344  0.8253  0.3976  1.0586
  148SAPE     N16266   3.657   5.515   5.402  0.3809 -0.7309  0.6454
  148SAPE   HN116267   3.645   5.582   5.324  2.9280  0.9450  1.5672
  148SAPE   HN216268   3.606   5.427   5.378  0.4638 -0.2470 -1.4657
  148SAPE   HN316269   3.615   5.539   5.494 -0.7627 -2.0352  0.5000
  148SAPE   C1216270   3.801   5.462   5.424  0.5015  0.4262 -0.2986
  148SAPE  H12A16271   3.875   5.540   5.395  0.5613  0.4472 -0.0939
  148SAPE  H12B16272   3.812   5.375   5.355 -0.1532 -1.4171  1.8073
  148SAPE   C1116273   3.832   5.410   5.564  0.3904 -0.2198 -0.4609
  148SAPE  H11A16274   3.834   5.495   5.635  1.2903  0.0664 -0.8144
  148SAPE  H11B16275   3.933   5.364   5.573  1.7068  2.8535  3.2230
  148SAPE     P16276   3.741   5.247   5.738 -0.2241 -0.2921  0.2709
  148SAPE   O1316277   3.611   5.190   5.778 -0.2396 -0.0212 -0.0159
  148SAPE   O1416278   3.857   5.158   5.715 -0.3323 -0.1162  0.0882
  148SAPE   O1216279   3.727   5.320   5.596  0.1809 -0.4992 -0.3189
  148SAPE   O1116280   3.795   5.360   5.838 -0.8796  0.1530  0.1658
  148SAPE    C116281   3.733   5.476   5.891 -0.3306 -0.0563  0.3026
  148SAPE    HA16282   3.788   5.568   5.863  0.1158 -0.8037 -1.3801
  148SAPE    HB16283   3.633   5.483   5.843 -0.0357 -0.7756 -0.4457
  148SAPE    C216284   3.728   5.467   6.045  0.3219 -0.4529  0.2219
  148SAPE    HS16285   3.829   5.457   6.089  0.0795 -0.2174  0.8512
  148SAPE   O2116286   3.648   5.350   6.087 -0.0895 -0.0402  0.4342
  148SAPE   C2116287   3.715   5.254   6.131  0.1649 -0.4844 -0.3173
  148SAPE   O2216288   3.841   5.246   6.146  0.2243 -1.0460  0.2114
  148SAPE   C2216289   3.618   5.148   6.172 -0.1516  0.7532  0.1883
  148SAPE   H2R16290   3.518   5.169   6.130 -1.1729 -0.8996  1.6464
  148SAPE   H2S16291   3.646   5.051   6.126  2.1903  1.3859  0.1294
  148SAPE    C316292   3.660   5.591   6.112  0.1701 -0.6530 -0.3213
  148SAPE    HX16293   3.558   5.597   6.069 -0.2685 -3.2711  0.1955
  148SAPE    HY16294   3.730   5.676   6.098  1.0598 -1.2191  0.5483
  148SAPE   O3116295   3.661   5.576   6.254 -0.0473  0.6214 -0.7031
  148SAPE   C3116296   3.567   5.658   6.319 -0.3736  0.8663  1.0356
  148SAPE   O3216297   3.501   5.742   6.258 -0.1597 -0.3970  0.5754
  148SAPE   C3216298   3.560   5.620   6.468 -0.6091  0.1742  0.5424
  148SAPE   H2X16299   3.663   5.611   6.508 -0.4873  0.5501  0.3119
  148SAPE   H2Y16300   3.497   5.529   6.481 -0.4682  0.2852  2.2589
  148SAPE   C2316301   3.605   5.115   6.325 -0.2730 -0.0079 -0.1870
  148SAPE   H3R16302   3.704   5.139   6.368 -1.0323  2.5257  0.2930
  148SAPE   H3S16303   3.561   5.014   6.343 -2.3610  0.7902 -0.5546
  148SAPE   C2416304   3.521   5.219   6.393  0.1619 -0.5867 -0.5386
  148SAPE   H4R16305   3.429   5.232   6.333  0.3032 -1.3598 -0.9294
  148SAPE   H4S16306   3.571   5.318   6.395  0.3533 -0.6578  1.8964
  148SAPE   C2516307   3.482   5.188   6.536  0.0085 -0.9071  0.5417
  148SAPE   H5R16308   3.374   5.167   6.542 -0.4027  0.2499 -1.8153
  148SAPE   C2616309   3.558   5.158   6.645  0.2813  0.7622 -0.4323
  148SAPE   H6R16310   3.507   5.130   6.739  2.4166 -0.0928  0.5190
  148SAPE   C2716311   3.703   5.126   6.654  0.4938 -0.1381 -1.2562
  148SAPE   H7R16312   3.743   5.172   6.747 -1.2702 -1.4031  0.2022
  148SAPE   H7S16313   3.769   5.170   6.576  2.8494 -0.2078  0.5763
  148SAPE   C2816314   3.710   4.967   6.628 -0.0131 -0.3527 -1.1855
  148SAPE   H8R16315   3.641   4.922   6.556 -1.0593 -1.6610  0.5571
  148SAPE   C2916316   3.778   4.879   6.702  0.2554 -0.6263 -0.2303
  148SAPE   H9R16317   3.799   4.775   6.673  0.9696 -0.5354 -0.0658
  148SAPE  C21016318   3.867   4.921   6.828  0.1519  0.0314  0.2276
  148SAPE  H10R16319   3.878   5.030   6.844  0.1815 -0.0772  0.9645
  148SAPE  H10S16320   3.961   4.866   6.807 -0.6604 -0.8155 -1.3962
  148SAPE  C21116321   3.810   4.856   6.950 -0.0773  0.2053 -0.8270
  148SAPE  H11R16322   3.792   4.749   6.936 -0.1275  0.2793 -1.3389
  148SAPE  C21216323   3.777   4.922   7.070 -0.7611 -0.0928 -0.2949
  148SAPE  H12R16324   3.726   4.860   7.145  1.5489 -1.0944  0.5656
  148SAPE  C21316325   3.794   5.070   7.099 -0.5257 -0.0299 -0.4601
  148SAPE  H13R16326   3.866   5.122   7.032 -1.4246  0.6517 -0.9255
  148SAPE  H13S16327   3.846   5.062   7.197  1.4942 -0.1043 -1.4885
  148SAPE  C21416328   3.671   5.153   7.096  0.3242  0.0278 -0.2113
  148SAPE  H14R16329   3.614   5.152   7.002 -0.3562 -2.7253  0.1511
  148SAPE  C21516330   3.616   5.214   7.203 -0.5547  0.3478  0.2012
  148SAPE  H15R16331   3.539   5.291   7.188 -1.2080 -0.1657  0.8225
  148SAPE  C21616332   3.647   5.216   7.350  0.4293 -0.1303  0.6657
  148SAPE  H16R16333   3.739   5.156   7.366  1.5538  0.7828 -1.9668
  148SAPE  H16S16334   3.561   5.171   7.405 -0.2161  0.2069 -0.0446
  148SAPE  C21716335   3.671   5.356   7.420 -0.4543  0.0110 -0.1247
  148SAPE  H17R16336   3.582   5.422   7.411  1.2839  2.3295 -1.3613
  148SAPE  H17S16337   3.754   5.401   7.361  0.1935 -1.2797 -0.2418
  148SAPE  C21816338   3.714   5.341   7.572  1.1240 -0.1142 -0.5801
  148SAPE  H18R16339   3.738   5.447   7.597 -1.1337 -0.2480  2.9650
  148SAPE  H18S16340   3.797   5.267   7.572  1.2728  0.0472 -1.1317
  148SAPE  C21916341   3.612   5.287   7.678  0.5603 -0.2522  1.2975
  148SAPE  H19R16342   3.590   5.184   7.642 -0.7727  0.1105  1.0076
  148SAPE  H19S16343   3.516   5.343   7.666  0.6137 -0.4646 -0.4086
  148SAPE  C22016344   3.665   5.286   7.820 -0.2114 -0.0874  0.7966
  148SAPE  H20R16345   3.720   5.381   7.835 -2.0742  1.7541 -2.6818
  148SAPE  H20S16346   3.733   5.205   7.853 -0.8739 -1.5316 -1.1831
  148SAPE  H20T16347   3.573   5.284   7.882 -1.6130 -0.3423 -1.2089
  148SAPE   C3316348   3.476   5.729   6.534 -0.4007 -0.2744 -0.6847
  148SAPE   H3X16349   3.372   5.727   6.495  0.4531  3.4922 -3.7163
  148SAPE   H3Y16350   3.521   5.825   6.501 -0.2705 -0.9716 -2.6434
  148SAPE   C3416351   3.488   5.724   6.691 -0.8873  0.3614 -0.3188
  148SAPE   H4X16352   3.483   5.827   6.732 -0.3965  0.6562 -0.9768
  148SAPE   H4Y16353   3.588   5.677   6.705 -1.2719  0.1518  2.1721
  148SAPE   C3516354   3.385   5.636   6.772 -0.0512 -0.5816 -1.4444
  148SAPE   H5X16355   3.374   5.539   6.720 -0.3966 -1.4495  0.1948
  148SAPE   H5Y16356   3.290   5.692   6.785  1.3250  1.3924  1.2490
  148SAPE   C3616357   3.436   5.607   6.916  0.5269 -0.2117 -0.2511
  148SAPE   H6X16358   3.541   5.584   6.888  0.1477 -1.3219 -0.7999
  148SAPE   H6Y16359   3.387   5.518   6.961 -1.3317 -0.0527 -1.8514
  148SAPE   C3716360   3.437   5.723   7.016  0.0884  0.3355 -0.5895
  148SAPE   H7X16361   3.340   5.778   7.024  1.4021  3.4554 -3.3246
  148SAPE   H7Y16362   3.497   5.808   6.976 -2.3804  1.6917 -1.6942
  148SAPE   C3816363   3.492   5.692   7.154 -0.4304 -0.3058  0.4928
  148SAPE   H8X16364   3.602   5.678   7.149 -0.0950  1.9891 -3.2530
  148SAPE   H8Y16365   3.449   5.607   7.210  0.4913 -0.0679  1.5924
  148SAPE   C3916366   3.480   5.817   7.238 -0.2820  0.1700 -0.1592
  148SAPE   H9X16367   3.374   5.847   7.250 -0.4798 -0.9328  1.1584
  148SAPE   H9Y16368   3.529   5.907   7.195 -0.5306  1.4902  2.1416
  148SAPE  C31016369   3.557   5.801   7.376 -0.2272 -0.0913  0.3393
  148SAPE  H10X16370   3.576   5.903   7.418 -2.3028  1.2212 -1.6741
  148SAPE  H10Y16371   3.658   5.759   7.359  0.4504  2.0013 -1.2074
  148SAPE  C31116372   3.476   5.721   7.483 -0.0269 -0.5182 -0.4006
  148SAPE  H11X16373   3.523   5.622   7.502 -1.9916 -1.8503 -2.1005
  148SAPE  H11Y16374   3.380   5.687   7.439 -0.2781  0.3789 -0.5660
  148SAPE  C31216375   3.461   5.804   7.612 -0.8402  0.1901  0.1229
  148SAPE  H12X16376   3.419   5.900   7.574 -0.5116  0.1397 -0.3796
  148SAPE  H12Y16377   3.559   5.830   7.658 -1.0774  2.2522 -0.4042
  148SAPE  C31316378   3.369   5.758   7.725 -0.1712 -0.6460 -0.0289
  148SAPE  H13X16379   3.272   5.724   7.680 -2.4100  3.3465  1.2924
  148SAPE  H13Y16380   3.331   5.845   7.782  0.5276 -0.4098  0.0741
  148SAPE  C31416381   3.424   5.669   7.831  0.2099  0.2017 -0.6534
  148SAPE  H14X16382   3.510   5.729   7.869  0.2365 -0.9596  1.2184
  148SAPE  H14Y16383   3.460   5.577   7.779 -0.3519 -0.3030 -0.1558
  148SAPE  C31516384   3.313   5.621   7.934  0.4351 -0.8364 -0.0045
  148SAPE  H15X16385   3.224   5.590   7.876  0.9786  1.0040 -1.9573
  148SAPE  H15Y16386   3.282   5.709   7.993 -0.1854 -0.5360 -0.7665
  148SAPE  C31616387   3.368   5.509   8.023 -0.0843  0.4709 -0.3180
  148SAPE  H16X16388   3.474   5.526   8.055  0.0959  0.9631 -1.1551
  148SAPE  H16Y16389   3.368   5.411   7.971  0.8000 -0.3537  1.1658
  148SAPE  C31716390   3.285   5.489   8.153  0.5933 -0.1986  0.6212
  148SAPE  H17X16391   3.301   5.582   8.212  1.4729 -0.1411  0.3076
  148SAPE  H17Y16392   3.334   5.404   8.203  3.0066  0.0941 -1.0443
  148SAPE  C31816393   3.132   5.455   8.137  0.1554  0.1218  0.1806
  148SAPE  H18X16394   3.072   5.527   8.078 -0.5034 -1.5967 -1.3354
  148SAPE  H18Y16395   3.079   5.421   8.229  2.3571 -2.4037  0.6389
  148SAPE  H18Z16396   3.121   5.360   8.080  1.8765 -0.4470  0.7116
  149SAPE     N16397   4.145   4.539   5.893 -0.4548  0.9615  0.0686
  149SAPE   HN116398   4.195   4.542   5.802 -0.9098  1.5495 -0.1623
  149SAPE   HN216399   4.175   4.458   5.951  0.8073  2.3036  1.3682
  149SAPE   HN316400   4.043   4.530   5.877 -0.2699 -0.1796 -0.6421
  149SAPE   C1216401   4.184   4.665   5.968 -0.0767  0.7291  0.3614
  149SAPE  H12A16402   4.152   4.639   6.071 -0.2973 -1.0788 -0.1306
  149SAPE  H12B16403   4.125   4.744   5.916 -0.0625  0.3588 -0.2328
  149SAPE   C1116404   4.339   4.695   5.954  0.2038  0.2388  0.1186
  149SAPE  H11A16405   4.347   4.783   6.022 -2.4870 -1.1991  2.5048
  149SAPE  H11B16406   4.352   4.722   5.847 -1.5068  0.0079 -0.1684
  149SAPE     P16407   4.576   4.616   5.992 -0.6270  0.2119  0.1646
  149SAPE   O1316408   4.646   4.500   5.936  0.4663 -0.0664 -0.0276
  149SAPE   O1416409   4.605   4.748   5.929 -0.2336 -0.3039  0.2696
  149SAPE   O1216410   4.416   4.586   5.999 -0.5286  0.2600 -0.5138
  149SAPE   O1116411   4.601   4.619   6.148 -0.1575  0.1702  0.2013
  149SAPE    C116412   4.607   4.751   6.217  0.7349 -0.1075 -0.4016
  149SAPE    HA16413   4.610   4.846   6.160  0.3892 -0.2748 -0.7078
  149SAPE    HB16414   4.521   4.748   6.288 -0.4448  0.0921 -1.7767
  149SAPE    C216415   4.732   4.770   6.315  0.2888 -0.2061 -0.2981
  149SAPE    HS16416   4.823   4.766   6.251  0.2137 -2.8069 -0.3239
  149SAPE   O2116417   4.741   4.666   6.413 -0.7863  0.5433  0.4249
  149SAPE   C2116418   4.858   4.658   6.488  0.0309 -0.4305  0.0737
  149SAPE   O2216419   4.964   4.707   6.446 -0.1008 -0.7150 -0.3133
  149SAPE   C2216420   4.848   4.574   6.613 -0.4511 -0.5851 -0.9985
  149SAPE   H2R16421   4.743   4.537   6.612 -0.6908  0.0864 -1.3899
  149SAPE   H2S16422   4.921   4.491   6.607 -2.8837 -3.0282  0.5029
  149SAPE    C316423   4.718   4.908   6.381  0.0527 -0.5202 -0.1653
  149SAPE    HX16424   4.735   4.984   6.302 -0.7864  1.5596  1.5409
  149SAPE    HY16425   4.803   4.920   6.451 -0.5094 -0.9321  0.6071
  149SAPE   O3116426   4.589   4.922   6.439 -0.0624  0.1956 -0.1001
  149SAPE   C3116427   4.582   5.025   6.519  0.3474  0.1874  0.5339
  149SAPE   O3216428   4.670   5.110   6.528  0.0947 -0.0680  0.3009
  149SAPE   C3216429   4.450   5.019   6.584  0.3904 -0.5603 -0.3348
  149SAPE   H2X16430   4.413   4.914   6.592 -0.8135 -0.0611  1.3140
  149SAPE   H2Y16431   4.378   5.082   6.527  0.3009 -0.0273  0.3445
  149SAPE   C2316432   4.867   4.657   6.745 -0.3135 -1.0663 -0.5387
  149SAPE   H3R16433   4.970   4.695   6.763 -0.9795 -0.3386  2.2085
  149SAPE   H3S16434   4.846   4.594   6.834  1.4408  0.0744  0.7722
  149SAPE   C2416435   4.783   4.784   6.755  0.0782 -1.1838  0.6494
  149SAPE   H4R16436   4.807   4.850   6.668 -0.7510 -0.3785  1.0136
  149SAPE   H4S16437   4.822   4.837   6.845  0.4356  0.9895 -0.6925
  149SAPE   C2516438   4.635   4.761   6.771  0.3072  0.2410 -0.1711
  149SAPE   H5R16439   4.573   4.764   6.679 -4.1476  0.0005  2.5097
  149SAPE   C2616440   4.568   4.755   6.886  1.1588  0.2428 -0.2116
  149SAPE   H6R16441   4.459   4.741   6.878  1.3334 -1.2286 -0.2875
  149SAPE   C2716442   4.628   4.763   7.027  0.3321  0.8477 -0.6225
  149SAPE   H7R16443   4.648   4.870   7.051  0.8690  0.2210  2.0478
  149SAPE   H7S16444   4.724   4.708   7.026  1.0726  2.0762  0.5488
  149SAPE   C2816445   4.532   4.713   7.130 -0.2699 -0.8967  0.2465
  149SAPE   H8R16446   4.460   4.640   7.091 -1.3595  0.8286 -1.1561
  149SAPE   C2916447   4.557   4.733   7.262 -0.0722 -0.6566  0.2530
  149SAPE   H9R16448   4.482   4.701   7.336 -1.1667  1.3673  0.1061
  149SAPE  C21016449   4.654   4.833   7.310 -0.0734 -0.8972  0.1483
  149SAPE  H10R16450   4.607   4.934   7.311 -0.2149 -0.9639  0.1744
  149SAPE  H10S16451   4.745   4.839   7.246  1.4553 -0.7355  2.2334
  149SAPE  C21116452   4.691   4.807   7.458  0.1000  0.1928  0.1727
  149SAPE  H11R16453   4.740   4.709   7.465 -2.1952 -1.4161 -3.1267
  149SAPE  C21216454   4.666   4.877   7.567 -0.0323  0.5297 -0.8515
  149SAPE  H12R16455   4.697   4.831   7.662 -0.4683  0.6099 -0.6681
  149SAPE  C21316456   4.587   5.005   7.591 -0.3218 -0.4114 -0.5185
  149SAPE  H13R16457   4.523   5.048   7.510 -0.1952  2.0870  0.6159
  149SAPE  H13S16458   4.673   5.076   7.599 -0.1243 -0.5837 -1.0357
  149SAPE  C21416459   4.511   5.026   7.710 -0.4577 -0.1608  0.4869
  149SAPE  H14R16460   4.404   5.024   7.684 -0.2030  1.2693 -0.7703
  149SAPE  C21516461   4.553   5.037   7.839 -0.1050  0.0182 -0.7330
  149SAPE  H15R16462   4.482   5.052   7.922 -0.3693  0.3902 -1.0169
  149SAPE  C21616463   4.692   5.026   7.887  0.4200 -0.3057  0.2988
  149SAPE  H16R16464   4.715   5.118   7.944 -0.7897 -1.2357  2.4148
  149SAPE  H16S16465   4.755   5.007   7.797 -1.7045  2.2226 -1.8931
  149SAPE  C21716466   4.719   4.919   7.987  0.0259  0.2273 -0.0169
  149SAPE  H17R16467   4.693   4.828   7.929  0.9157 -0.0726  0.0415
  149SAPE  H17S16468   4.654   4.936   8.075  1.6232  1.5638  0.9701
  149SAPE  C21816469   4.859   4.916   8.053 -0.7838  0.1342 -0.5446
  149SAPE  H18R16470   4.931   4.894   7.971  1.1038 -2.2803  1.5684
  149SAPE  H18S16471   4.864   4.847   8.141  1.4992  1.7351  0.6873
  149SAPE  C21916472   4.905   5.051   8.106  0.6406 -0.1189 -0.0423
  149SAPE  H19R16473   4.909   5.132   8.030 -1.1296  1.4773  1.4743
  149SAPE  H19S16474   5.011   5.052   8.140  0.5930 -0.7369  0.1467
  149SAPE  C22016475   4.812   5.100   8.215  0.6465  0.2082  0.4505
  149SAPE  H20R16476   4.857   5.181   8.276  2.3452 -0.5266  0.2201
  149SAPE  H20S16477   4.811   5.015   8.286  0.4331 -0.9602 -0.9134
  149SAPE  H20T16478   4.706   5.115   8.185  0.7606 -1.1678 -0.7397
  149SAPE   C3316479   4.470   5.078   6.723  0.6414 -0.7812 -0.4902
  149SAPE   H3X16480   4.492   5.187   6.717 -0.0004 -0.6917 -1.4056
  149SAPE   H3Y16481   4.546   5.033   6.790 -0.0146 -1.8482 -0.4290
  149SAPE   C3416482   4.342   5.061   6.813  0.1407 -0.6214  0.8926
  149SAPE   H4X16483   4.327   4.951   6.824 -1.1556 -0.6194 -0.4840
  149SAPE   H4Y16484   4.246   5.092   6.765  0.3690  3.0255  2.4670
  149SAPE   C3516485   4.360   5.125   6.948 -0.7749 -0.5818  0.0120
  149SAPE   H5X16486   4.383   5.228   6.915 -0.5765 -1.1741 -1.8155
  149SAPE   H5Y16487   4.447   5.079   6.999 -1.0553 -1.5083 -0.3207
  149SAPE   C3616488   4.228   5.106   7.027  0.0594 -0.2563  0.0855
  149SAPE   H6X16489   4.212   4.999   7.051  1.3511 -0.4588  0.0931
  149SAPE   H6Y16490   4.152   5.129   6.949 -0.0507  0.2446  0.3340
  149SAPE   C3716491   4.183   5.199   7.148  0.1335 -0.8139  0.1322
  149SAPE   H7X16492   4.080   5.173   7.178  0.0037  1.6215  2.1160
  149SAPE   H7Y16493   4.184   5.304   7.111  1.3122 -0.8533  0.0009
  149SAPE   C3816494   4.273   5.176   7.270 -0.2780 -0.7109 -0.0209
  149SAPE   H8X16495   4.361   5.244   7.267 -0.4285 -0.4958  0.4049
  149SAPE   H8Y16496   4.306   5.070   7.261 -1.5668 -1.0913 -0.3426
  149SAPE   C3916497   4.200   5.189   7.404 -0.0522 -0.7304  0.1913
  149SAPE   H9X16498   4.272   5.185   7.488 -2.0323  0.9362  2.1055
  149SAPE   H9Y16499   4.109   5.125   7.414 -0.3861 -0.0108  2.4629
  149SAPE  C31016500   4.153   5.339   7.418 -0.6857  0.0665  0.0690
  149SAPE  H10X16501   4.091   5.368   7.330 -1.5890  1.1516  1.0312
  149SAPE  H10Y16502   4.243   5.404   7.424 -0.8636  0.2868  0.3616
  149SAPE  C31116503   4.078   5.367   7.542  0.5833  0.1907  0.3424
  149SAPE  H11X16504   3.994   5.295   7.549  2.0170 -1.6374 -0.4279
  149SAPE  H11Y16505   4.044   5.473   7.541  1.9502  0.6997  1.9722
  149SAPE  C31216506   4.153   5.352   7.676  0.2396  0.8357 -0.0498
  149SAPE  H12X16507   4.249   5.408   7.682  0.4951  0.4137 -0.1887
  149SAPE  H12Y16508   4.177   5.244   7.671  0.9683  1.0006 -0.1617
  149SAPE  C31316509   4.056   5.395   7.780 -0.4883  0.5831  0.5716
  149SAPE  H13X16510   3.957   5.347   7.761  1.0599 -2.6920  0.1641
  149SAPE  H13Y16511   4.034   5.503   7.767 -1.6090  0.3183  0.0539
  149SAPE  C31416512   4.106   5.361   7.920 -0.3097 -0.4784 -0.0527
  149SAPE  H14X16513   4.192   5.428   7.941 -1.5518  0.9397  0.6764
  149SAPE  H14Y16514   4.141   5.256   7.931 -0.5195 -0.8432 -2.3418
  149SAPE  C31516515   4.002   5.384   8.033 -0.3242  0.9977  0.1592
  149SAPE  H15X16516   4.056   5.353   8.125  0.8226 -0.7969 -1.0695
  149SAPE  H15Y16517   3.917   5.314   8.017 -0.7791  1.6268 -0.2697
  149SAPE  C31616518   3.969   5.531   8.030  0.3371  0.2451 -0.5684
  149SAPE  H16X16519   3.899   5.549   7.945  0.0341 -0.5657 -0.4986
  149SAPE  H16Y16520   4.060   5.588   8.001  0.9833  0.0719  1.0132
  149SAPE  C31716521   3.906   5.582   8.160 -0.0155 -0.6930 -0.5635
  149SAPE  H17X16522   3.940   5.515   8.242 -0.7018 -0.1179  0.2017
  149SAPE  H17Y16523   3.797   5.560   8.166 -0.0649 -0.0771  2.0435
  149SAPE  C31816524   3.925   5.731   8.181  0.3404  0.7295  0.2396
  149SAPE  H18X16525   4.025   5.754   8.224  0.0068  1.8201  0.4378
  149SAPE  H18Y16526   3.845   5.769   8.247 -1.8158 -2.4957 -0.2672
  149SAPE  H18Z16527   3.909   5.775   8.080  0.3480 -1.1888 -0.6497
  150SAPE     N16528   3.273   6.802   6.028  0.6156 -1.0591  0.4126
  150SAPE   HN116529   3.363   6.791   5.978 -0.2716  0.2104 -1.5861
  150SAPE   HN216530   3.200   6.808   5.954 -0.3811  1.6669  1.4899
  150SAPE   HN316531   3.265   6.896   6.071 -1.9749 -1.6577  1.4569
  150SAPE   C1216532   3.240   6.686   6.113  0.3686  0.6048  0.5619
  150SAPE  H12A16533   3.153   6.716   6.174 -0.3085  2.3549 -1.1482
  150SAPE  H12B16534   3.332   6.666   6.173  0.1350 -0.0690  0.6962
  150SAPE   C1116535   3.194   6.563   6.029  0.4139  0.4219 -0.0402
  150SAPE  H11A16536   3.151   6.483   6.092 -0.7287  0.1605 -1.1117
  150SAPE  H11B16537   3.286   6.521   5.982  1.1631  1.9534 -0.0377
  150SAPE     P16538   2.951   6.598   5.950 -0.0688 -0.1414  0.1025
  150SAPE   O1316539   2.888   6.696   5.863  0.5188  0.3842 -0.2640
  150SAPE   O1416540   2.897   6.462   5.920  0.1974  0.3488 -0.4275
  150SAPE   O1216541   3.108   6.605   5.925  0.0123  0.1763 -0.0432
  150SAPE   O1116542   2.920   6.642   6.099  0.1608 -0.1989 -0.0672
  150SAPE    C116543   2.851   6.574   6.193 -0.1710  0.9096  0.1062
  150SAPE    HA16544   2.841   6.466   6.167 -1.0863  1.5652 -2.5315
  150SAPE    HB16545   2.909   6.586   6.287  0.6725  1.4464 -0.4683
  150SAPE    C216546   2.703   6.632   6.211  0.3911  0.2597 -0.4984
  150SAPE    HS16547   2.664   6.625   6.107  1.4249  0.5028 -0.9084
  150SAPE   O2116548   2.700   6.765   6.257 -0.2456  0.2568 -0.1914
  150SAPE   C2116549   2.581   6.826   6.265 -0.3127 -0.1955 -0.6574
  150SAPE   O2216550   2.476   6.783   6.214  0.7084 -0.2750  0.1726
  150SAPE   C2216551   2.584   6.963   6.347  0.1913  0.2244 -0.5767
  150SAPE   H2R16552   2.690   6.964   6.379  0.4240 -2.6748 -0.9767
  150SAPE   H2S16553   2.569   7.050   6.279  1.4287  2.2875  1.6483
  150SAPE    C316554   2.627   6.541   6.314  0.7305  0.2843  0.3361
  150SAPE    HX16555   2.629   6.439   6.270 -1.0130  0.6108 -0.5923
  150SAPE    HY16556   2.522   6.578   6.308  0.0126 -1.5753  0.5576
  150SAPE   O3116557   2.674   6.550   6.448 -0.3528 -0.3296  0.0987
  150SAPE   C3116558   2.594   6.515   6.546 -0.4800  0.0750  0.2563
  150SAPE   O3216559   2.482   6.477   6.525 -0.2622 -0.2317  0.3769
  150SAPE   C3216560   2.662   6.522   6.681 -0.4589  0.0382 -0.1270
  150SAPE   H2X16561   2.745   6.597   6.677  1.2025 -1.5661  1.9147
  150SAPE   H2Y16562   2.718   6.429   6.701  0.1027 -0.2522 -2.6674
  150SAPE   C2316563   2.503   6.962   6.472  0.0156 -0.2029 -0.4035
  150SAPE   H3R16564   2.503   6.862   6.519  3.3182 -0.6206 -1.0363
  150SAPE   H3S16565   2.396   6.988   6.453  0.5467  2.0366 -0.6195
  150SAPE   C2416566   2.559   7.067   6.567  0.1787 -0.2686  0.0169
  150SAPE   H4R16567   2.572   7.153   6.497  0.7129 -2.4572 -2.7745
  150SAPE   H4S16568   2.665   7.040   6.588  0.8667  1.2815 -1.2225
  150SAPE   C2516569   2.473   7.084   6.690  0.3498 -0.6223  0.1901
  150SAPE   H5R16570   2.465   6.993   6.751 -0.1746 -1.0205 -0.4584
  150SAPE   C2616571   2.413   7.194   6.735 -0.6195 -0.3066  0.0935
  150SAPE   H6R16572   2.348   7.188   6.824 -0.7130  1.8033  0.2283
  150SAPE   C2716573   2.418   7.334   6.676 -0.6338  0.1578 -0.5222
  150SAPE   H7R16574   2.507   7.334   6.608  0.3220  0.3699  0.6891
  150SAPE   H7S16575   2.451   7.401   6.758 -0.9326 -0.4923  0.1303
  150SAPE   C2816576   2.287   7.382   6.621  0.5012 -0.1036  0.2801
  150SAPE   H8R16577   2.249   7.320   6.538  0.1899 -0.1854  0.4822
  150SAPE   C2916578   2.215   7.484   6.667 -0.2916  0.0396  0.2317
  150SAPE   H9R16579   2.128   7.505   6.603 -0.4235 -2.6941 -0.6114
  150SAPE  C21016580   2.238   7.578   6.784 -0.0981 -0.2643  0.1611
  150SAPE  H10R16581   2.147   7.642   6.793  1.0259  1.4423 -0.2337
  150SAPE  H10S16582   2.320   7.645   6.752 -2.1570  1.5151 -1.7107
  150SAPE  C21116583   2.272   7.513   6.922  0.0909 -0.4086  0.0901
  150SAPE  H11R16584   2.369   7.461   6.929  1.0550  1.4403  1.4143
  150SAPE  C21216585   2.197   7.524   7.035  0.1310 -0.3222  0.1348
  150SAPE  H12R16586   2.241   7.497   7.132  2.0583  1.8623 -0.0501
  150SAPE  C21316587   2.065   7.597   7.049  0.5252 -0.8872 -0.1719
  150SAPE  H13R16588   1.994   7.524   7.004 -0.4688 -0.4464  0.6709
  150SAPE  H13S16589   2.056   7.679   6.975 -2.0897 -2.5568 -1.8941
  150SAPE  C21416590   2.029   7.638   7.190  0.7163 -0.6898 -0.6235
  150SAPE  H14R16591   2.046   7.556   7.262 -0.9890  1.9501  3.0801
  150SAPE  C21516592   1.980   7.751   7.240 -0.1471 -0.4803  0.9493
  150SAPE  H15R16593   1.961   7.766   7.347  0.3669 -1.2843  1.1644
  150SAPE  C21616594   1.951   7.871   7.147  0.1825  0.4855  0.2531
  150SAPE  H16R16595   1.841   7.867   7.129 -0.1263 -0.1821  2.1346
  150SAPE  H16S16596   2.001   7.854   7.049  3.0289 -1.7887  1.9399
  150SAPE  C21716597   1.971   8.019   7.203 -0.4595 -0.5865 -0.3130
  150SAPE  H17R16598   1.969   8.098   7.125  1.1517 -0.4354 -0.2331
  150SAPE  H17S16599   2.077   8.019   7.237 -0.6898  0.2350  0.4241
  150SAPE  C21816600   1.872   8.061   7.311 -0.4087  0.3605 -0.1012
  150SAPE  H18R16601   1.827   7.971   7.358  1.6983 -0.9863 -0.5389
  150SAPE  H18S16602   1.785   8.117   7.270 -0.9968  0.2895  1.0144
  150SAPE  C21916603   1.951   8.138   7.423  0.6004  0.5493 -0.8682
  150SAPE  H19R16604   1.989   8.235   7.384  0.8134  1.6491  1.8662
  150SAPE  H19S16605   2.034   8.066   7.440 -1.3563 -1.8580 -0.8595
  150SAPE  C22016606   1.863   8.175   7.537 -0.6161 -0.0851 -0.1741
  150SAPE  H20R16607   1.774   8.236   7.513 -2.2220 -1.7401  1.2801
  150SAPE  H20S16608   1.920   8.248   7.599  0.5071 -0.5759 -0.5995
  150SAPE  H20T16609   1.828   8.093   7.604  3.0362  0.1381  2.3019
  150SAPE   C3316610   2.571   6.553   6.798  0.2209  0.9242 -0.2008
  150SAPE   H3X16611   2.638   6.557   6.887  1.3154 -2.1821 -0.7560
  150SAPE   H3Y16612   2.498   6.470   6.813  0.6932  0.6715  0.7493
  150SAPE   C3416613   2.483   6.683   6.787 -0.1433  0.0069  0.0980
  150SAPE   H4X16614   2.398   6.675   6.716 -1.6024  3.5054  1.2303
  150SAPE   H4Y16615   2.541   6.769   6.747  1.5064 -1.1996 -0.2152
  150SAPE   C3516616   2.427   6.706   6.927  0.8025 -0.2472 -0.2068
  150SAPE   H5X16617   2.513   6.726   6.995  1.4019  1.5701 -1.4440
  150SAPE   H5Y16618   2.373   6.615   6.963  0.6196  0.1503  0.5450
  150SAPE   C3616619   2.334   6.829   6.948  0.0445 -0.9415 -0.8120
  150SAPE   H6X16620   2.231   6.820   6.908 -0.6474  0.6667  0.5193
  150SAPE   H6Y16621   2.378   6.921   6.904 -0.2224 -1.0030 -1.2201
  150SAPE   C3716622   2.306   6.863   7.098 -0.7395 -0.0824 -0.2707
  150SAPE   H7X16623   2.259   6.962   7.118  2.0635  0.8781  2.4166
  150SAPE   H7Y16624   2.395   6.876   7.164 -2.1959  0.9177  1.5933
  150SAPE   C3816625   2.224   6.760   7.179  0.3020  0.2827  0.1587
  150SAPE   H8X16626   2.266   6.657   7.170  0.5267  0.3497  0.4287
  150SAPE   H8Y16627   2.120   6.758   7.141  1.3831 -1.0942 -3.0997
  150SAPE   C3916628   2.220   6.792   7.329  0.2885 -0.4694  0.7617
  150SAPE   H9X16629   2.325   6.805   7.363  0.7212 -2.7972  0.4438
  150SAPE   H9Y16630   2.187   6.699   7.380  2.6870 -0.7067  1.9808
  150SAPE  C31016631   2.117   6.906   7.368 -0.1532 -0.7109  0.0520
  150SAPE  H10X16632   2.016   6.860   7.378 -0.4973 -0.1893 -0.8800
  150SAPE  H10Y16633   2.109   6.980   7.285 -3.6440 -1.8143 -0.7895
  150SAPE  C31116634   2.145   6.963   7.507 -0.2015  0.1282 -0.3638
  150SAPE  H11X16635   2.079   7.048   7.532  0.1677  0.1847  0.4412
  150SAPE  H11Y16636   2.250   6.999   7.514  0.2281 -1.2924  1.1308
  150SAPE  C31216637   2.130   6.860   7.619 -0.8678  0.2043 -0.3664
  150SAPE  H12X16638   2.191   6.772   7.594 -0.4118  0.1466  0.8590
  150SAPE  H12Y16639   2.026   6.823   7.627 -1.0402  0.8446  0.5763
  150SAPE  C31316640   2.178   6.919   7.754 -0.4202 -0.2644  0.8859
  150SAPE  H13X16641   2.122   7.010   7.785 -0.0494  0.5092 -0.6597
  150SAPE  H13Y16642   2.278   6.965   7.747 -1.3145  1.5048 -1.7662
  150SAPE  C31416643   2.159   6.822   7.876  0.1152  0.8252 -0.3018
  150SAPE  H14X16644   2.050   6.800   7.880  0.0142  0.7396 -2.3649
  150SAPE  H14Y16645   2.197   6.868   7.970  0.6493 -0.2560  0.0246
  150SAPE  C31516646   2.225   6.680   7.859  0.1497  0.3204 -0.4612
  150SAPE  H15X16647   2.319   6.706   7.805 -0.2936  0.2374 -1.2881
  150SAPE  H15Y16648   2.172   6.620   7.782  1.1007 -1.3675  0.1398
  150SAPE  C31616649   2.250   6.597   7.991 -0.3017 -0.2914 -0.0544
  150SAPE  H16X16650   2.280   6.494   7.963 -2.8718 -2.0733  2.9391
  150SAPE  H16Y16651   2.149   6.576   8.034  0.3675 -1.7279  0.8885
  150SAPE  C31716652   2.341   6.668   8.090  0.0982  0.3546  0.1271
  150SAPE  H17X16653   2.363   6.607   8.180  1.9107 -0.6131 -0.9302
  150SAPE  H17Y16654   2.288   6.753   8.138  0.0764  0.7457 -0.5755
  150SAPE  C31816655   2.472   6.711   8.030 -0.0708  0.2540 -0.3795
  150SAPE  H18X16656   2.540   6.733   8.114 -1.9260 -0.1544  1.2918
  150SAPE  H18Y16657   2.457   6.801   7.965  0.5270 -0.9069 -2.2144
  150SAPE  H18Z16658   2.515   6.643   7.953 -0.2833  1.0662 -1.2422
  151SAPE     N16659   5.710   4.599   6.217  0.0815  0.3579 -0.5363
  151SAPE   HN116660   5.624   4.632   6.265  0.1555  2.4293 -1.7444
  151SAPE   HN216661   5.741   4.507   6.255 -1.0011  0.3339  0.3375
  151SAPE   HN316662   5.788   4.664   6.241  0.5167  0.3107 -1.7691
  151SAPE   C1216663   5.685   4.585   6.075 -0.9096 -0.6868  0.0710
  151SAPE  H12A16664   5.666   4.684   6.030 -0.4902 -0.8693 -0.5127
  151SAPE  H12B16665   5.586   4.534   6.063 -1.5067  0.7446 -1.4502
  151SAPE   C1116666   5.800   4.516   6.001 -0.8491  0.6717  0.1585
  151SAPE  H11A16667   5.761   4.497   5.899 -0.1991 -2.4862  0.3955
  151SAPE  H11B16668   5.818   4.414   6.041 -2.0928 -0.3090 -1.6072
  151SAPE     P16669   6.014   4.621   5.882 -0.3152 -0.0568  0.1478
  151SAPE   O1316670   6.003   4.517   5.781 -0.3628 -0.2785 -0.1732
  151SAPE   O1416671   6.013   4.765   5.840  0.1990  0.0339 -0.4790
  151SAPE   O1216672   5.911   4.601   5.999  0.5736 -0.2522  0.6001
  151SAPE   O1116673   6.151   4.603   5.957  0.3373  0.8362 -0.1552
  151SAPE    C116674   6.197   4.482   6.018  0.0704 -0.3509  0.4916
  151SAPE    HA16675   6.192   4.396   5.948  3.3631 -1.1180  1.0260
  151SAPE    HB16676   6.306   4.500   6.026  0.2041 -0.8586 -0.1547
  151SAPE    C216677   6.133   4.453   6.159 -0.5047  0.1508  0.5002
  151SAPE    HS16678   6.023   4.445   6.142 -0.3279  0.3687 -0.8514
  151SAPE   O2116679   6.163   4.557   6.248  0.4198 -0.1356  0.3331
  151SAPE   C2116680   6.084   4.585   6.350 -0.3848 -1.1718 -0.1921
  151SAPE   O2216681   5.969   4.545   6.364  0.1893 -0.3891 -0.4345
  151SAPE   C2216682   6.159   4.689   6.425 -0.6429 -0.1730 -0.0703
  151SAPE   H2R16683   6.204   4.765   6.357 -0.1476  0.4059  0.8865
  151SAPE   H2S16684   6.088   4.746   6.488  1.3920  2.6775 -0.1700
  151SAPE    C316685   6.186   4.320   6.214 -0.4168  0.1090 -1.2206
  151SAPE    HX16686   6.287   4.344   6.255 -0.3836 -2.4071  0.3712
  151SAPE    HY16687   6.202   4.248   6.131 -0.5943  0.4930 -1.5929
  151SAPE   O3116688   6.096   4.276   6.321  0.4115 -0.4749  0.8042
  151SAPE   C3116689   6.118   4.150   6.361  0.2696 -0.4862 -0.0988
  151SAPE   O3216690   6.202   4.072   6.322 -0.5998 -0.3526  0.9763
  151SAPE   C3216691   6.018   4.130   6.474  0.0579 -0.6538 -0.2049
  151SAPE   H2X16692   6.005   4.021   6.486 -1.4058 -0.8246 -2.7565
  151SAPE   H2Y16693   5.921   4.174   6.443  1.2678  0.1906 -3.1433
  151SAPE   C2316694   6.264   4.619   6.525  0.2588 -0.7577 -0.1788
  151SAPE   H3R16695   6.362   4.663   6.496 -0.0082  0.2824  0.4106
  151SAPE   H3S16696   6.265   4.510   6.508 -1.5701 -0.5218 -2.0820
  151SAPE   C2416697   6.246   4.652   6.673  0.6453 -0.1944 -0.6205
  151SAPE   H4R16698   6.265   4.761   6.681 -1.1658  0.1163 -0.2788
  151SAPE   H4S16699   6.324   4.607   6.739 -2.7268 -0.7840  3.3914
  151SAPE   C2516700   6.110   4.615   6.719 -0.1746  1.2425 -1.0349
  151SAPE   H5R16701   6.065   4.538   6.655 -1.0872  0.6272  0.2948
  151SAPE   C2616702   6.049   4.661   6.830  0.7019 -0.1979  0.5225
  151SAPE   H6R16703   5.954   4.618   6.864  1.2304 -0.2611  2.0078
  151SAPE   C2716704   6.092   4.773   6.916  0.1744 -0.2142 -0.2604
  151SAPE   H7R16705   6.203   4.776   6.913  0.2493 -2.4980 -1.4282
  151SAPE   H7S16706   6.056   4.748   7.018 -0.4963  1.7450  0.0290
  151SAPE   C2816707   6.028   4.906   6.871 -0.9106  0.2632 -0.1853
  151SAPE   H8R16708   6.079   4.942   6.781  2.9216 -2.3732  0.6496
  151SAPE   C2916709   5.938   4.987   6.932 -0.5773  0.2360  0.3778
  151SAPE   H9R16710   5.898   5.073   6.877  2.0260  1.5679  0.4088
  151SAPE  C21016711   5.867   4.950   7.058  0.6996  0.1841  0.0742
  151SAPE  H10R16712   5.924   4.883   7.126 -2.5629 -1.5624  1.3148
  151SAPE  H10S16713   5.776   4.891   7.034 -0.2425  1.1376  1.1874
  151SAPE  C21116714   5.831   5.065   7.147  0.2529 -0.0250 -0.1914
  151SAPE  H11R16715   5.898   5.084   7.233  0.3143  0.5223 -0.3562
  151SAPE  C21216716   5.725   5.136   7.135 -0.0784 -0.0986 -0.2294
  151SAPE  H12R16717   5.723   5.225   7.198 -1.0523  1.0430 -1.8013
  151SAPE  C21316718   5.623   5.121   7.022  0.6680  0.3125  0.2507
  151SAPE  H13R16719   5.664   5.085   6.925 -2.2794  1.8500 -1.7209
  151SAPE  H13S16720   5.598   5.225   6.992  1.9952  1.1375  1.8369
  151SAPE  C21416721   5.482   5.068   7.039 -0.3888  0.3071 -0.2270
  151SAPE  H14R16722   5.465   4.966   7.001 -0.5483  0.2530 -0.0128
  151SAPE  C21516723   5.381   5.117   7.106  0.7157 -0.2720 -0.4948
  151SAPE  H15R16724   5.282   5.068   7.099  1.2582 -1.2361 -1.7320
  151SAPE  C21616725   5.382   5.234   7.193 -0.0561 -0.4033 -0.0380
  151SAPE  H16R16726   5.306   5.309   7.164 -1.5506 -1.6005  0.6126
  151SAPE  H16S16727   5.480   5.286   7.185  1.1655 -2.6897 -0.9922
  151SAPE  C21716728   5.365   5.196   7.338  0.2114 -0.6891 -0.0762
  151SAPE  H17R16729   5.400   5.092   7.357 -0.3087 -0.5897  1.5054
  151SAPE  H17S16730   5.258   5.200   7.367  0.2374  0.4415 -0.0849
  151SAPE  C21816731   5.436   5.302   7.429  0.4246 -0.0923  0.4087
  151SAPE  H18R16732   5.401   5.406   7.409 -3.2476 -0.6741  2.8530
  151SAPE  H18S16733   5.544   5.294   7.405  1.2421  4.2150  1.7443
  151SAPE  C21916734   5.409   5.284   7.578 -0.2039 -0.2385  0.7619
  151SAPE  H19R16735   5.497   5.336   7.621  0.0800  0.9318 -1.1145
  151SAPE  H19S16736   5.414   5.179   7.614  2.8063 -0.3810  0.1553
  151SAPE  C22016737   5.280   5.347   7.631  0.8763  0.1913  0.0258
  151SAPE  H20R16738   5.278   5.457   7.620  1.7402  0.0803 -1.7769
  151SAPE  H20S16739   5.198   5.310   7.565  1.5060  0.1349 -0.7530
  151SAPE  H20T16740   5.260   5.317   7.736  0.3605 -0.2003 -0.1800
  151SAPE   C3316741   6.080   4.184   6.602 -0.1305 -0.7289  0.0699
  151SAPE   H3X16742   6.009   4.155   6.682  1.7137 -0.9026  1.7275
  151SAPE   H3Y16743   6.083   4.295   6.596  0.3558 -0.7713 -0.6248
  151SAPE   C3416744   6.225   4.131   6.630  1.1217  0.7436 -0.4010
  151SAPE   H4X16745   6.304   4.186   6.575 -0.6358  2.5322 -1.2142
  151SAPE   H4Y16746   6.222   4.023   6.603  1.5927  0.8153 -0.7620
  151SAPE   C3516747   6.253   4.134   6.781 -0.0263 -0.4849 -0.8874
  151SAPE   H5X16748   6.339   4.066   6.801 -0.4679 -0.5726  0.8556
  151SAPE   H5Y16749   6.167   4.098   6.841  0.2774  3.3873  2.2993
  151SAPE   C3616750   6.297   4.279   6.832  0.3234  0.2731 -1.1950
  151SAPE   H6X16751   6.262   4.349   6.753 -1.6442  1.9789  1.0527
  151SAPE   H6Y16752   6.407   4.286   6.850  0.1245 -0.6379  0.4895
  151SAPE   C3716753   6.249   4.330   6.962  0.0063  0.4229  0.3333
  151SAPE   H7X16754   6.140   4.337   6.943  0.2971  1.1161 -1.2458
  151SAPE   H7Y16755   6.291   4.433   6.964 -2.2621  1.4139  0.0022
  151SAPE   C3816756   6.291   4.240   7.079  0.4001 -0.4325  0.0510
  151SAPE   H8X16757   6.399   4.251   7.104  0.9839  0.0499 -2.3836
  151SAPE   H8Y16758   6.269   4.134   7.053  0.4886 -0.2881 -0.6288
  151SAPE   C3916759   6.213   4.278   7.203  0.6537 -0.1995 -0.2441
  151SAPE   H9X16760   6.104   4.294   7.192  0.4881 -0.4770  0.8766
  151SAPE   H9Y16761   6.245   4.384   7.215  1.5870 -0.3151 -1.4589
  151SAPE  C31016762   6.252   4.203   7.332  0.2123 -0.1953  0.5290
  151SAPE  H10X16763   6.183   4.229   7.415  0.2361  1.0793  0.1828
  151SAPE  H10Y16764   6.349   4.244   7.366 -0.7288  0.0035  3.1350
  151SAPE  C31116765   6.263   4.059   7.312 -0.1877 -0.2017 -0.3900
  151SAPE  H11X16766   6.339   4.029   7.237 -1.0914 -1.4521 -0.8589
  151SAPE  H11Y16767   6.166   4.018   7.276  0.8304 -3.3657  0.0886
  151SAPE  C31216768   6.274   3.964   7.435  0.6425 -0.0215 -0.6495
  151SAPE  H12X16769   6.292   3.859   7.404 -0.5823  0.0039 -1.5297
  151SAPE  H12Y16770   6.183   3.973   7.498 -0.1453  0.3885 -1.8083
  151SAPE  C31316771   6.396   4.000   7.526 -0.2403  0.2908  0.5224
  151SAPE  H13X16772   6.372   4.103   7.562 -0.5784  0.1252  0.7767
  151SAPE  H13Y16773   6.483   4.006   7.459 -0.6668 -1.0270 -0.1828
  151SAPE  C31416774   6.409   3.895   7.637  0.1422 -0.0567  0.0732
  151SAPE  H14X16775   6.401   3.792   7.598  1.1619  0.3697 -1.3362
  151SAPE  H14Y16776   6.311   3.909   7.688 -0.2101 -0.0816 -0.5799
  151SAPE  C31516777   6.520   3.933   7.730  0.3183  0.1101  0.0327
  151SAPE  H15X16778   6.566   4.025   7.688 -0.1825 -0.4580 -1.8938
  151SAPE  H15Y16779   6.595   3.852   7.738 -0.7778 -1.5665 -3.9856
  151SAPE  C31616780   6.470   3.963   7.868 -0.1023 -0.5420 -0.1531
  151SAPE  H16X16781   6.428   3.874   7.920 -2.8097  1.2474  0.9754
  151SAPE  H16Y16782   6.397   4.046   7.866 -1.2730 -1.2985  3.2476
  151SAPE  C31716783   6.579   4.021   7.963  0.2580 -0.0727  0.0605
  151SAPE  H17X16784   6.615   4.116   7.917 -1.6294 -1.3445 -4.5475
  151SAPE  H17Y16785   6.662   3.948   7.977 -0.0989 -0.1897  1.7612
  151SAPE  C31816786   6.525   4.055   8.103 -0.3291  0.2365  0.1570
  151SAPE  H18X16787   6.459   3.972   8.137 -1.9140  1.1377 -0.5970
  151SAPE  H18Y16788   6.452   4.138   8.095 -0.9330 -0.1868  1.0761
  151SAPE  H18Z16789   6.599   4.090   8.178 -1.6823 -0.1125  1.6988
  152SAPE     N16790   2.259   1.903   6.131 -0.7417 -0.2791 -0.7319
  152SAPE   HN116791   2.314   1.855   6.057 -0.9621 -0.6668 -0.6524
  152SAPE   HN216792   2.164   1.935   6.103 -0.9828  1.2316  1.5145
  152SAPE   HN316793   2.314   1.980   6.173 -0.0917 -0.6568 -0.8770
  152SAPE   C1216794   2.246   1.807   6.248 -0.4386  0.2349 -0.9077
  152SAPE  H12A16795   2.143   1.824   6.285 -0.1664 -0.1578  0.0652
  152SAPE  H12B16796   2.316   1.835   6.331 -1.1705 -1.7913  0.4538
  152SAPE   C1116797   2.255   1.662   6.209 -1.0678 -0.1801  0.8500
  152SAPE  H11A16798   2.247   1.591   6.294  0.8991  0.3952  1.5810
  152SAPE  H11B16799   2.361   1.654   6.177 -1.4483  1.3763 -0.9597
  152SAPE     P16800   2.134   1.486   6.055 -0.1607 -0.0405 -0.0951
  152SAPE   O1316801   2.121   1.475   5.910 -0.2240  0.4597  0.5590
  152SAPE   O1416802   2.225   1.391   6.126  0.3188  0.2471 -0.2037
  152SAPE   O1216803   2.172   1.627   6.099  0.5217 -0.0831 -0.3857
  152SAPE   O1116804   1.996   1.483   6.115  0.1562 -0.7279  0.3414
  152SAPE    C116805   1.918   1.586   6.169 -0.0917 -0.9987  0.7245
  152SAPE    HA16806   1.982   1.658   6.224 -0.8628  1.3682 -1.2971
  152SAPE    HB16807   1.872   1.647   6.089  1.3964  1.5445  1.6919
  152SAPE    C216808   1.814   1.531   6.270 -0.2809  0.1076  0.0871
  152SAPE    HS16809   1.765   1.616   6.323  0.0559  0.2186  0.2235
  152SAPE   O2116810   1.875   1.446   6.356  0.0954 -0.0721 -0.2935
  152SAPE   C2116811   1.963   1.489   6.454  0.3054  0.7191 -0.3913
  152SAPE   O2216812   1.990   1.605   6.468  0.2863  0.1250 -0.1554
  152SAPE   C2216813   2.023   1.361   6.520  0.0877 -0.3661 -0.3858
  152SAPE   H2R16814   1.956   1.337   6.605 -0.2085  2.2814  0.2216
  152SAPE   H2S16815   2.013   1.270   6.456 -0.4834 -2.4557  2.4918
  152SAPE    C316816   1.704   1.449   6.199 -0.2862  0.3194 -0.3814
  152SAPE    HX16817   1.745   1.377   6.125 -1.6839  0.4105 -1.2788
  152SAPE    HY16818   1.636   1.517   6.142 -0.7169  0.6426  0.5092
  152SAPE   O3116819   1.624   1.380   6.298  0.0519 -0.2017 -0.5406
  152SAPE   C3116820   1.536   1.449   6.367  0.5787 -0.9800 -0.1304
  152SAPE   O3216821   1.525   1.574   6.374  0.0204 -0.0073 -0.0889
  152SAPE   C3216822   1.440   1.352   6.433  0.7839 -0.0181 -0.5300
  152SAPE   H2X16823   1.493   1.259   6.464  3.3878  1.1782 -1.1037
  152SAPE   H2Y16824   1.372   1.322   6.350  0.7405 -1.6056  0.0523
  152SAPE   C2316825   2.174   1.374   6.546 -0.1768 -0.1335  0.4806
  152SAPE   H3R16826   2.203   1.454   6.618  0.6202  1.5615 -1.6347
  152SAPE   H3S16827   2.225   1.407   6.454 -2.0027 -3.0780 -1.7613
  152SAPE   C2416828   2.242   1.241   6.604 -0.4548 -0.1380 -0.0505
  152SAPE   H4R16829   2.347   1.266   6.630  0.7196 -2.4766 -2.0618
  152SAPE   H4S16830   2.251   1.152   6.538 -1.4168 -0.2155 -0.0900
  152SAPE   C2516831   2.174   1.193   6.732  0.0752  0.4744  0.2396
  152SAPE   H5R16832   2.101   1.115   6.707  1.2636 -0.3392 -0.8337
  152SAPE   C2616833   2.222   1.212   6.860 -0.1620 -0.2137  0.6467
  152SAPE   H6R16834   2.155   1.186   6.943  0.1702  1.1535  1.3647
  152SAPE   C2716835   2.343   1.295   6.900 -0.1642 -0.4725 -0.5471
  152SAPE   H7R16836   2.416   1.313   6.818 -1.1346  3.4323 -0.7325
  152SAPE   H7S16837   2.393   1.236   6.979 -1.1292  0.1803  0.5875
  152SAPE   C2816838   2.311   1.439   6.933 -0.3107 -0.6452 -0.7204
  152SAPE   H8R16839   2.307   1.514   6.852  1.4642  0.3865  0.0890
  152SAPE   C2916840   2.321   1.505   7.056  0.0271  0.0494  0.8736
  152SAPE   H9R16841   2.290   1.610   7.064  1.5105  0.4858  1.2120
  152SAPE  C21016842   2.351   1.435   7.190 -0.4106  0.2171 -0.8080
  152SAPE  H10R16843   2.372   1.326   7.186  0.5780  0.2226  1.9438
  152SAPE  H10S16844   2.259   1.444   7.250 -0.4313 -1.5812 -0.5016
  152SAPE  C21116845   2.457   1.496   7.270  0.4405  0.0877 -0.0202
  152SAPE  H11R16846   2.536   1.551   7.217 -1.8864  2.5057 -1.1915
  152SAPE  C21216847   2.468   1.478   7.404 -0.5392  0.4319  0.6872
  152SAPE  H12R16848   2.541   1.544   7.454  0.5711 -0.2238 -0.0218
  152SAPE  C21316849   2.374   1.393   7.487  0.1162  0.3520 -0.0510
  152SAPE  H13R16850   2.327   1.310   7.432  1.8021 -1.5065  1.1811
  152SAPE  H13S16851   2.291   1.454   7.529 -0.4758 -0.6745  0.2776
  152SAPE  C21416852   2.453   1.334   7.597 -0.3483 -0.0922 -0.5624
  152SAPE  H14R16853   2.543   1.278   7.568 -0.0233 -1.4344  2.5920
  152SAPE  C21516854   2.433   1.350   7.732  0.4192  0.5770  0.5234
  152SAPE  H15R16855   2.479   1.280   7.802 -1.1814 -0.0507  1.0020
  152SAPE  C21616856   2.323   1.429   7.801  0.5724  0.0339 -0.2255
  152SAPE  H16R16857   2.230   1.425   7.741  0.9033 -1.9709 -0.6860
  152SAPE  H16S16858   2.353   1.535   7.809  0.7446 -0.1008  1.0967
  152SAPE  C21716859   2.290   1.375   7.945  0.5053  0.0868 -0.0162
  152SAPE  H17R16860   2.388   1.369   7.996  0.7773  1.8077 -0.2937
  152SAPE  H17S16861   2.231   1.280   7.949 -0.8644  0.9572  2.1249
  152SAPE  C21816862   2.203   1.472   8.036  0.1062 -0.0224 -0.4149
  152SAPE  H18R16863   2.128   1.507   7.962  0.1191 -0.4220 -0.6194
  152SAPE  H18S16864   2.259   1.565   8.060 -0.7609  0.4571 -0.1792
  152SAPE  C21916865   2.162   1.396   8.156  0.0319 -0.0107  1.1550
  152SAPE  H19R16866   2.150   1.289   8.131 -0.2722  0.3319 -0.2148
  152SAPE  H19S16867   2.062   1.442   8.177  0.5631  2.2077 -0.8067
  152SAPE  C22016868   2.260   1.402   8.274  0.2139 -0.0720  0.4772
  152SAPE  H20R16869   2.350   1.348   8.236  0.2296  0.0439  0.3471
  152SAPE  H20S16870   2.223   1.358   8.369  0.2345 -0.0200  0.5095
  152SAPE  H20T16871   2.296   1.506   8.291  2.1789 -0.5399 -0.4634
  152SAPE   C3316872   1.370   1.410   6.557  0.2228 -0.0940 -0.0834
  152SAPE   H3X16873   1.288   1.340   6.583 -0.3269  0.2423 -0.8750
  152SAPE   H3Y16874   1.325   1.508   6.530  1.1611  0.0618 -1.1669
  152SAPE   C3416875   1.460   1.419   6.677  0.3043 -0.1453 -1.1424
  152SAPE   H4X16876   1.563   1.451   6.650  0.1614  0.3062 -1.1764
  152SAPE   H4Y16877   1.463   1.321   6.727 -1.8862  0.5036  0.4378
  152SAPE   C3516878   1.405   1.519   6.780  0.4994  0.2319 -0.2749
  152SAPE   H5X16879   1.295   1.520   6.766  0.5032 -2.0520 -0.8313
  152SAPE   H5Y16880   1.452   1.614   6.747  1.5215  0.1031  0.7528
  152SAPE   C3616881   1.446   1.485   6.923 -0.7249  0.1573  0.0400
  152SAPE   H6X16882   1.556   1.502   6.931 -0.7787  0.1989  0.7747
  152SAPE   H6Y16883   1.427   1.381   6.956  2.4955 -0.0152  1.7817
  152SAPE   C3716884   1.374   1.581   7.018  0.0239  0.5566 -0.1095
  152SAPE   H7X16885   1.269   1.572   6.983 -0.3922  0.3255  1.1469
  152SAPE   H7Y16886   1.415   1.684   7.016  3.4460 -0.4814  3.0697
  152SAPE   C3816887   1.380   1.527   7.157  0.2230 -0.3595 -0.0398
  152SAPE   H8X16888   1.324   1.431   7.156 -0.2519 -0.0831 -1.0647
  152SAPE   H8Y16889   1.330   1.597   7.227  1.4200  0.7929 -0.2940
  152SAPE   C3916890   1.527   1.525   7.220  0.7066 -0.8499 -0.4222
  152SAPE   H9X16891   1.560   1.630   7.206  0.4906 -1.0598 -3.0752
  152SAPE   H9Y16892   1.598   1.473   7.152  2.1134  1.0005 -0.4327
  152SAPE  C31016893   1.530   1.482   7.367 -0.4478  0.3706  0.2855
  152SAPE  H10X16894   1.627   1.516   7.409 -1.0619  1.8007  0.5759
  152SAPE  H10Y16895   1.537   1.371   7.361 -0.6793  0.2840  1.4718
  152SAPE  C31116896   1.413   1.539   7.453 -0.2326 -0.0352 -0.0533
  152SAPE  H11X16897   1.326   1.473   7.432 -2.3920  2.0434  1.9157
  152SAPE  H11Y16898   1.394   1.641   7.415  1.6371 -0.0456 -1.1611
  152SAPE  C31216899   1.430   1.558   7.604 -0.0870 -0.3009 -0.1073
  152SAPE  H12X16900   1.442   1.458   7.650  0.7627 -0.2829 -0.2796
  152SAPE  H12Y16901   1.331   1.597   7.638 -1.4830 -0.3719 -3.6539
  152SAPE  C31316902   1.547   1.656   7.639  0.2778 -0.6566  0.1054
  152SAPE  H13X16903   1.537   1.740   7.567 -2.7225  0.7064  1.9046
  152SAPE  H13Y16904   1.639   1.593   7.640  1.4832  1.0340  0.5592
  152SAPE  C31416905   1.531   1.709   7.784 -0.3109 -0.2564 -0.9111
  152SAPE  H14X16906   1.426   1.742   7.794 -0.6093 -1.5898  0.6962
  152SAPE  H14Y16907   1.592   1.802   7.792 -0.1836 -0.4158  0.1667
  152SAPE  C31516908   1.571   1.626   7.897 -0.1270  0.2388 -0.5044
  152SAPE  H15X16909   1.512   1.533   7.904  1.7967 -0.9900  0.3457
  152SAPE  H15Y16910   1.532   1.680   7.986 -2.4311  0.1605 -1.4153
  152SAPE  C31616911   1.722   1.589   7.915 -0.2258 -0.9593  0.0640
  152SAPE  H16X16912   1.780   1.684   7.913 -1.2355 -0.3146  0.7626
  152SAPE  H16Y16913   1.753   1.535   7.823 -2.0753 -1.0834 -0.5064
  152SAPE  C31716914   1.754   1.528   8.054 -0.1471 -0.3172 -0.2668
  152SAPE  H17X16915   1.853   1.480   8.039 -0.8351 -1.3371 -1.7249
  152SAPE  H17Y16916   1.684   1.444   8.070  2.5812 -2.5160  0.9691
  152SAPE  C31816917   1.758   1.634   8.170 -0.4704  0.2191 -0.0771
  152SAPE  H18X16918   1.657   1.680   8.176 -0.9525 -0.9948  1.9038
  152SAPE  H18Y16919   1.839   1.709   8.160 -1.1892  1.1480  0.8145
  152SAPE  H18Z16920   1.773   1.572   8.260  1.7025  1.4181  0.4533
  153SAPE     N16921   6.531   0.449   6.149 -0.6656 -0.0330 -0.2316
  153SAPE   HN116922   6.448   0.506   6.126 -0.6523 -1.0079 -3.1506
  153SAPE   HN216923   6.614   0.512   6.154 -0.8136  0.1993 -0.6804
  153SAPE   HN316924   6.552   0.389   6.066 -0.7778  2.2088 -1.9720
  153SAPE   C1216925   6.523   0.368   6.270 -0.3770  0.2834  0.6379
  153SAPE  H12A16926   6.525   0.434   6.360 -1.7913  0.0077  0.9105
  153SAPE  H12B16927   6.616   0.308   6.271  0.2490  1.0001 -2.9881
  153SAPE   C1116928   6.409   0.272   6.273  0.2122  0.8854 -0.0032
  153SAPE  H11A16929   6.317   0.333   6.286  0.3860  1.1979 -0.2212
  153SAPE  H11B16930   6.425   0.199   6.355  0.2469 -0.2191 -0.9611
  153SAPE     P16931   6.463   0.066   6.107 -0.2633 -0.1317  0.3632
  153SAPE   O1316932   6.435   0.042   5.962 -0.2070 -0.3959 -0.2788
  153SAPE   O1416933   6.610   0.057   6.150  0.4257 -0.6120  0.1978
  153SAPE   O1216934   6.393   0.205   6.144 -0.9449 -0.2046 -0.1623
  153SAPE   O1116935   6.380  -0.041   6.183  0.2591 -0.0376 -0.0802
  153SAPE    C116936   6.431  -0.179   6.167 -0.5492  0.5659  1.1813
  153SAPE    HA16937   6.356  -0.244   6.116  1.0781 -1.8504  1.7210
  153SAPE    HB16938   6.520  -0.188   6.102 -0.4025  0.0648  1.4496
  153SAPE    C216939   6.460  -0.243   6.304 -0.2291 -0.1791  0.9094
  153SAPE    HS16940   6.358  -0.240   6.347 -0.8843  1.3106 -0.6157
  153SAPE   O2116941   6.557  -0.166   6.372 -0.0593  0.0974 -0.1839
  153SAPE   C2116942   6.519  -0.074   6.457 -0.3949  0.8720 -0.3998
  153SAPE   O2216943   6.408  -0.049   6.486 -0.0549  0.4246 -0.1460
  153SAPE   C2216944   6.639   0.005   6.496  0.0732 -0.1906 -0.0416
  153SAPE   H2R16945   6.730  -0.056   6.478 -1.2441 -2.8627  1.5419
  153SAPE   H2S16946   6.643   0.089   6.424 -1.6188 -0.2083 -0.2098
  153SAPE    C316947   6.511  -0.387   6.277 -0.2546  1.2365 -0.1414
  153SAPE    HX16948   6.604  -0.380   6.217  0.8421  0.7902  1.4189
  153SAPE    HY16949   6.434  -0.445   6.222 -1.0751  0.2448  1.9429
  153SAPE   O3116950   6.528  -0.458   6.407 -0.1609 -0.2323  0.0151
  153SAPE   C3116951   6.642  -0.440   6.471 -0.1670  0.0209 -0.0379
  153SAPE   O3216952   6.738  -0.380   6.426  1.0203  0.1546  0.5654
  153SAPE   C3216953   6.633  -0.501   6.615 -0.1505 -0.2436  0.3363
  153SAPE   H2X16954   6.666  -0.606   6.610  0.3464 -0.0927  0.4292
  153SAPE   H2Y16955   6.527  -0.501   6.648 -0.2211  1.8702  0.2376
  153SAPE   C2316956   6.637   0.066   6.641 -0.2718  0.1360 -0.2204
  153SAPE   H3R16957   6.541   0.037   6.689 -0.5489 -2.4682 -2.0925
  153SAPE   H3S16958   6.630   0.176   6.643 -3.4876  0.0479 -1.4623
  153SAPE   C2416959   6.770   0.018   6.720  0.1742  0.2265  0.1597
  153SAPE   H4R16960   6.790  -0.090   6.707 -1.1404  0.1138 -1.2353
  153SAPE   H4S16961   6.761   0.036   6.830 -0.8218 -2.3492  0.5637
  153SAPE   C2516962   6.882   0.090   6.662  0.6183 -0.0030 -0.2214
  153SAPE   H5R16963   6.927   0.032   6.581 -0.5452 -1.4809  0.1502
  153SAPE   C2616964   6.930   0.209   6.694  0.5436 -0.1714  0.3174
  153SAPE   H6R16965   7.022   0.247   6.647  1.2724 -2.6263 -0.3921
  153SAPE   C2716966   6.884   0.301   6.801 -0.6096 -0.3020  0.0962
  153SAPE   H7R16967   6.955   0.269   6.880  3.3539 -3.1623 -4.1265
  153SAPE   H7S16968   6.779   0.272   6.825 -0.1455 -0.9064  1.5141
  153SAPE   C2816969   6.888   0.449   6.772  0.2572  0.4938  0.7936
  153SAPE   H8R16970   6.936   0.479   6.678 -1.2494 -1.2929 -0.6271
  153SAPE   C2916971   6.826   0.539   6.852 -0.0846  0.1142 -0.7145
  153SAPE   H9R16972   6.817   0.645   6.827 -0.0700  0.4685  0.7214
  153SAPE  C21016973   6.752   0.505   6.979  0.2947  0.5202 -0.6354
  153SAPE  H10R16974   6.822   0.437   7.032 -0.4809  1.3885  1.6364
  153SAPE  H10S16975   6.656   0.454   6.953  0.5811 -0.9982  1.0429
  153SAPE  C21116976   6.714   0.618   7.069  0.3227 -0.2226  0.1670
  153SAPE  H11R16977   6.787   0.700   7.061  0.0379 -0.0424 -0.7214
  153SAPE  C21216978   6.594   0.630   7.133 -0.4411  0.3713  0.1849
  153SAPE  H12R16979   6.576   0.722   7.192  0.2166 -0.4797  1.7858
  153SAPE  C21316980   6.483   0.524   7.137 -0.4815 -0.8119 -0.4344
  153SAPE  H13R16981   6.538   0.427   7.138  1.3226  0.1588 -0.1282
  153SAPE  H13S16982   6.443   0.544   7.035  1.0689  1.7488 -0.6265
  153SAPE  C21416983   6.374   0.531   7.250  0.4611 -0.3843  0.8795
  153SAPE  H14R16984   6.409   0.525   7.354  2.2726  2.1545  0.5203
  153SAPE  C21516985   6.241   0.564   7.223  0.1415  0.3621  0.0948
  153SAPE  H15R16986   6.183   0.566   7.317  3.0085 -2.0647  2.1164
  153SAPE  C21616987   6.173   0.597   7.096  0.1077 -0.6179  0.7363
  153SAPE  H16R16988   6.066   0.568   7.088  0.7537 -2.4665 -2.6816
  153SAPE  H16S16989   6.216   0.545   7.008 -2.6219 -0.1924 -0.9340
  153SAPE  C21716990   6.169   0.748   7.063 -0.4557 -0.7528  0.0275
  153SAPE  H17R16991   6.107   0.751   6.971  0.3910  1.1128 -0.5214
  153SAPE  H17S16992   6.274   0.767   7.031 -0.8870  0.4037 -0.7539
  153SAPE  C21816993   6.109   0.837   7.175  1.0724 -0.3340  0.0667
  153SAPE  H18R16994   6.181   0.837   7.260  1.5127 -0.5031 -0.3021
  153SAPE  H18S16995   6.008   0.793   7.189 -0.0105  2.0242  0.1466
  153SAPE  C21916996   6.089   0.983   7.123 -0.9165  0.5397 -0.5341
  153SAPE  H19R16997   6.015   0.980   7.040  2.6053 -1.7481 -3.8841
  153SAPE  H19S16998   6.184   1.001   7.068  0.3008 -3.9178 -0.2546
  153SAPE  C22016999   6.093   1.095   7.228  0.4899  0.1755  0.0655
  153SAPE  H20R17000   6.169   1.077   7.307  0.3448 -0.8158 -0.0109
  153SAPE  H20S17001   5.994   1.083   7.277 -0.4724 -1.3712 -2.1099
  153SAPE  H20T17002   6.115   1.193   7.180 -1.4007 -0.0056 -1.2654
  153SAPE   C3317003   6.715  -0.430   6.716  0.0340 -0.5342  0.3237
  153SAPE   H3X17004   6.686  -0.323   6.727 -0.5019 -0.4982 -1.1356
  153SAPE   H3Y17005   6.825  -0.428   6.702  0.3833 -1.3194  2.6079
  153SAPE   C3417006   6.699  -0.491   6.857  0.2030 -0.0454 -0.3047
  153SAPE   H4X17007   6.745  -0.592   6.862  2.3765  0.7129 -2.5622
  153SAPE   H4Y17008   6.595  -0.511   6.890  0.2595 -3.1928 -1.6933
  153SAPE   C3517009   6.766  -0.399   6.958  0.6095  0.4522  0.1020
  153SAPE   H5X17010   6.689  -0.322   6.979 -0.6979 -1.5284  3.2496
  153SAPE   H5Y17011   6.849  -0.354   6.898 -2.1323  2.9008 -2.1525
  153SAPE   C3617012   6.799  -0.472   7.087 -0.1034  0.3474 -0.2424
  153SAPE   H6X17013   6.863  -0.402   7.145  0.6235  2.6094 -3.5118
  153SAPE   H6Y17014   6.860  -0.563   7.073 -0.8600 -0.4717  1.4700
  153SAPE   C3717015   6.666  -0.512   7.164  0.8836  0.5747 -0.1193
  153SAPE   H7X17016   6.617  -0.585   7.096  0.8867  0.4101  0.0520
  153SAPE   H7Y17017   6.596  -0.429   7.183  0.6662  0.2376  0.5931
  153SAPE   C3817018   6.701  -0.568   7.300 -0.1956 -0.2688  0.5211
  153SAPE   H8X17019   6.772  -0.650   7.274  0.5884  0.9338 -1.3474
  153SAPE   H8Y17020   6.607  -0.614   7.336 -0.6637  0.2989  0.0336
  153SAPE   C3917021   6.743  -0.459   7.391  0.4934 -0.8707 -0.1730
  153SAPE   H9X17022   6.669  -0.377   7.393  1.8164  0.4535 -1.8254
  153SAPE   H9Y17023   6.839  -0.415   7.356  0.2810  2.1749  2.5917
  153SAPE  C31017024   6.765  -0.487   7.541  0.4291 -0.5850 -0.6746
  153SAPE  H10X17025   6.842  -0.567   7.540 -0.6970 -1.7046 -0.3208
  153SAPE  H10Y17026   6.681  -0.526   7.601  2.2485 -0.3681  2.2376
  153SAPE  C31117027   6.834  -0.366   7.615 -0.3365 -0.1306 -0.9553
  153SAPE  H11X17028   6.934  -0.348   7.571 -0.7051 -0.2733 -1.8750
  153SAPE  H11Y17029   6.860  -0.414   7.712 -1.5016 -3.0082 -1.9683
  153SAPE  C31217030   6.744  -0.242   7.644 -0.3971  0.1546 -1.0219
  153SAPE  H12X17031   6.655  -0.280   7.699  1.4301  0.1026  2.1665
  153SAPE  H12Y17032   6.709  -0.200   7.547 -1.3024 -0.9725 -1.2045
  153SAPE  C31317033   6.810  -0.140   7.748  0.3252 -0.4491  0.1469
  153SAPE  H13X17034   6.893  -0.086   7.698  0.2610 -1.0563 -0.6277
  153SAPE  H13Y17035   6.859  -0.194   7.832  1.9919  1.3951  0.4320
  153SAPE  C31417036   6.711  -0.041   7.806  0.0817 -0.1265  0.2324
  153SAPE  H14X17037   6.622  -0.088   7.852 -0.6019  1.7523  0.9258
  153SAPE  H14Y17038   6.673   0.024   7.725 -2.0063  0.7664  1.8316
  153SAPE  C31517039   6.770   0.038   7.932  0.1613 -0.7797  0.2986
  153SAPE  H15X17040   6.854   0.105   7.903  0.1977 -0.2439  1.5772
  153SAPE  H15Y17041   6.806  -0.047   7.994  0.5861  0.9166  2.4840
  153SAPE  C31617042   6.669   0.118   8.010  0.1177 -0.1510 -0.3717
  153SAPE  H16X17043   6.603   0.047   8.064  0.6727  0.2535  0.8577
  153SAPE  H16Y17044   6.602   0.186   7.952  1.1052  0.5233 -0.7428
  153SAPE  C31717045   6.738   0.203   8.117  0.3644  0.6162  0.5976
  153SAPE  H17X17046   6.686   0.299   8.135  1.5040  1.0648  1.6864
  153SAPE  H17Y17047   6.840   0.242   8.094  0.1123  0.9896  0.1147
  153SAPE  C31817048   6.737   0.133   8.254 -0.7101 -0.1795  0.1183
  153SAPE  H18X17049   6.782   0.201   8.329 -2.3411 -0.6969  1.6441
  153SAPE  H18Y17050   6.795   0.038   8.252 -0.5721 -0.0849 -1.7282
  153SAPE  H18Z17051   6.636   0.118   8.298 -0.5047  0.6577  0.9031
  154SAPE     N17052   3.784   6.695   5.862  0.0014 -0.9019 -1.0553
  154SAPE   HN117053   3.764   6.605   5.912  0.8705  1.7115  4.8946
  154SAPE   HN217054   3.738   6.714   5.771  0.4946 -0.0451 -1.1370
  154SAPE   HN317055   3.887   6.685   5.854 -0.0504 -0.6428 -2.2473
  154SAPE   C1217056   3.739   6.796   5.971  0.0967 -0.0230  0.6445
  154SAPE  H12A17057   3.805   6.772   6.057  0.3328  1.1373  0.8106
  154SAPE  H12B17058   3.630   6.777   5.985 -0.4478 -1.2021 -3.7335
  154SAPE   C1117059   3.759   6.944   5.930 -0.0614 -0.0337  0.3053
  154SAPE  H11A17060   3.719   6.972   5.829 -1.3222  1.5465  1.1960
  154SAPE  H11B17061   3.868   6.958   5.922 -0.0066 -0.6150 -0.0624
  154SAPE     P17062   3.573   7.084   6.043  0.2411 -0.2720 -0.0141
  154SAPE   O1317063   3.585   7.201   6.132 -0.3874 -0.2698  0.5480
  154SAPE   O1417064   3.518   7.115   5.907 -0.1567  0.0517  0.1373
  154SAPE   O1217065   3.719   7.028   6.034 -0.1875 -0.0795 -0.3248
  154SAPE   O1117066   3.488   6.977   6.115  0.2280 -0.0530 -0.2971
  154SAPE    C117067   3.469   6.977   6.257  0.2639  0.9272 -0.3592
  154SAPE    HA17068   3.442   7.077   6.295 -1.2624 -0.6104  3.0485
  154SAPE    HB17069   3.391   6.902   6.284 -0.5275  1.0845 -2.0394
  154SAPE    C217070   3.594   6.942   6.339  0.0521 -0.1116  0.7520
  154SAPE    HS17071   3.680   6.998   6.296 -0.9476  0.2396 -0.8675
  154SAPE   O2117072   3.624   6.805   6.307  0.0466 -0.2948 -0.1582
  154SAPE   C2117073   3.741   6.772   6.365  0.9022  0.0399 -0.5772
  154SAPE   O2217074   3.818   6.847   6.418 -0.4390  0.5231  0.3709
  154SAPE   C2217075   3.763   6.622   6.355  0.0609 -0.8673  0.6158
  154SAPE   H2R17076   3.771   6.602   6.246 -1.1159 -1.4583  0.6213
  154SAPE   H2S17077   3.865   6.610   6.397  0.1772  1.0987  1.0191
  154SAPE    C317078   3.579   6.974   6.489  0.0882  0.2610  0.2008
  154SAPE    HX17079   3.570   7.084   6.506  3.3859  0.5749  0.7283
  154SAPE    HY17080   3.675   6.949   6.541  0.4287  0.0033 -0.5475
  154SAPE   O3117081   3.487   6.889   6.551  0.0222  0.4006  0.1362
  154SAPE   C3117082   3.440   6.945   6.662 -0.3895 -0.2329  1.1320
  154SAPE   O3217083   3.462   7.050   6.711 -0.3572  0.1690 -0.3352
  154SAPE   C3217084   3.335   6.846   6.709  0.1855 -0.4392  0.2484
  154SAPE   H2X17085   3.293   6.791   6.621 -2.0060  1.1659  0.2128
  154SAPE   H2Y17086   3.256   6.919   6.738  0.6932  1.0192 -1.8377
  154SAPE   C2317087   3.652   6.539   6.414 -0.7573  0.9017 -0.4810
  154SAPE   H3R17088   3.664   6.430   6.396 -0.1899  0.9478 -0.3924
  154SAPE   H3S17089   3.556   6.566   6.365 -1.2264  0.0842 -0.0310
  154SAPE   C2417090   3.626   6.550   6.570 -0.1149 -0.4381 -0.2648
  154SAPE   H4R17091   3.535   6.489   6.590 -1.5788  1.2270 -1.5385
  154SAPE   H4S17092   3.601   6.654   6.600 -1.5164 -0.5018 -1.1219
  154SAPE   C2517093   3.733   6.491   6.655  0.0371 -0.7254 -0.1229
  154SAPE   H5R17094   3.792   6.407   6.616 -1.1029 -2.0791  0.9574
  154SAPE   C2617095   3.793   6.539   6.763 -0.5050 -0.4171  0.4687
  154SAPE   H6R17096   3.873   6.477   6.805  2.5298  2.1319 -1.0825
  154SAPE   C2717097   3.761   6.671   6.840 -0.1080  0.2688  0.0065
  154SAPE   H7R17098   3.696   6.653   6.929  1.6578 -0.5629  1.1993
  154SAPE   H7S17099   3.699   6.739   6.778  0.5745  1.1461  0.2635
  154SAPE   C2817100   3.889   6.738   6.874 -0.3373 -0.6569  0.0452
  154SAPE   H8R17101   3.965   6.751   6.796 -1.6003  1.0446 -0.9856
  154SAPE   C2917102   3.929   6.764   7.001  0.3803  0.0750 -0.8431
  154SAPE   H9R17103   4.024   6.821   7.002  0.5493 -0.1958 -1.1438
  154SAPE  C21017104   3.854   6.735   7.134  0.4331  0.1859 -0.2574
  154SAPE  H10R17105   3.757   6.683   7.119  0.4508 -0.0226  0.3511
  154SAPE  H10S17106   3.834   6.838   7.170 -0.1601  0.3736 -1.0901
  154SAPE  C21117107   3.951   6.647   7.215 -0.2546  0.8266 -0.5639
  154SAPE  H11R17108   3.992   6.559   7.162 -1.0747  0.3131 -0.3542
  154SAPE  C21217109   3.971   6.667   7.345  0.1406  0.5534 -0.8993
  154SAPE  H12R17110   4.042   6.595   7.388  0.0646 -0.0747 -1.8107
  154SAPE  C21317111   3.916   6.773   7.440 -0.0096  0.4781 -0.4481
  154SAPE  H13R17112   3.830   6.722   7.489  2.3639 -4.3585 -0.6447
  154SAPE  H13S17113   3.871   6.858   7.385  0.2713  0.9342  0.0301
  154SAPE  C21417114   4.037   6.814   7.524 -0.4390 -0.6817  0.1004
  154SAPE  H14R17115   4.133   6.823   7.471  0.4832  1.3702  1.9224
  154SAPE  C21517116   4.038   6.841   7.658  0.1001 -0.1258 -0.4954
  154SAPE  H15R17117   4.134   6.868   7.704 -1.1348 -0.8142  2.7949
  154SAPE  C21617118   3.924   6.849   7.762  0.1043  0.1818  0.6083
  154SAPE  H16R17119   3.928   6.759   7.826 -0.5873 -0.7889 -0.6791
  154SAPE  H16S17120   3.826   6.840   7.710  0.0300 -0.4913  0.8556
  154SAPE  C21717121   3.924   6.975   7.849  0.1706  0.3245 -0.1366
  154SAPE  H17R17122   3.895   7.060   7.784 -0.1909  0.5574  0.3270
  154SAPE  H17S17123   4.024   6.985   7.896  1.2864  1.5550 -2.5605
  154SAPE  C21817124   3.813   6.967   7.959  0.1611 -0.1963  0.1043
  154SAPE  H18R17125   3.824   6.876   8.022 -1.4383  0.9136  2.1164
  154SAPE  H18S17126   3.710   6.971   7.917  0.6756  0.7463 -1.1271
  154SAPE  C21917127   3.823   7.097   8.036  0.0308 -0.3875  0.1416
  154SAPE  H19R17128   3.813   7.179   7.962  1.9695  0.9875  1.2967
  154SAPE  H19S17129   3.919   7.098   8.093  1.1299  0.4508 -1.6258
  154SAPE  C22017130   3.714   7.106   8.137  0.5059  0.8045 -0.5550
  154SAPE  H20R17131   3.714   7.016   8.203 -1.1578  1.7318  0.7960
  154SAPE  H20S17132   3.621   7.104   8.077  0.5402 -0.6318 -0.6057
  154SAPE  H20T17133   3.733   7.189   8.208  1.5707  0.1805 -0.0788
  154SAPE   C3317134   3.379   6.761   6.832 -0.1315  0.2453  0.6093
  154SAPE   H3X17135   3.483   6.723   6.816 -0.3610 -0.1424  0.0062
  154SAPE   H3Y17136   3.311   6.673   6.839 -1.4848  1.1947 -0.1225
  154SAPE   C3417137   3.381   6.840   6.967 -0.0115  0.2506 -0.1565
  154SAPE   H4X17138   3.277   6.872   6.991  0.2967 -0.0222  1.7042
  154SAPE   H4Y17139   3.436   6.935   6.956 -1.4000  1.3517  1.8095
  154SAPE   C3517140   3.431   6.759   7.084  0.8922  0.5406  0.4476
  154SAPE   H5X17141   3.513   6.690   7.057 -1.0563 -1.3349 -1.0116
  154SAPE   H5Y17142   3.349   6.685   7.096  0.8712  0.5222  0.1897
  154SAPE   C3617143   3.452   6.827   7.216 -0.2321 -0.6045  0.1225
  154SAPE   H6X17144   3.360   6.882   7.243  0.5611  0.3624  0.9596
  154SAPE   H6Y17145   3.529   6.905   7.200 -0.3435 -0.3938  0.5879
  154SAPE   C3717146   3.476   6.733   7.333 -0.8397 -0.5732 -0.3413
  154SAPE   H7X17147   3.564   6.666   7.324 -1.0975 -0.9195 -0.3227
  154SAPE   H7Y17148   3.393   6.659   7.336  0.1689 -1.8750 -2.1683
  154SAPE   C3817149   3.482   6.813   7.463 -0.4894 -0.8951  0.3900
  154SAPE   H8X17150   3.420   6.905   7.460  2.2716  1.0723  0.1342
  154SAPE   H8Y17151   3.586   6.850   7.470 -0.3999 -1.1415  0.3676
  154SAPE   C3917152   3.433   6.734   7.581  0.3527  0.4598 -0.0448
  154SAPE   H9X17153   3.496   6.644   7.595  0.0198  0.1302 -0.6112
  154SAPE   H9Y17154   3.331   6.692   7.568  0.4735 -0.6478  2.1416
  154SAPE  C31017155   3.448   6.812   7.715  0.0344  0.6179 -0.5075
  154SAPE  H10X17156   3.367   6.888   7.714  1.2979  2.1318 -3.9137
  154SAPE  H10Y17157   3.539   6.875   7.705  0.6430  0.2587  2.0321
  154SAPE  C31117158   3.462   6.735   7.843 -0.5009  0.9572  0.3703
  154SAPE  H11X17159   3.566   6.697   7.836 -1.1738 -1.1225  0.8786
  154SAPE  H11Y17160   3.383   6.657   7.843  0.3313  0.0981 -0.1393
  154SAPE  C31217161   3.445   6.810   7.976  0.6905  0.0556  0.2303
  154SAPE  H12X17162   3.336   6.831   7.983  0.5975 -0.5228  0.6598
  154SAPE  H12Y17163   3.498   6.907   7.979 -0.7524  1.0442 -2.6409
  154SAPE  C31317164   3.494   6.732   8.100  0.0937  0.1832  0.0095
  154SAPE  H13X17165   3.488   6.802   8.186 -1.7579  0.2706 -0.1334
  154SAPE  H13Y17166   3.600   6.699   8.096 -0.2656 -0.9327 -1.1788
  154SAPE  C31417167   3.415   6.604   8.122  0.0661  0.3718 -0.3970
  154SAPE  H14X17168   3.463   6.523   8.063  1.0304  0.7707 -0.1768
  154SAPE  H14Y17169   3.310   6.605   8.086 -0.4518  3.0086  0.9256
  154SAPE  C31517170   3.406   6.567   8.273 -0.0311 -0.2418  0.0354
  154SAPE  H15X17171   3.395   6.661   8.331  1.8761 -0.1936  0.3961
  154SAPE  H15Y17172   3.500   6.511   8.294  1.1987 -0.1857 -4.3439
  154SAPE  C31617173   3.294   6.468   8.297  0.7089 -0.0925 -0.0036
  154SAPE  H16X17174   3.301   6.379   8.231 -0.2852 -0.2049  0.0367
  154SAPE  H16Y17175   3.198   6.516   8.271 -0.1701 -2.1615 -0.8110
  154SAPE  C31717176   3.275   6.420   8.441  0.0490  0.1810  0.3414
  154SAPE  H17X17177   3.369   6.364   8.458 -0.1588 -0.4845 -0.6037
  154SAPE  H17Y17178   3.191   6.348   8.432 -0.0170  0.3967 -0.9261
  154SAPE  C31817179   3.255   6.520   8.557  0.1858  0.2612  0.6309
  154SAPE  H18X17180   3.348   6.582   8.558 -0.6990  1.6376  1.3491
  154SAPE  H18Y17181   3.254   6.469   8.656  0.0177  0.7714  0.9023
  154SAPE  H18Z17182   3.167   6.587   8.551 -1.2705 -1.7438 -2.1980
  155SAPE     N17183   4.061   6.200   6.029  0.8664  0.2816 -0.5881
  155SAPE   HN117184   4.150   6.165   6.070  0.1091 -0.1773  0.6994
  155SAPE   HN217185   4.026   6.120   5.973  0.6523 -1.7053  2.1895
  155SAPE   HN317186   4.085   6.284   5.971  0.8545  0.4316 -0.3751
  155SAPE   C1217187   3.960   6.236   6.133  0.6235 -0.4195  0.2653
  155SAPE  H12A17188   3.936   6.150   6.198  0.5700 -1.1327 -0.6757
  155SAPE  H12B17189   3.862   6.243   6.081  1.4191 -2.7449 -1.7097
  155SAPE   C1117190   3.999   6.362   6.212  0.1859 -0.4036  0.5764
  155SAPE  H11A17191   4.088   6.330   6.270  0.0646  1.4092  1.8445
  155SAPE  H11B17192   3.924   6.397   6.287 -2.8310  0.1992 -2.4532
  155SAPE     P17193   4.139   6.579   6.175  0.1259  0.1309  0.1731
  155SAPE   O1317194   4.270   6.512   6.166 -0.4676 -0.8231 -0.1788
  155SAPE   O1417195   4.123   6.705   6.097 -0.3427  0.4272 -0.3962
  155SAPE   O1217196   4.035   6.470   6.124 -0.2554  0.4633  1.0823
  155SAPE   O1117197   4.094   6.593   6.328 -0.1866 -0.1170 -0.4847
  155SAPE    C117198   4.161   6.685   6.414 -0.6115  0.0712 -0.3592
  155SAPE    HA17199   4.271   6.683   6.400  0.0403 -0.0655  3.6526
  155SAPE    HB17200   4.137   6.793   6.406 -1.3456 -0.0777 -0.2828
  155SAPE    C217201   4.144   6.635   6.564 -0.4026  0.1127  0.3852
  155SAPE    HS17202   4.043   6.666   6.596 -2.3362 -2.3806 -2.6397
  155SAPE   O2117203   4.261   6.683   6.626 -0.9353  0.1150  0.7768
  155SAPE   C2117204   4.257   6.803   6.678  0.3856 -0.8889 -0.1816
  155SAPE   O2217205   4.159   6.878   6.689 -0.3622  0.4197 -0.3504
  155SAPE   C2217206   4.403   6.834   6.715  0.3137 -0.3525  0.2455
  155SAPE   H2R17207   4.436   6.756   6.787 -0.7410 -0.4616  0.6398
  155SAPE   H2S17208   4.468   6.833   6.625  0.0032  1.9518 -0.0600
  155SAPE    C317209   4.148   6.477   6.568  0.0317 -0.2401 -0.1562
  155SAPE    HX17210   4.251   6.457   6.533 -0.1918 -0.9231 -0.4259
  155SAPE    HY17211   4.080   6.417   6.503  0.2466 -0.7207  0.0613
  155SAPE   O3117212   4.124   6.438   6.707 -0.2392  0.0607 -0.4440
  155SAPE   C3117213   4.220   6.356   6.752  0.4807 -0.6999 -0.5514
  155SAPE   O3217214   4.293   6.289   6.686 -0.5871 -0.4739  1.1687
  155SAPE   C3217215   4.216   6.365   6.911 -0.5967 -0.0236 -0.8016
  155SAPE   H2X17216   4.292   6.298   6.954 -0.7474  0.0150 -0.4645
  155SAPE   H2Y17217   4.117   6.335   6.952  0.7046 -1.9652  1.1080
  155SAPE   C2317218   4.421   6.969   6.785  0.1003 -0.6559  0.7750
  155SAPE   H3R17219   4.339   6.990   6.856 -0.1807  0.8807  0.0438
  155SAPE   H3S17220   4.403   7.049   6.710 -0.2767 -1.3278  0.1385
  155SAPE   C2417221   4.563   6.989   6.851  0.1880  0.6327  0.4387
  155SAPE   H4R17222   4.574   7.099   6.864  1.9042  0.7308 -1.3368
  155SAPE   H4S17223   4.639   6.964   6.774 -0.7689 -1.1051 -0.0089
  155SAPE   C2517224   4.578   6.917   6.982 -0.1799  0.0317  0.0668
  155SAPE   H5R17225   4.506   6.836   7.002  0.9171 -1.2587 -0.9604
  155SAPE   C2617226   4.661   6.962   7.081 -0.3218  0.2505 -0.1663
  155SAPE   H6R17227   4.674   6.900   7.172  5.0898  0.2376 -0.5856
  155SAPE   C2717228   4.763   7.073   7.081 -0.7735  0.1732 -0.0544
  155SAPE   H7R17229   4.801   7.090   6.978  0.0487  2.5638  0.5728
  155SAPE   H7S17230   4.852   7.036   7.136 -0.3327 -0.2686 -1.0345
  155SAPE   C2817231   4.715   7.203   7.140  0.1374 -0.0939 -0.1203
  155SAPE   H8R17232   4.695   7.285   7.069 -0.3315 -0.4545 -0.4138
  155SAPE   C2917233   4.694   7.225   7.273  0.0171  0.3503  0.6778
  155SAPE   H9R17234   4.651   7.323   7.295 -0.4123  0.0458  1.2228
  155SAPE  C21017235   4.715   7.140   7.390  0.2901  0.6277 -0.3851
  155SAPE  H10R17236   4.748   7.037   7.366  1.4586  0.4145  1.8797
  155SAPE  H10S17237   4.619   7.127   7.444 -1.4316  1.9691 -2.9124
  155SAPE  C21117238   4.810   7.194   7.496 -0.7269  0.4752  0.9397
  155SAPE  H11R17239   4.913   7.212   7.460 -0.2993 -1.9207  0.8505
  155SAPE  C21217240   4.792   7.228   7.627  0.1879 -0.1730 -0.2139
  155SAPE  H12R17241   4.884   7.258   7.678  1.3338 -0.3201 -2.1058
  155SAPE  C21317242   4.668   7.227   7.704 -0.3168 -0.5883  0.4520
  155SAPE  H13R17243   4.580   7.202   7.640 -1.2422 -1.4566  2.0107
  155SAPE  H13S17244   4.661   7.331   7.742  0.2921 -0.1448 -0.6015
  155SAPE  C21417245   4.685   7.134   7.819 -0.4039 -0.3731  0.1932
  155SAPE  H14R17246   4.706   7.032   7.785  0.3843  0.2380 -1.2642
  155SAPE  C21517247   4.724   7.165   7.943  0.4278 -1.3098  0.8427
  155SAPE  H15R17248   4.728   7.090   8.024  1.6948  1.5400  3.6136
  155SAPE  C21617249   4.722   7.306   7.997 -0.3681 -0.3434  0.0656
  155SAPE  H16R17250   4.623   7.332   8.041  0.8032  2.5665  1.2682
  155SAPE  H16S17251   4.737   7.386   7.921  0.3534 -0.8024 -0.2790
  155SAPE  C21717252   4.837   7.315   8.104  0.0391  0.3681  0.2355
  155SAPE  H17R17253   4.934   7.289   8.056  0.6777 -2.7567  2.8597
  155SAPE  H17S17254   4.830   7.251   8.194  0.6024  1.3927  1.0232
  155SAPE  C21817255   4.846   7.459   8.153 -0.5487 -0.3342  1.0725
  155SAPE  H18R17256   4.750   7.498   8.193 -0.4694  1.4356 -0.3392
  155SAPE  H18S17257   4.878   7.526   8.070 -0.5526 -0.3463  1.0609
  155SAPE  C21917258   4.953   7.483   8.252 -0.6137  0.1026 -1.2973
  155SAPE  H19R17259   4.926   7.454   8.355 -1.5936 -0.5043 -1.7149
  155SAPE  H19S17260   4.962   7.594   8.263  1.6153 -0.2462  1.4987
  155SAPE  C22017261   5.089   7.428   8.209  0.6896  1.0212  0.1987
  155SAPE  H20R17262   5.174   7.473   8.265  1.1566  0.8767 -0.3882
  155SAPE  H20S17263   5.105   7.442   8.100 -0.0037 -2.1096 -0.3911
  155SAPE  H20T17264   5.087   7.318   8.226 -0.4261  0.7715 -1.3616
  155SAPE   C3317265   4.235   6.508   6.961 -0.2288  0.3473 -1.0050
  155SAPE   H3X17266   4.148   6.576   6.948  2.0577  3.5215 -1.0257
  155SAPE   H3Y17267   4.320   6.550   6.903 -0.2739 -0.1726 -1.4592
  155SAPE   C3417268   4.277   6.511   7.107 -0.0244 -0.5687 -0.1662
  155SAPE   H4X17269   4.358   6.437   7.124  0.7794  0.8434  2.7862
  155SAPE   H4Y17270   4.190   6.480   7.169  0.3536 -2.1958 -0.4088
  155SAPE   C3517271   4.333   6.648   7.155 -0.3495 -0.0559  0.4489
  155SAPE   H5X17272   4.258   6.728   7.136 -0.3429 -0.9323 -4.3125
  155SAPE   H5Y17273   4.412   6.673   7.082 -0.0487 -1.7118  0.1761
  155SAPE   C3617274   4.382   6.638   7.300 -0.6102  0.1562 -0.3806
  155SAPE   H6X17275   4.401   6.531   7.322  3.4923  0.8315  0.1845
  155SAPE   H6Y17276   4.301   6.673   7.367  0.1953  1.0101  0.1696
  155SAPE   C3717277   4.508   6.726   7.313  0.2212  0.9389  0.1955
  155SAPE   H7X17278   4.487   6.827   7.272  1.7845  0.2781 -2.4737
  155SAPE   H7Y17279   4.593   6.683   7.255  1.4793  1.8793  1.2672
  155SAPE   C3817280   4.571   6.734   7.457 -0.6986 -0.2482  0.6081
  155SAPE   H8X17281   4.640   6.820   7.447 -1.5293  0.2495 -1.3836
  155SAPE   H8Y17282   4.632   6.644   7.479 -1.4894 -0.7604  0.7562
  155SAPE   C3917283   4.491   6.761   7.579  0.5013  0.0766  0.0105
  155SAPE   H9X17284   4.413   6.683   7.589 -1.1578  1.6847  0.2207
  155SAPE   H9Y17285   4.434   6.857   7.576  0.4607  0.0353 -2.6215
  155SAPE  C31017286   4.576   6.756   7.703 -0.4081  0.4396 -0.1415
  155SAPE  H10X17287   4.660   6.825   7.680 -0.0232 -0.7626 -2.7256
  155SAPE  H10Y17288   4.614   6.652   7.715  1.4281  1.1358  0.5607
  155SAPE  C31117289   4.497   6.806   7.824  0.0362  0.9708  0.4949
  155SAPE  H11X17290   4.453   6.904   7.798 -0.9802  0.0828 -1.4364
  155SAPE  H11Y17291   4.549   6.819   7.921  0.1556  0.4478  0.5063
  155SAPE  C31217292   4.381   6.703   7.856 -0.1337  0.0667  0.1231
  155SAPE  H12X17293   4.431   6.605   7.873  1.2771  0.5103 -1.2336
  155SAPE  H12Y17294   4.317   6.698   7.765  1.3406  0.1015 -0.9549
  155SAPE  C31317295   4.300   6.748   7.981 -0.1411  0.0666  0.3068
  155SAPE  H13X17296   4.249   6.845   7.961 -1.5000 -0.4524  1.1427
  155SAPE  H13Y17297   4.372   6.747   8.065  0.6973  1.1762 -0.3659
  155SAPE  C31417298   4.183   6.665   8.019 -0.4232  0.6045  0.6712
  155SAPE  H14X17299   4.216   6.564   8.051 -1.5402 -0.1048 -0.3333
  155SAPE  H14Y17300   4.119   6.658   7.928 -1.0466  2.1600  0.9554
  155SAPE  C31517301   4.105   6.701   8.144 -0.2612 -0.2892 -0.1138
  155SAPE  H15X17302   4.064   6.804   8.142 -2.6820 -1.2107 -1.5581
  155SAPE  H15Y17303   4.177   6.680   8.226  0.7712  2.3332 -0.2344
  155SAPE  C31617304   3.980   6.623   8.169 -0.1614 -0.5057 -0.0704
  155SAPE  H16X17305   3.993   6.514   8.182 -0.9388 -0.6013 -0.0471
  155SAPE  H16Y17306   3.917   6.633   8.078 -0.1465  0.1348 -0.0165
  155SAPE  C31717307   3.904   6.667   8.297  1.1079 -0.4653 -0.0526
  155SAPE  H17X17308   3.842   6.751   8.258  1.1635  2.3586  5.0586
  155SAPE  H17Y17309   3.961   6.710   8.381  3.4044 -3.0557 -0.1596
  155SAPE  C31817310   3.802   6.568   8.350  0.1015 -0.7859 -0.0224
  155SAPE  H18X17311   3.852   6.473   8.381 -1.2145 -1.9890 -1.4629
  155SAPE  H18Y17312   3.730   6.538   8.272 -0.9077 -2.1321  1.3571
  155SAPE  H18Z17313   3.743   6.617   8.431  0.9269 -1.2690  0.8938
  156SAPE     N17314   1.824   0.727   5.964  0.5716  0.2991 -0.0641
  156SAPE   HN117315   1.809   0.791   5.883 -1.7780  0.7085  0.6327
  156SAPE   HN217316   1.925   0.738   5.987  0.4913  3.0287 -0.7727
  156SAPE   HN317317   1.812   0.628   5.934 -1.6464  0.2768  0.7291
  156SAPE   C1217318   1.747   0.768   6.086  0.4113 -0.2203 -0.1086
  156SAPE  H12A17319   1.794   0.859   6.130  0.8265 -0.0304 -0.9171
  156SAPE  H12B17320   1.752   0.687   6.162  2.6437 -1.4742 -1.4750
  156SAPE   C1117321   1.599   0.787   6.049  1.1460 -0.0624  0.2605
  156SAPE  H11A17322   1.551   0.825   6.142 -0.2038  0.1935 -0.5090
  156SAPE  H11B17323   1.562   0.686   6.021  1.3395  0.4341 -1.9001
  156SAPE     P17324   1.425   0.887   5.875 -0.0130  0.3683  0.2160
  156SAPE   O1317325   1.412   1.008   5.797  0.5539 -0.3747  0.6508
  156SAPE   O1417326   1.407   0.760   5.811 -0.2490  0.3587  0.4584
  156SAPE   O1217327   1.569   0.883   5.948 -0.6954 -0.1250  0.5782
  156SAPE   O1117328   1.328   0.907   6.001 -0.2217  0.3811 -0.5994
  156SAPE    C117329   1.233   0.812   6.034  0.7935  0.2111 -0.3729
  156SAPE    HA17330   1.167   0.788   5.949  0.4397 -1.6602  0.3902
  156SAPE    HB17331   1.284   0.717   6.060  1.0624  0.2265 -0.8274
  156SAPE    C217332   1.136   0.858   6.151 -0.8051 -0.5705  0.2610
  156SAPE    HS17333   1.098   0.954   6.111 -1.0648 -1.0558 -0.6860
  156SAPE   O2117334   1.213   0.864   6.269  0.3357  0.0286  0.1172
  156SAPE   C2117335   1.188   0.957   6.356  0.3263 -0.3531 -0.9463
  156SAPE   O2217336   1.117   1.057   6.342  0.1946  0.0243 -0.0910
  156SAPE   C2217337   1.252   0.910   6.483  0.4960 -0.8342 -0.3812
  156SAPE   H2R17338   1.210   0.812   6.517  0.3720 -0.5645  0.2501
  156SAPE   H2S17339   1.360   0.891   6.461  1.0728  1.4344  0.2856
  156SAPE    C317340   1.023   0.762   6.161 -0.6389  0.3001  0.2151
  156SAPE    HX17341   1.064   0.661   6.182 -0.5369 -0.2463 -2.2773
  156SAPE    HY17342   0.972   0.742   6.064  1.0038 -1.7955 -0.2871
  156SAPE   O3117343   0.918   0.798   6.260  0.0765  0.7545  0.0947
  156SAPE   C3117344   0.830   0.889   6.221 -0.3565 -0.5417  0.6675
  156SAPE   O3217345   0.817   0.926   6.105  0.8081 -0.1249 -0.0685
  156SAPE   C3217346   0.766   0.946   6.338 -0.0277 -0.4145 -0.4051
  156SAPE   H2X17347   0.802   1.048   6.365 -2.3432 -0.1992  2.4495
  156SAPE   H2Y17348   0.780   0.892   6.434 -0.4648 -0.2675 -0.2552
  156SAPE   C2317349   1.248   1.013   6.599 -0.3548  0.5817 -0.3153
  156SAPE   H3R17350   1.144   1.021   6.637 -0.0881 -1.2907  0.9305
  156SAPE   H3S17351   1.289   1.104   6.550  1.0922 -0.1430 -0.5116
  156SAPE   C2417352   1.341   0.983   6.715  1.1907  0.6041 -0.1500
  156SAPE   H4R17353   1.330   1.065   6.790 -0.1144 -1.0433  1.5485
  156SAPE   H4S17354   1.445   1.000   6.681  1.1759  0.0935 -0.4603
  156SAPE   C2517355   1.323   0.853   6.776  0.2641 -0.1003 -0.4755
  156SAPE   H5R17356   1.370   0.771   6.719  2.0851  1.1309 -0.8388
  156SAPE   C2617357   1.263   0.831   6.896  0.1890  0.5156  0.4522
  156SAPE   H6R17358   1.261   0.732   6.944 -1.3522  1.0927  1.6569
  156SAPE   C2717359   1.190   0.930   6.976 -0.3698  0.4995  0.2904
  156SAPE   H7R17360   1.147   1.006   6.906 -0.0739 -1.4006 -2.0812
  156SAPE   H7S17361   1.250   0.999   7.039  0.5270 -0.8139  0.9280
  156SAPE   C2817362   1.066   0.870   7.041  0.7391  0.2785 -0.1989
  156SAPE   H8R17363   1.029   0.788   6.978  2.4567 -1.2749  0.7405
  156SAPE   C2917364   1.001   0.905   7.153 -0.7022 -0.5233 -0.2093
  156SAPE   H9R17365   0.910   0.851   7.181 -1.3390  0.9130  0.6157
  156SAPE  C21017366   1.039   1.022   7.237 -0.3467  0.1209  0.1964
  156SAPE  H10R17367   1.150   1.020   7.249 -0.1136  0.3465 -1.5854
  156SAPE  H10S17368   0.994   0.994   7.334  0.1318  1.2303  0.7554
  156SAPE  C21117369   0.983   1.143   7.183 -0.8457 -0.3262 -0.0705
  156SAPE  H11R17370   0.931   1.134   7.087 -2.4581  0.2259  0.7087
  156SAPE  C21217371   0.985   1.267   7.233 -0.6433 -0.2701  0.3302
  156SAPE  H12R17372   0.940   1.352   7.178 -0.1257 -0.3892 -0.2890
  156SAPE  C21317373   1.030   1.315   7.376  0.6681 -0.2555  0.5050
  156SAPE  H13R17374   1.090   1.409   7.368 -0.8094  0.6188 -0.8287
  156SAPE  H13S17375   1.086   1.230   7.420  0.7886 -1.1665 -1.2918
  156SAPE  C21417376   0.920   1.340   7.473 -0.0496 -0.2356  0.2075
  156SAPE  H14R17377   0.822   1.348   7.423  0.1709 -2.9604 -0.8738
  156SAPE  C21517378   0.924   1.363   7.604  0.0050 -0.0163 -0.2060
  156SAPE  H15R17379   0.832   1.382   7.661  0.7447  0.9680  0.6870
  156SAPE  C21617380   1.055   1.359   7.684  0.0352  0.3751  0.1778
  156SAPE  H16R17381   1.062   1.453   7.743 -1.8421  1.3254 -1.0228
  156SAPE  H16S17382   1.148   1.364   7.624  0.3424  1.0373  0.6917
  156SAPE  C21717383   1.059   1.238   7.776 -0.1873 -0.0741 -0.1842
  156SAPE  H17R17384   0.958   1.231   7.821  1.1300  1.8118  3.4582
  156SAPE  H17S17385   1.113   1.261   7.870 -2.1420  0.4099  0.8729
  156SAPE  C21817386   1.129   1.118   7.706  0.3763 -0.4245 -0.1195
  156SAPE  H18R17387   1.231   1.159   7.691  0.5885 -1.3645 -1.4039
  156SAPE  H18S17388   1.094   1.107   7.601  0.0635 -0.5581 -0.0042
  156SAPE  C21917389   1.125   0.989   7.789  0.3072 -0.4456  0.0214
  156SAPE  H19R17390   1.153   1.005   7.895  3.7210  1.3435 -0.9995
  156SAPE  H19S17391   1.193   0.909   7.752 -1.4362 -2.1590  0.3733
  156SAPE  C22017392   0.989   0.919   7.775  0.1223  0.0699 -1.0446
  156SAPE  H20R17393   0.996   0.814   7.811 -0.1211  0.0959 -0.9233
  156SAPE  H20S17394   0.955   0.928   7.670 -2.6230  1.2181 -0.1436
  156SAPE  H20T17395   0.908   0.965   7.835  0.0795 -0.4074 -0.7335
  156SAPE   C3317396   0.614   0.943   6.338 -0.1921 -1.2746 -0.0503
  156SAPE   H3X17397   0.584   0.840   6.310 -1.1764 -0.6924 -1.2449
  156SAPE   H3Y17398   0.564   1.010   6.266  0.3987  2.1339  2.4579
  156SAPE   C3417399   0.550   0.976   6.470 -0.8754 -0.0138 -0.0266
  156SAPE   H4X17400   0.558   1.086   6.476 -1.2416  0.0979 -1.1887
  156SAPE   H4Y17401   0.609   0.924   6.548 -0.2614  1.0841  0.2500
  156SAPE   C3517402   0.408   0.927   6.470  0.1737 -0.1079 -0.6142
  156SAPE   H5X17403   0.392   0.823   6.434 -3.0468  0.6410 -1.7538
  156SAPE   H5Y17404   0.347   0.990   6.401 -0.1804 -0.7291 -0.8851
  156SAPE   C3617405   0.341   0.946   6.611  0.4170  0.5423  0.1553
  156SAPE   H6X17406   0.367   1.049   6.642  1.3086 -0.0886  1.6185
  156SAPE   H6Y17407   0.400   0.883   6.681  1.0270  0.8040 -0.1255
  156SAPE   C3717408   0.192   0.910   6.631  0.6818  0.2082  0.0787
  156SAPE   H7X17409   0.171   0.819   6.570 -2.2917  2.0885 -1.9835
  156SAPE   H7Y17410   0.131   0.990   6.582 -0.9726 -0.1365  1.4719
  156SAPE   C3817411   0.165   0.905   6.778 -0.6767  0.3536 -0.2247
  156SAPE   H8X17412   0.215   0.820   6.829 -1.2835  0.5590  0.7396
  156SAPE   H8Y17413   0.054   0.900   6.784 -0.8647  1.1869 -2.1808
  156SAPE   C3917414   0.207   1.027   6.857  0.5446  0.1475  0.1552
  156SAPE   H9X17415   0.174   1.121   6.808 -0.9575 -0.1649  0.5127
  156SAPE   H9Y17416   0.315   1.036   6.879  0.9031  0.9290 -1.7173
  156SAPE  C31017417   0.116   1.045   6.977  0.0697 -0.2172  0.2219
  156SAPE  H10X17418   0.128   0.960   7.048  2.2026 -0.6099 -0.5310
  156SAPE  H10Y17419   0.010   1.043   6.945  0.0717 -0.5455  0.2294
  156SAPE  C31117420   0.142   1.178   7.043  0.2766  0.4178  0.0555
  156SAPE  H11X17421   0.100   1.260   6.981 -0.1974  0.6223  0.6419
  156SAPE  H11Y17422   0.253   1.190   7.044  0.0466  2.9210  1.3088
  156SAPE  C31217423   0.090   1.184   7.187  0.0547  1.0348  0.7854
  156SAPE  H12X17424   0.143   1.120   7.261 -0.7870 -1.5928 -0.7476
  156SAPE  H12Y17425  -0.010   1.137   7.186  0.7593 -0.5538  1.5009
  156SAPE  C31317426   0.083   1.326   7.237  0.4562 -0.9895 -0.1282
  156SAPE  H13X17427   0.016   1.384   7.169 -0.5718  0.1006  1.7271
  156SAPE  H13Y17428   0.179   1.381   7.231 -0.3125  0.4917  0.5157
  156SAPE  C31417429   0.027   1.343   7.375 -0.2090  0.7022 -1.3558
  156SAPE  H14X17430  -0.061   1.274   7.381  1.2165 -1.0344  2.4970
  156SAPE  H14Y17431  -0.014   1.445   7.390  0.5197  0.7311  0.6790
  156SAPE  C31517432   0.119   1.294   7.485 -0.2267  0.1363 -0.6936
  156SAPE  H15X17433   0.202   1.364   7.508 -2.4147  2.3956  0.7429
  156SAPE  H15Y17434   0.168   1.198   7.459 -1.2852 -1.4052  2.5218
  156SAPE  C31617435   0.045   1.253   7.612  0.1781  0.3073  0.1483
  156SAPE  H16X17436  -0.043   1.190   7.589 -0.0966  0.9541 -0.6399
  156SAPE  H16Y17437  -0.006   1.344   7.651 -0.5475  0.3613 -0.8858
  156SAPE  C31717438   0.127   1.196   7.738 -0.3800  0.3168 -0.7114
  156SAPE  H17X17439   0.233   1.206   7.707 -0.5224  0.2076 -1.2448
  156SAPE  H17Y17440   0.109   1.087   7.751 -1.1746  0.4431 -0.6635
  156SAPE  C31817441   0.103   1.265   7.866 -0.4017 -0.3101  0.1046
  156SAPE  H18X17442   0.087   1.373   7.846 -2.1642  0.1020  3.0212
  156SAPE  H18Y17443   0.180   1.251   7.945 -0.9608  0.1266  0.7450
  156SAPE  H18Z17444   0.007   1.238   7.915  0.1831  1.0610  2.1564
  157SAPE     N17445   0.798   3.237   5.955  0.1638 -0.0376  0.6217
  157SAPE   HN117446   0.745   3.312   5.906  0.5236 -0.4582 -0.4466
  157SAPE   HN217447   0.896   3.249   5.922 -0.7332 -0.4823 -2.5510
  157SAPE   HN317448   0.769   3.143   5.922  0.1845  0.2736 -0.3192
  157SAPE   C1217449   0.774   3.240   6.101 -0.3592  0.0315  0.6672
  157SAPE  H12A17450   0.794   3.343   6.139  1.2807  0.6622 -1.6264
  157SAPE  H12B17451   0.857   3.182   6.145  1.8332  1.0818 -1.7873
  157SAPE   C1117452   0.643   3.178   6.131  0.3163 -0.0911  0.3866
  157SAPE  H11A17453   0.619   3.195   6.238  0.4568 -1.4722  0.6656
  157SAPE  H11B17454   0.648   3.068   6.114  0.4255  0.2669 -2.5140
  157SAPE     P17455   0.392   3.199   6.077 -0.3084  0.3426  0.0577
  157SAPE   O1317456   0.313   3.226   5.953 -0.2068 -0.3230 -0.0790
  157SAPE   O1417457   0.386   3.064   6.137 -0.2464  0.2566 -0.1523
  157SAPE   O1217458   0.544   3.229   6.040 -0.3292  0.0944 -0.1970
  157SAPE   O1117459   0.359   3.305   6.187 -0.1764 -0.6122  0.1596
  157SAPE    C117460   0.383   3.443   6.159 -0.1263  0.6500 -0.0015
  157SAPE    HA17461   0.491   3.466   6.169 -0.2873  0.5114  3.3059
  157SAPE    HB17462   0.354   3.482   6.059 -0.5518  0.9861  0.2475
  157SAPE    C217463   0.311   3.539   6.266  0.0646  0.4816  0.1012
  157SAPE    HS17464   0.354   3.641   6.267 -0.7694  0.9541 -2.6839
  157SAPE   O2117465   0.328   3.478   6.393 -0.0591 -0.2817  0.0444
  157SAPE   C2117466   0.430   3.526   6.473 -0.4604 -0.1772  0.6368
  157SAPE   O2217467   0.505   3.619   6.441  0.3030  0.6286 -0.1101
  157SAPE   C2217468   0.433   3.436   6.593  0.3009 -0.4839 -0.6346
  157SAPE   H2R17469   0.360   3.471   6.669 -0.3597 -1.2524 -0.9052
  157SAPE   H2S17470   0.398   3.335   6.565 -0.2342 -0.4907  0.0351
  157SAPE    C317471   0.168   3.563   6.223 -0.1854  0.9019 -0.5339
  157SAPE    HX17472   0.109   3.474   6.193 -0.0197  0.6653 -0.1639
  157SAPE    HY17473   0.176   3.624   6.131 -0.7284  1.6484 -0.0881
  157SAPE   O3117474   0.096   3.643   6.319 -0.2153  0.1867  0.4830
  157SAPE   C3117475   0.014   3.571   6.398 -0.1449  1.0093  0.6682
  157SAPE   O3217476  -0.010   3.449   6.388  0.1270  0.1266 -0.6047
  157SAPE   C3217477  -0.053   3.654   6.505 -0.1851 -0.1932  0.5617
  157SAPE   H2X17478  -0.149   3.602   6.525  1.6861 -2.9127  3.2383
  157SAPE   H2Y17479  -0.065   3.756   6.463 -0.4382 -0.2063  0.6015
  157SAPE   C2317480   0.569   3.430   6.668  1.0583  0.3171  0.3584
  157SAPE   H3R17481   0.646   3.384   6.602  0.7695  1.7027 -0.9989
  157SAPE   H3S17482   0.554   3.356   6.750 -0.2809  1.5890  1.3077
  157SAPE   C2417483   0.621   3.558   6.728 -0.0400 -0.1618 -0.1841
  157SAPE   H4R17484   0.631   3.637   6.651  3.5868 -1.7378 -1.5776
  157SAPE   H4S17485   0.725   3.552   6.767  0.6729  2.9141 -1.3630
  157SAPE   C2517486   0.540   3.594   6.848  0.5242  0.4095 -0.4452
  157SAPE   H5R17487   0.524   3.507   6.914 -2.1299  0.5287 -0.8235
  157SAPE   C2617488   0.506   3.713   6.891 -0.4478  0.6063 -1.1095
  157SAPE   H6R17489   0.464   3.723   6.992  2.3310  1.1809  0.0760
  157SAPE   C2717490   0.530   3.847   6.817  0.1910  0.3346  0.4142
  157SAPE   H7R17491   0.541   3.829   6.708 -4.7570  0.4119 -0.3185
  157SAPE   H7S17492   0.623   3.898   6.848  1.5763 -1.9792  0.2846
  157SAPE   C2817493   0.408   3.943   6.840  0.0569  0.7531 -0.3557
  157SAPE   H8R17494   0.328   3.928   6.766 -0.6882 -1.0600  0.7370
  157SAPE   C2917495   0.392   4.023   6.952  1.1782  0.1294 -0.4011
  157SAPE   H9R17496   0.298   4.079   6.952  1.8763  1.3905  1.1881
  157SAPE  C21017497   0.482   4.037   7.074 -0.6803 -0.0655  0.0831
  157SAPE  H10R17498   0.513   4.144   7.078 -0.3560 -0.2086  1.7393
  157SAPE  H10S17499   0.566   3.969   7.049 -2.7265 -1.9589 -2.1096
  157SAPE  C21117500   0.406   4.003   7.199 -0.4628 -0.4049 -0.0000
  157SAPE  H11R17501   0.334   3.920   7.192 -1.3922  0.5476 -3.3298
  157SAPE  C21217502   0.413   4.073   7.314  0.4238  0.0849  0.2386
  157SAPE  H12R17503   0.353   4.039   7.400  0.8960  0.0446  0.5544
  157SAPE  C21317504   0.492   4.203   7.333  1.0029  0.2037  0.3337
  157SAPE  H13R17505   0.443   4.283   7.273  4.2010  0.2485 -2.5721
  157SAPE  H13S17506   0.590   4.202   7.280  1.2949  2.3487  0.7047
  157SAPE  C21417507   0.497   4.255   7.471  0.2373  0.4206 -0.2515
  157SAPE  H14R17508   0.411   4.320   7.495 -1.1862 -0.4704 -2.5823
  157SAPE  C21517509   0.592   4.226   7.568  0.4321 -0.9996  0.0947
  157SAPE  H15R17510   0.584   4.280   7.664  0.5587 -0.0759 -0.4047
  157SAPE  C21617511   0.702   4.127   7.559  0.0970 -0.0119  0.4176
  157SAPE  H16R17512   0.780   4.179   7.498 -1.0971  1.7380  0.3010
  157SAPE  H16S17513   0.666   4.031   7.516 -0.3424  0.4376 -0.2440
  157SAPE  C21717514   0.767   4.108   7.700  0.3304 -0.4688 -1.0679
  157SAPE  H17R17515   0.801   4.208   7.737 -1.2842 -0.2487 -0.0793
  157SAPE  H17S17516   0.857   4.043   7.700  1.6149  1.2259 -1.5141
  157SAPE  C21817517   0.673   4.034   7.803 -0.6062 -0.3145 -0.1862
  157SAPE  H18R17518   0.572   4.080   7.795  0.4736  2.3262  0.5821
  157SAPE  H18S17519   0.719   4.054   7.902  0.6652  0.4581 -0.9067
  157SAPE  C21917520   0.668   3.887   7.788  0.0919 -0.2169  0.2173
  157SAPE  H19R17521   0.764   3.842   7.820  0.3798  0.3190  0.1033
  157SAPE  H19S17522   0.650   3.872   7.679  1.6220  3.2168 -0.6332
  157SAPE  C22017523   0.557   3.818   7.873  0.9607  0.4570 -0.0385
  157SAPE  H20R17524   0.575   3.832   7.982 -3.2079  1.8949  0.6655
  157SAPE  H20S17525   0.557   3.709   7.851  0.2284  0.6526 -1.0631
  157SAPE  H20T17526   0.456   3.861   7.858  1.2371  0.7081 -1.2613
  157SAPE   C3317527   0.030   3.662   6.628  0.1416  0.6339 -0.1138
  157SAPE   H3X17528  -0.029   3.734   6.687 -0.5585 -1.0501  1.3280
  157SAPE   H3Y17529   0.130   3.710   6.623 -0.0992  1.1511  0.0450
  157SAPE   C3417530   0.048   3.525   6.705  0.1654  0.4761  0.4869
  157SAPE   H4X17531   0.114   3.460   6.643  0.6746  2.0737 -0.7098
  157SAPE   H4Y17532  -0.050   3.471   6.708  1.3040 -1.8353 -0.9250
  157SAPE   C3517533   0.102   3.545   6.844  0.0881  0.3093 -0.2206
  157SAPE   H5X17534   0.017   3.589   6.899 -0.1770 -1.8920  1.2840
  157SAPE   H5Y17535   0.195   3.604   6.855  0.4883 -0.4943  0.9201
  157SAPE   C3617536   0.118   3.401   6.908  0.5874  1.4639  0.7354
  157SAPE   H6X17537   0.200   3.348   6.854  1.3393  1.9312  1.3894
  157SAPE   H6Y17538   0.018   3.355   6.891  0.9807  0.4250  1.1405
  157SAPE   C3717539   0.142   3.403   7.059 -0.1443 -0.5750  0.0774
  157SAPE   H7X17540   0.163   3.298   7.086 -0.2892 -0.4559  0.6639
  157SAPE   H7Y17541   0.045   3.439   7.100 -1.5693 -2.5046 -1.4359
  157SAPE   C3817542   0.264   3.489   7.109  0.5963  0.2447  0.0823
  157SAPE   H8X17543   0.261   3.595   7.077  0.6089  0.0342 -0.6537
  157SAPE   H8Y17544   0.352   3.434   7.068  1.0095 -0.4429  1.8273
  157SAPE   C3917545   0.261   3.488   7.261  0.6353  0.0723 -0.4588
  157SAPE   H9X17546   0.265   3.380   7.288 -3.6981 -0.3703 -0.8049
  157SAPE   H9Y17547   0.162   3.520   7.299  1.4337  0.9969  0.9081
  157SAPE  C31017548   0.356   3.571   7.345  0.1824 -0.3864  0.5348
  157SAPE  H10X17549   0.366   3.670   7.295 -0.5974 -1.4024 -1.7886
  157SAPE  H10Y17550   0.453   3.519   7.330 -0.3695 -0.7346 -2.3761
  157SAPE  C31117551   0.334   3.574   7.492  0.5546  0.1399  0.5334
  157SAPE  H11X17552   0.243   3.636   7.502 -0.1683 -0.4428 -1.7394
  157SAPE  H11Y17553   0.414   3.625   7.550 -1.7780  1.0469  3.1937
  157SAPE  C31217554   0.305   3.433   7.553  0.0813  0.3355  0.0863
  157SAPE  H12X17555   0.375   3.357   7.511 -0.5162 -0.6987  0.9422
  157SAPE  H12Y17556   0.206   3.399   7.517  0.6522  0.3769 -1.6498
  157SAPE  C31317557   0.310   3.426   7.696  0.3202  0.7114 -0.6727
  157SAPE  H13X17558   0.406   3.425   7.751  0.5693 -1.4647 -1.0636
  157SAPE  H13Y17559   0.265   3.330   7.727  1.8703  0.1083 -0.2109
  157SAPE  C31417560   0.218   3.540   7.760  0.1256  0.8588  0.5522
  157SAPE  H14X17561   0.116   3.538   7.717  0.3827  1.7284 -0.1395
  157SAPE  H14Y17562   0.261   3.641   7.743  2.5667 -0.1840  0.1030
  157SAPE  C31517563   0.222   3.525   7.914 -0.2938 -0.1134 -0.1048
  157SAPE  H15X17564   0.326   3.542   7.951  0.4467  0.2598 -2.1904
  157SAPE  H15Y17565   0.208   3.423   7.955 -0.4101  0.5444  1.5691
  157SAPE  C31617566   0.140   3.626   7.994 -0.2850  0.4836  0.3538
  157SAPE  H16X17567   0.148   3.725   7.945 -0.3869  0.2576 -0.1234
  157SAPE  H16Y17568   0.192   3.625   8.093  2.9476 -1.1939 -1.2221
  157SAPE  C31717569  -0.006   3.578   8.002 -0.1707  0.6604  0.2987
  157SAPE  H17X17570  -0.006   3.481   8.057  2.5709 -0.1141 -0.9085
  157SAPE  H17Y17571  -0.050   3.554   7.903  1.2846  0.1379 -0.2606
  157SAPE  C31817572  -0.102   3.674   8.070  0.3651  0.3725  0.0887
  157SAPE  H18X17573  -0.098   3.772   8.017 -1.2220 -0.2139 -1.2090
  157SAPE  H18Y17574  -0.081   3.684   8.179  1.6713  1.1959 -0.2122
  157SAPE  H18Z17575  -0.207   3.641   8.052  1.1045 -0.5575 -2.9724
  158SAPE     N17576   1.985   0.363   5.883 -0.2944 -0.4218  0.1270
  158SAPE   HN117577   2.083   0.398   5.879 -0.2280 -0.5793  0.3454
  158SAPE   HN217578   1.946   0.403   5.796 -0.1257  1.6402  0.9393
  158SAPE   HN317579   1.937   0.408   5.964 -2.2244  0.5660 -1.4874
  158SAPE   C1217580   1.970   0.215   5.896 -0.0148  0.2086 -0.3660
  158SAPE  H12A17581   2.031   0.175   5.979 -0.5672 -0.3943 -0.2506
  158SAPE  H12B17582   1.988   0.163   5.799 -1.2823 -0.6087 -0.1780
  158SAPE   C1117583   1.821   0.184   5.929 -0.5821 -0.6148 -0.0250
  158SAPE  H11A17584   1.803   0.230   6.028 -0.3094 -1.2076  0.3032
  158SAPE  H11B17585   1.805   0.074   5.937 -2.7614 -0.2394  1.7800
  158SAPE     P17586   1.640   0.343   5.815  0.2079 -0.5160  0.2366
  158SAPE   O1317587   1.714   0.474   5.838  0.8209  0.2312 -0.1616
  158SAPE   O1417588   1.563   0.325   5.689 -0.1841 -0.5543  1.2507
  158SAPE   O1217589   1.745   0.231   5.823  0.2456 -0.6696 -0.0283
  158SAPE   O1117590   1.553   0.308   5.950 -0.1474 -0.3204 -0.2708
  158SAPE    C117591   1.464   0.194   5.926 -0.3415  0.1097 -0.4848
  158SAPE    HA17592   1.382   0.223   5.857 -1.3235 -0.1109  0.5457
  158SAPE    HB17593   1.517   0.107   5.883  1.5460  0.8721  0.2201
  158SAPE    C217594   1.404   0.147   6.063  0.9794  0.6629 -0.0792
  158SAPE    HS17595   1.321   0.079   6.034  1.7286 -1.0135  1.5187
  158SAPE   O2117596   1.351   0.255   6.146  0.3344  0.9018  0.4365
  158SAPE   C2117597   1.222   0.285   6.123  0.0768 -0.0046  0.1835
  158SAPE   O2217598   1.142   0.219   6.061 -0.3771 -0.4306  0.1957
  158SAPE   C2217599   1.189   0.416   6.200  0.4619  0.3379 -0.7562
  158SAPE   H2R17600   1.250   0.496   6.154 -0.2417  0.8847 -0.7601
  158SAPE   H2S17601   1.081   0.434   6.179 -0.0948 -1.1149  0.6338
  158SAPE    C317602   1.504   0.054   6.141  0.3815  0.3218  0.2753
  158SAPE    HX17603   1.595   0.116   6.155  0.0055  1.2457 -1.1047
  158SAPE    HY17604   1.538  -0.033   6.081 -1.4360 -0.7322  0.7000
  158SAPE   O3117605   1.440   0.003   6.258  0.5559  0.0808 -0.5532
  158SAPE   C3117606   1.447   0.085   6.368 -0.2949  0.2724  0.0946
  158SAPE   O3217607   1.510   0.188   6.371  0.2030 -0.8072 -0.3453
  158SAPE   C3217608   1.359   0.025   6.477 -0.5233 -0.1196 -0.0813
  158SAPE   H2X17609   1.402  -0.074   6.504  0.7400  0.1214 -1.1239
  158SAPE   H2Y17610   1.253   0.023   6.443 -0.8423 -0.4966  0.9240
  158SAPE   C2317611   1.218   0.390   6.346 -0.1431 -0.1443 -0.6896
  158SAPE   H3R17612   1.290   0.309   6.369 -1.6472 -1.1500  0.7821
  158SAPE   H3S17613   1.117   0.355   6.378 -0.3134 -0.7803 -1.8603
  158SAPE   C2417614   1.239   0.528   6.426 -0.6856  0.0897 -0.1600
  158SAPE   H4R17615   1.216   0.497   6.530  0.8560 -2.9560 -0.5857
  158SAPE   H4S17616   1.163   0.601   6.392 -1.6466 -0.5376  0.5756
  158SAPE   C2517617   1.385   0.580   6.414  0.1912 -0.3659  0.8316
  158SAPE   H5R17618   1.390   0.634   6.318 -2.8773 -1.7748 -0.2801
  158SAPE   C2617619   1.491   0.547   6.494  0.7994 -0.1313 -0.4241
  158SAPE   H6R17620   1.586   0.600   6.475 -1.0380  3.9810  0.7684
  158SAPE   C2717621   1.475   0.469   6.622 -0.2994 -0.7534  0.3934
  158SAPE   H7R17622   1.444   0.368   6.589  1.2253 -0.7827 -1.0663
  158SAPE   H7S17623   1.394   0.514   6.684  0.4875  2.2873 -0.6124
  158SAPE   C2817624   1.606   0.461   6.705  0.3036 -0.0754 -0.2644
  158SAPE   H8R17625   1.699   0.440   6.650  2.0485  4.2766  0.5309
  158SAPE   C2917626   1.624   0.490   6.837 -0.3254 -0.4902  0.2112
  158SAPE   H9R17627   1.726   0.476   6.875 -0.4007 -1.9983 -0.0684
  158SAPE  C21017628   1.520   0.549   6.933 -1.0839  0.4870  0.4326
  158SAPE  H10R17629   1.453   0.613   6.872 -3.2001 -1.2653  0.7659
  158SAPE  H10S17630   1.578   0.622   6.993 -2.9109  1.5339  1.0282
  158SAPE  C21117631   1.440   0.450   7.022 -0.0414  0.8945 -0.3924
  158SAPE  H11R17632   1.412   0.353   6.978 -1.3767  1.4949 -0.9161
  158SAPE  C21217633   1.407   0.473   7.148  0.2143 -1.1632 -0.4807
  158SAPE  H12R17634   1.353   0.398   7.208 -3.5131  1.8298  0.3928
  158SAPE  C21317635   1.433   0.613   7.208  0.0879 -0.1584  0.6307
  158SAPE  H13R17636   1.447   0.696   7.135  0.2998 -0.0433  0.8032
  158SAPE  H13S17637   1.528   0.595   7.263  0.4355 -2.7972 -0.6806
  158SAPE  C21417638   1.319   0.664   7.292 -0.2562 -0.9539 -0.0558
  158SAPE  H14R17639   1.255   0.740   7.245  0.0178  0.9344  2.4388
  158SAPE  C21517640   1.302   0.645   7.423  0.1783 -0.4392  0.3329
  158SAPE  H15R17641   1.225   0.703   7.475  0.7923 -0.1688  0.9547
  158SAPE  C21617642   1.393   0.580   7.517  0.5737 -0.3819 -0.2075
  158SAPE  H16R17643   1.468   0.520   7.461 -1.7022 -3.5177 -0.1478
  158SAPE  H16S17644   1.338   0.514   7.587 -1.5497  0.9256 -0.5728
  158SAPE  C21717645   1.471   0.681   7.602  0.7380 -0.8316  0.0939
  158SAPE  H17R17646   1.412   0.761   7.652  0.7709 -1.2554  0.8331
  158SAPE  H17S17647   1.549   0.735   7.545  2.4468 -0.9774  2.1617
  158SAPE  C21817648   1.551   0.614   7.712 -0.4300 -0.1241  0.2818
  158SAPE  H18R17649   1.632   0.551   7.670 -0.8461 -0.6313  0.2278
  158SAPE  H18S17650   1.486   0.555   7.780 -2.3689  0.4137 -1.0091
  158SAPE  C21917651   1.627   0.714   7.799  0.1903 -0.1820  0.1870
  158SAPE  H19R17652   1.558   0.741   7.882  0.6037  2.2560 -0.1985
  158SAPE  H19S17653   1.657   0.808   7.747  0.0073  0.2260  0.8130
  158SAPE  C22017654   1.756   0.653   7.849  0.3460  0.0797 -0.0474
  158SAPE  H20R17655   1.819   0.736   7.887  0.1417  1.5878 -2.7505
  158SAPE  H20S17656   1.813   0.610   7.764  1.8028 -0.2512  1.0548
  158SAPE  H20T17657   1.739   0.581   7.931  2.0593 -0.9273 -0.5321
  158SAPE   C3317658   1.357   0.098   6.611  0.5255 -0.9784 -0.0865
  158SAPE   H3X17659   1.308   0.195   6.590  0.5459 -0.8447  0.4806
  158SAPE   H3Y17660   1.459   0.116   6.653  0.1212 -0.0509  0.5188
  158SAPE   C3417661   1.282   0.033   6.729 -0.0887  0.0974  0.3729
  158SAPE   H4X17662   1.344  -0.049   6.772 -1.9335 -1.2891  0.5134
  158SAPE   H4Y17663   1.183  -0.004   6.695  0.9135 -1.4761 -1.0223
  158SAPE   C3517664   1.265   0.127   6.851  0.0934 -0.0947 -0.1577
  158SAPE   H5X17665   1.177   0.194   6.837 -1.2210 -1.8478 -0.6802
  158SAPE   H5Y17666   1.364   0.175   6.865  1.6437 -3.5154  1.8766
  158SAPE   C3617667   1.269   0.054   6.983 -0.2177  0.7866  0.3975
  158SAPE   H6X17668   1.358  -0.013   6.993 -0.8604 -0.1685 -0.1262
  158SAPE   H6Y17669   1.195  -0.029   6.984  0.2416  0.2373 -2.7139
  158SAPE   C3717670   1.231   0.140   7.112 -0.1250  0.5519 -0.1277
  158SAPE   H7X17671   1.306   0.223   7.107 -2.8579  3.4411  2.3630
  158SAPE   H7Y17672   1.127   0.176   7.102 -0.4124 -0.4305 -0.7630
  158SAPE   C3817673   1.242   0.076   7.245 -0.9282  0.5162 -0.4695
  158SAPE   H8X17674   1.221  -0.033   7.232  1.1778  0.2586 -2.3627
  158SAPE   H8Y17675   1.170   0.116   7.319  0.0764  1.3031  0.1132
  158SAPE   C3917676   1.383   0.099   7.307  0.1280 -0.0526  0.2473
  158SAPE   H9X17677   1.387   0.209   7.319  1.3293 -0.2041  1.4129
  158SAPE   H9Y17678   1.472   0.054   7.257 -0.4351 -2.2902  1.1299
  158SAPE  C31017679   1.389   0.056   7.468 -0.4829  0.5589  1.0631
  158SAPE  H10X17680   1.470   0.117   7.514 -2.2312  2.9065  1.2216
  158SAPE  H10Y17681   1.407  -0.053   7.472 -2.7990  0.1059  0.7697
  158SAPE  C31117682   1.262   0.086   7.555  0.3750 -0.4474 -0.4400
  158SAPE  H11X17683   1.158   0.052   7.533 -0.1226 -0.2563  1.4579
  158SAPE  H11Y17684   1.266   0.195   7.578 -0.7857 -1.0827  3.4325
  158SAPE  C31217685   1.282   0.027   7.691  0.4995  0.1835 -0.9917
  158SAPE  H12X17686   1.385   0.048   7.727  0.1333  0.5236 -0.0953
  158SAPE  H12Y17687   1.270  -0.083   7.702 -1.3243  0.4722  0.4884
  158SAPE  C31317688   1.176   0.080   7.795 -0.4855 -0.3255 -0.1240
  158SAPE  H13X17689   1.074   0.049   7.763 -0.1699 -1.5329 -0.0018
  158SAPE  H13Y17690   1.177   0.190   7.780  2.3303 -0.2303  0.2794
  158SAPE  C31417691   1.211   0.037   7.938  0.2391 -0.0079 -0.6424
  158SAPE  H14X17692   1.312   0.066   7.972  1.1121 -0.8658 -2.3491
  158SAPE  H14Y17693   1.216  -0.074   7.931 -0.4999 -0.0713 -0.2324
  158SAPE  C31517694   1.096   0.069   8.040 -0.3913  0.7641  0.4108
  158SAPE  H15X17695   0.994   0.050   7.999 -1.0711 -1.1217  2.7073
  158SAPE  H15Y17696   1.100   0.174   8.075 -1.6813  0.1653  2.5492
  158SAPE  C31617697   1.112  -0.002   8.175 -0.4807  0.3295  0.3779
  158SAPE  H16X17698   1.213   0.005   8.220 -0.1208 -1.5177 -0.0470
  158SAPE  H16Y17699   1.120  -0.110   8.149  2.3717 -0.1417  2.6725
  158SAPE  C31717700   1.007   0.016   8.280 -0.1649 -0.6251 -0.0912
  158SAPE  H17X17701   1.012  -0.060   8.361  0.2792 -0.7020 -0.1847
  158SAPE  H17Y17702   0.906   0.005   8.236 -0.2554 -2.6525  0.5047
  158SAPE  C31817703   1.017   0.163   8.336  0.0083 -0.1454  0.1054
  158SAPE  H18X17704   1.121   0.185   8.367  0.7457 -2.6989 -0.3173
  158SAPE  H18Y17705   0.942   0.179   8.417  0.3269  2.2216 -0.0036
  158SAPE  H18Z17706   0.994   0.243   8.262  0.1622 -1.1981 -1.1052
  159SAPE     N17707   1.209   3.510   5.697  0.0489  0.0186  0.1160
  159SAPE   HN117708   1.271   3.579   5.744 -0.6921  1.3389 -0.7772
  159SAPE   HN217709   1.108   3.522   5.723  0.5204 -0.5122  2.4113
  159SAPE   HN317710   1.229   3.427   5.757 -0.1629  0.2286  0.4885
  159SAPE   C1217711   1.248   3.512   5.548  0.1903  0.8345  0.3354
  159SAPE  H12A17712   1.278   3.616   5.523 -2.3364  0.9528 -2.9406
  159SAPE  H12B17713   1.154   3.494   5.491  1.1954 -0.1141 -1.0825
  159SAPE   C1117714   1.355   3.414   5.512  0.2986 -0.1998 -0.8215
  159SAPE  H11A17715   1.393   3.446   5.412  1.4549  2.6882  0.4208
  159SAPE  H11B17716   1.320   3.309   5.509  0.8606 -0.3840 -1.4330
  159SAPE     P17717   1.598   3.343   5.584 -0.1954 -0.5586 -0.3989
  159SAPE   O1317718   1.586   3.261   5.465  0.2239  0.0991  0.0629
  159SAPE   O1417719   1.715   3.436   5.585  0.2497 -0.2854 -0.1371
  159SAPE   O1217720   1.470   3.431   5.602  0.2320  0.4589  0.2883
  159SAPE   O1117721   1.605   3.244   5.709 -0.0104 -0.3458 -0.0946
  159SAPE    C117722   1.497   3.158   5.745  0.2798  0.7283  0.5778
  159SAPE    HA17723   1.399   3.200   5.714 -0.8107 -3.4424 -2.5967
  159SAPE    HB17724   1.503   3.061   5.690  2.7908  0.4026  1.3122
  159SAPE    C217725   1.503   3.122   5.896  0.4722  0.0608 -0.6263
  159SAPE    HS17726   1.401   3.088   5.924  0.3154  1.1641  0.1979
  159SAPE   O2117727   1.541   3.234   5.976 -0.4811  0.0981  0.4091
  159SAPE   C2117728   1.448   3.328   5.983  0.1228 -0.1484  0.0849
  159SAPE   O2217729   1.343   3.324   5.923  0.5648  0.3690  0.3378
  159SAPE   C2217730   1.499   3.436   6.073 -0.0226  0.2368  0.5630
  159SAPE   H2R17731   1.580   3.395   6.138  0.1218 -1.2169 -0.4696
  159SAPE   H2S17732   1.538   3.514   6.004 -1.0779  0.9044  0.7150
  159SAPE    C317733   1.598   3.006   5.926  0.5221  0.1125 -0.0300
  159SAPE    HX17734   1.698   3.045   5.898 -0.1315  1.2052 -0.9306
  159SAPE    HY17735   1.562   2.928   5.856 -0.1581  0.9297 -0.6215
  159SAPE   O3117736   1.592   2.964   6.063 -0.0962 -0.0408  0.0198
  159SAPE   C3117737   1.609   2.837   6.083 -0.6024  0.4338  0.0710
  159SAPE   O3217738   1.657   2.761   6.004  0.3482 -0.2240 -0.5292
  159SAPE   C3217739   1.550   2.791   6.214 -0.4183  0.2984 -0.0327
  159SAPE   H2X17740   1.449   2.835   6.228 -1.0173 -0.8294 -0.6626
  159SAPE   H2Y17741   1.625   2.824   6.289  0.6519  2.1851 -1.8177
  159SAPE   C2317742   1.392   3.499   6.170  0.0091  0.2973 -0.8696
  159SAPE   H3R17743   1.291   3.498   6.124 -0.1645  0.0048 -0.4877
  159SAPE   H3S17744   1.415   3.606   6.192 -0.8144  0.1674  0.7144
  159SAPE   C2417745   1.369   3.448   6.316 -0.3262  0.8746  0.1669
  159SAPE   H4R17746   1.298   3.517   6.366 -1.2862  1.0219 -1.3292
  159SAPE   H4S17747   1.459   3.448   6.381 -1.5314  0.2904  1.9144
  159SAPE   C2517748   1.308   3.307   6.293  0.3752  0.0545 -0.0658
  159SAPE   H5R17749   1.242   3.312   6.205  0.9937  1.2247 -0.4922
  159SAPE   C2617750   1.362   3.189   6.334 -0.2725 -0.3328 -0.0962
  159SAPE   H6R17751   1.310   3.098   6.301  0.6297 -1.0364  0.3757
  159SAPE   C2717752   1.481   3.172   6.428 -0.2146  0.6939 -0.0059
  159SAPE   H7R17753   1.455   3.091   6.500 -1.5912  1.4621  0.4181
  159SAPE   H7S17754   1.501   3.260   6.494 -1.1655  0.9696 -0.0607
  159SAPE   C2817755   1.607   3.128   6.356  0.0089  0.7102 -0.4034
  159SAPE   H8R17756   1.612   3.128   6.246  3.0450 -1.1659 -0.3669
  159SAPE   C2917757   1.718   3.097   6.422  0.2294  0.1364  1.0676
  159SAPE   H9R17758   1.804   3.060   6.364 -1.8713 -2.0912 -0.8523
  159SAPE  C21017759   1.728   3.094   6.572  0.3486  0.2744 -0.0316
  159SAPE  H10R17760   1.651   3.023   6.608  0.2224  0.7359  0.6089
  159SAPE  H10S17761   1.693   3.193   6.608 -0.4359  1.5913 -3.9393
  159SAPE  C21117762   1.862   3.063   6.618 -0.1730 -0.1613 -0.3609
  159SAPE  H11R17763   1.943   3.047   6.546 -0.5424 -0.5409 -0.7008
  159SAPE  C21217764   1.894   3.078   6.748 -0.4669 -0.4926 -0.2352
  159SAPE  H12R17765   1.996   3.053   6.779 -0.4976 -3.1775 -1.9509
  159SAPE  C21317766   1.809   3.116   6.861  0.1785 -1.0573  0.5429
  159SAPE  H13R17767   1.746   3.027   6.878 -0.4621 -1.1021 -1.7205
  159SAPE  H13S17768   1.732   3.191   6.832  0.5499 -1.1527 -0.7522
  159SAPE  C21417769   1.890   3.164   6.982 -0.1866  0.0316  0.7541
  159SAPE  H14R17770   1.979   3.102   7.000 -0.6472 -1.1287 -0.7573
  159SAPE  C21517771   1.852   3.262   7.065  0.5940 -0.3816 -0.3410
  159SAPE  H15R17772   1.916   3.305   7.143  0.5811  1.5087 -1.3248
  159SAPE  C21617773   1.721   3.345   7.049 -0.6632  0.1010 -0.3718
  159SAPE  H16R17774   1.703   3.376   6.945 -1.1276  2.6321  0.3966
  159SAPE  H16S17775   1.739   3.440   7.104  0.5916  0.3294 -1.1255
  159SAPE  C21717776   1.607   3.272   7.123  0.3958 -0.1005  0.0286
  159SAPE  H17R17777   1.622   3.262   7.233  0.1493 -0.4310  0.0311
  159SAPE  H17S17778   1.603   3.168   7.084 -0.9052  0.1763 -0.6313
  159SAPE  C21817779   1.475   3.351   7.108 -0.4786 -0.1536  0.1846
  159SAPE  H18R17780   1.466   3.377   7.000 -2.8861 -0.0638  0.3431
  159SAPE  H18S17781   1.482   3.446   7.165  0.9789  0.9422 -1.7071
  159SAPE  C21917782   1.356   3.275   7.160  0.1737  0.2151 -1.4005
  159SAPE  H19R17783   1.388   3.254   7.265 -0.0625  1.6549 -1.0169
  159SAPE  H19S17784   1.348   3.181   7.102  2.8767 -0.0375 -1.5103
  159SAPE  C22017785   1.222   3.345   7.158 -0.1097  0.5764 -0.6424
  159SAPE  H20R17786   1.185   3.362   7.055  0.5785 -1.5237 -1.2801
  159SAPE  H20S17787   1.214   3.433   7.226  1.6248  0.6645 -0.4944
  159SAPE  H20T17788   1.155   3.272   7.206 -0.3968  1.9924  1.2371
  159SAPE   C3317789   1.547   2.642   6.217 -0.6467  0.1864  0.4784
  159SAPE   H3X17790   1.641   2.608   6.170  0.2575  2.8321  0.1593
  159SAPE   H3Y17791   1.476   2.593   6.148  1.2024 -1.5511 -0.2931
  159SAPE   C3417792   1.539   2.569   6.354  0.0556 -0.7218  0.8886
  159SAPE   H4X17793   1.447   2.609   6.403  0.4299 -0.1741  1.1482
  159SAPE   H4Y17794   1.624   2.609   6.412 -0.1376 -2.4186  2.4380
  159SAPE   C3517795   1.540   2.417   6.329 -0.1150 -0.4169 -0.1826
  159SAPE   H5X17796   1.645   2.394   6.300  0.6336 -0.1283  2.0903
  159SAPE   H5Y17797   1.468   2.386   6.250 -0.1481 -0.5205 -0.1108
  159SAPE   C3617798   1.500   2.346   6.460 -0.7513 -0.0343  0.1311
  159SAPE   H6X17799   1.506   2.237   6.442 -1.8292  0.0485 -0.8218
  159SAPE   H6Y17800   1.395   2.370   6.487 -1.4301 -1.7790 -0.8191
  159SAPE   C3717801   1.592   2.390   6.579  0.5584 -0.5991 -0.6074
  159SAPE   H7X17802   1.562   2.494   6.605 -3.6042 -1.3936 -1.4870
  159SAPE   H7Y17803   1.699   2.388   6.550  0.8891  1.2057  0.3603
  159SAPE   C3817804   1.570   2.292   6.690  0.2060  0.2772  0.4408
  159SAPE   H8X17805   1.605   2.191   6.658  1.3824  1.0057 -0.6450
  159SAPE   H8Y17806   1.461   2.289   6.710  0.5149  2.6090  3.1170
  159SAPE   C3917807   1.623   2.334   6.827  0.3398 -0.5339  0.0756
  159SAPE   H9X17808   1.730   2.355   6.805  0.9671 -1.8051  1.7477
  159SAPE   H9Y17809   1.608   2.245   6.891 -1.0681 -0.1568  0.2857
  159SAPE  C31017810   1.549   2.456   6.884 -0.0264  0.0258  0.2825
  159SAPE  H10X17811   1.442   2.435   6.860  1.5162 -3.0572 -5.6378
  159SAPE  H10Y17812   1.580   2.550   6.834  1.8478  1.3260  3.5560
  159SAPE  C31117813   1.583   2.484   7.033  0.0394  0.2400  0.1214
  159SAPE  H11X17814   1.692   2.465   7.036 -0.0764 -0.7791 -1.2749
  159SAPE  H11Y17815   1.544   2.401   7.096  0.4820  0.4686  0.7051
  159SAPE  C31217816   1.556   2.618   7.081 -0.2720 -0.0215  0.1616
  159SAPE  H12X17817   1.446   2.635   7.083 -1.2567 -4.8078  0.7418
  159SAPE  H12Y17818   1.608   2.678   7.003 -1.2471  0.1079 -0.4048
  159SAPE  C31317819   1.623   2.648   7.222  0.6466 -0.1568  0.2134
  159SAPE  H13X17820   1.719   2.593   7.222  0.9078  0.2241  2.2301
  159SAPE  H13Y17821   1.559   2.594   7.295  0.5473 -0.2336  0.0703
  159SAPE  C31417822   1.638   2.796   7.244 -0.8309  0.2260 -0.3410
  159SAPE  H14X17823   1.539   2.837   7.213 -0.1982  0.5528 -2.0509
  159SAPE  H14Y17824   1.718   2.841   7.181  0.3390  1.3020  1.7961
  159SAPE  C31517825   1.657   2.833   7.389 -0.3783 -0.3326 -0.1431
  159SAPE  H15X17826   1.752   2.799   7.434 -0.4519 -0.1431  0.1546
  159SAPE  H15Y17827   1.582   2.785   7.455  0.8490 -0.7218  1.0151
  159SAPE  C31617828   1.642   2.984   7.390 -0.0462 -0.4991  0.1754
  159SAPE  H16X17829   1.554   3.028   7.339  1.1394  1.1064 -0.5578
  159SAPE  H16Y17830   1.730   3.011   7.328  0.2955  0.1678  0.9359
  159SAPE  C31717831   1.644   3.049   7.530  0.2766 -0.5561  0.3876
  159SAPE  H17X17832   1.716   3.002   7.600  0.7354 -1.6449 -0.7931
  159SAPE  H17Y17833   1.551   3.028   7.588  0.6322 -1.6350  0.5795
  159SAPE  C31817834   1.667   3.197   7.533  0.5004  1.0714  0.1087
  159SAPE  H18X17835   1.751   3.229   7.468 -1.0733  2.8061 -1.1549
  159SAPE  H18Y17836   1.676   3.238   7.636  0.8620 -0.1789  0.5948
  159SAPE  H18Z17837   1.580   3.257   7.502 -0.4460 -1.2321 -1.9849
  160SAPE     N17838   2.660   1.086   6.150  1.0162  0.2959  0.3737
  160SAPE   HN117839   2.597   1.022   6.203  2.3324  0.2255  1.9206
  160SAPE   HN217840   2.715   1.138   6.221  2.0507 -1.7763  1.1704
  160SAPE   HN317841   2.598   1.160   6.112 -1.2823 -0.0286  3.1280
  160SAPE   C1217842   2.732   1.023   6.037  0.3768  1.2125 -0.4267
  160SAPE  H12A17843   2.669   0.987   5.953  1.7228 -0.1091 -0.9124
  160SAPE  H12B17844   2.767   0.924   6.072 -1.3732 -0.3235 -2.6908
  160SAPE   C1117845   2.837   1.113   5.970 -0.1821  0.2605 -0.2406
  160SAPE  H11A17846   2.895   1.055   5.895  0.1081 -0.5497  0.5759
  160SAPE  H11B17847   2.903   1.133   6.057  0.1728 -0.1302 -0.4126
  160SAPE     P17848   2.834   1.357   5.946 -0.4961  0.0867 -0.3623
  160SAPE   O1317849   2.977   1.363   5.910 -0.1933 -0.3159  0.4250
  160SAPE   O1417850   2.755   1.475   5.893  0.0268 -0.3424 -0.1812
  160SAPE   O1217851   2.767   1.218   5.904  0.0068 -0.5794 -0.0649
  160SAPE   O1117852   2.833   1.356   6.106  0.0598 -0.0235 -0.0025
  160SAPE    C117853   2.944   1.406   6.178 -0.0993  0.1815 -0.1133
  160SAPE    HA17854   3.040   1.363   6.143  0.0220 -0.1348  0.5706
  160SAPE    HB17855   2.950   1.514   6.155  0.5433  0.3138  0.6354
  160SAPE    C217856   2.933   1.393   6.332  0.3131  0.4340 -0.0998
  160SAPE    HS17857   2.942   1.285   6.355  0.1495  0.1760 -1.2291
  160SAPE   O2117858   2.821   1.465   6.388 -0.3905 -0.3574  0.1675
  160SAPE   C2117859   2.707   1.404   6.372  0.2945  0.7605 -1.0253
  160SAPE   O2217860   2.688   1.287   6.339 -0.2185 -0.6484  0.1050
  160SAPE   C2217861   2.590   1.496   6.403 -0.2241  0.2755 -0.1849
  160SAPE   H2R17862   2.618   1.600   6.373 -0.9715  0.1777 -1.2462
  160SAPE   H2S17863   2.506   1.456   6.344  0.0191 -0.7694  0.1610
  160SAPE    C317864   3.060   1.466   6.389  0.0004  0.2554  0.1334
  160SAPE    HX17865   3.057   1.575   6.365 -1.6757  0.1941 -0.0467
  160SAPE    HY17866   3.153   1.435   6.337  0.0018 -1.4078  1.0667
  160SAPE   O3117867   3.075   1.443   6.525 -0.0957  0.7283 -0.4004
  160SAPE   C3117868   3.129   1.324   6.556 -0.2695  0.0231  1.2339
  160SAPE   O3217869   3.185   1.244   6.480  0.8379 -0.5629  0.5339
  160SAPE   C3217870   3.143   1.312   6.709  0.6360  0.7022  0.7544
  160SAPE   H2X17871   3.187   1.406   6.748  2.5592  0.2165 -0.0834
  160SAPE   H2Y17872   3.222   1.235   6.724  2.1068  2.0761  0.4045
  160SAPE   C2317873   2.563   1.509   6.552  0.6033 -0.5844 -0.6104
  160SAPE   H3R17874   2.653   1.553   6.599  0.3928 -0.5912 -0.2010
  160SAPE   H3S17875   2.545   1.409   6.598 -0.0864 -0.2810 -0.2251
  160SAPE   C2417876   2.450   1.611   6.594 -0.0172 -0.5246 -0.0742
  160SAPE   H4R17877   2.439   1.590   6.703  2.4066 -0.3521  0.2647
  160SAPE   H4S17878   2.353   1.586   6.547  0.1282 -0.9922 -0.1285
  160SAPE   C2517879   2.480   1.758   6.570 -1.1749 -0.3149 -0.4441
  160SAPE   H5R17880   2.467   1.783   6.463 -1.9167 -1.6096 -0.6741
  160SAPE   C2617881   2.526   1.850   6.661  0.5137  1.0298  0.1466
  160SAPE   H6R17882   2.538   1.953   6.623 -1.8072  1.5072  0.5227
  160SAPE   C2717883   2.553   1.819   6.803 -0.0946 -0.0112 -0.4232
  160SAPE   H7R17884   2.663   1.831   6.814 -0.0764 -1.0668  0.8643
  160SAPE   H7S17885   2.543   1.712   6.830 -1.0107 -1.4047 -5.4132
  160SAPE   C2817886   2.483   1.910   6.895 -0.3423 -0.7304  0.0449
  160SAPE   H8R17887   2.382   1.943   6.868 -0.1555 -0.4866 -0.3573
  160SAPE   C2917888   2.515   1.952   7.018  0.2836 -0.2215 -0.6583
  160SAPE   H9R17889   2.458   2.037   7.059  0.5991 -0.8344  1.1201
  160SAPE  C21017890   2.647   1.917   7.092  0.3984  0.0907 -0.4473
  160SAPE  H10R17891   2.695   2.014   7.119 -2.1207  0.2151  4.6254
  160SAPE  H10S17892   2.716   1.883   7.012 -1.3785  1.0721 -2.4891
  160SAPE  C21117893   2.673   1.838   7.222  0.2676  0.3510  0.5858
  160SAPE  H11R17894   2.716   1.738   7.205 -0.0491  0.7658 -3.7567
  160SAPE  C21217895   2.619   1.875   7.339 -0.2993 -0.2256  0.3744
  160SAPE  H12R17896   2.651   1.816   7.426 -0.3497  0.7669  1.0827
  160SAPE  C21317897   2.567   2.014   7.363 -0.4755 -0.3713  0.7650
  160SAPE  H13R17898   2.601   2.094   7.293  1.0701 -1.2309  0.4815
  160SAPE  H13S17899   2.622   2.043   7.455  1.5621  1.0967 -0.8078
  160SAPE  C21417900   2.417   2.019   7.381  0.4766 -0.1005  0.5073
  160SAPE  H14R17901   2.372   1.925   7.416  2.0406 -0.7124  0.9763
  160SAPE  C21517902   2.338   2.126   7.359 -0.0003  0.4811 -0.0408
  160SAPE  H15R17903   2.232   2.099   7.359  0.9926 -4.1581 -0.7480
  160SAPE  C21617904   2.375   2.268   7.327 -0.7836  0.1433 -0.3134
  160SAPE  H16R17905   2.328   2.295   7.229 -1.7359 -2.1434 -0.5624
  160SAPE  H16S17906   2.485   2.276   7.317 -0.9197  1.5577 -0.9348
  160SAPE  C21717907   2.328   2.379   7.425  1.4359  0.6413  0.5964
  160SAPE  H17R17908   2.219   2.369   7.444  1.1698  0.4096 -0.9624
  160SAPE  H17S17909   2.346   2.482   7.388  2.2864  0.9766  1.8798
  160SAPE  C21817910   2.419   2.371   7.550  0.4195  0.2374 -0.0512
  160SAPE  H18R17911   2.523   2.350   7.517  0.1081  0.9713 -1.6326
  160SAPE  H18S17912   2.395   2.289   7.620  0.1830 -0.9379 -1.4518
  160SAPE  C21917913   2.407   2.497   7.636  0.3532 -0.2138 -0.0533
  160SAPE  H19R17914   2.436   2.583   7.573  2.3233 -1.4086 -0.8729
  160SAPE  H19S17915   2.482   2.490   7.718 -1.2406 -0.1168  1.4785
  160SAPE  C22017916   2.264   2.530   7.688 -0.1483 -0.1587 -0.0914
  160SAPE  H20R17917   2.237   2.466   7.774  0.1554  2.1422  1.8246
  160SAPE  H20S17918   2.192   2.522   7.604 -0.2206  0.2619 -0.0697
  160SAPE  H20T17919   2.253   2.637   7.718  0.7665 -0.2261  0.5020
  160SAPE   C3317920   3.006   1.268   6.759  1.0172  0.0841  0.8820
  160SAPE   H3X17921   2.984   1.169   6.716 -0.9721  2.2223 -3.7422
  160SAPE   H3Y17922   2.926   1.335   6.719  2.2481  1.0144 -0.1094
  160SAPE   C3417923   3.000   1.261   6.907  0.3229  0.0755 -0.6935
  160SAPE   H4X17924   3.012   1.360   6.956 -1.8347  0.1336 -0.2082
  160SAPE   H4Y17925   3.088   1.205   6.947  0.5841  0.2709 -0.9902
  160SAPE   C3517926   2.868   1.209   6.962 -0.1122  0.1916 -0.5458
  160SAPE   H5X17927   2.873   1.098   6.967  0.4643  0.2796  1.2800
  160SAPE   H5Y17928   2.787   1.231   6.889 -0.5223  0.6814  0.0590
  160SAPE   C3617929   2.821   1.267   7.097  0.1872  0.0655  0.5858
  160SAPE   H6X17930   2.725   1.216   7.121  0.8955 -1.0933  1.0589
  160SAPE   H6Y17931   2.800   1.371   7.066  0.1510 -0.1877 -0.2571
  160SAPE   C3717932   2.920   1.252   7.213  0.3872 -0.0087  0.5094
  160SAPE   H7X17933   3.016   1.297   7.180 -0.9808  1.3767 -1.9244
  160SAPE   H7Y17934   2.945   1.148   7.242  0.3271  0.0054  0.6127
  160SAPE   C3817935   2.861   1.322   7.335 -0.3714  0.6746  1.0078
  160SAPE   H8X17936   2.756   1.354   7.318 -0.2194 -0.3920 -2.6629
  160SAPE   H8Y17937   2.916   1.418   7.342  1.3063 -0.2028  0.3301
  160SAPE   C3917938   2.883   1.245   7.453 -0.5491  0.3487  0.4248
  160SAPE   H9X17939   2.991   1.219   7.462 -0.1653  1.1969 -1.2640
  160SAPE   H9Y17940   2.826   1.151   7.439  0.0096  0.3893 -2.9167
  160SAPE  C31017941   2.840   1.324   7.578  0.5911 -0.6164  0.5651
  160SAPE  H10X17942   2.740   1.360   7.546  1.1912  0.3752 -0.2547
  160SAPE  H10Y17943   2.907   1.412   7.577 -0.5153  0.2584 -0.6744
  160SAPE  C31117944   2.818   1.249   7.707  0.4007 -0.4667  0.0253
  160SAPE  H11X17945   2.903   1.178   7.702  0.3206 -0.6998  1.4407
  160SAPE  H11Y17946   2.725   1.189   7.713 -0.0616  0.2437  0.0782
  160SAPE  C31217947   2.842   1.341   7.831 -0.5558 -0.5637 -0.6699
  160SAPE  H12X17948   2.786   1.438   7.827  0.0173 -0.2012  0.0428
  160SAPE  H12Y17949   2.948   1.375   7.826 -1.0280  0.9421 -1.0506
  160SAPE  C31317950   2.817   1.271   7.971  0.0238  0.1025  0.6807
  160SAPE  H13X17951   2.853   1.167   7.955 -1.2906 -0.2775  0.0146
  160SAPE  H13Y17952   2.711   1.273   8.004 -0.1757 -0.0102  0.0677
  160SAPE  C31417953   2.887   1.348   8.083  0.1114  0.0833  0.6280
  160SAPE  H14X17954   2.874   1.454   8.052  0.9604 -0.5399 -2.1174
  160SAPE  H14Y17955   2.997   1.335   8.075  0.0402 -0.3518  0.2703
  160SAPE  C31517956   2.827   1.310   8.217 -0.4782  0.0692 -0.3045
  160SAPE  H15X17957   2.857   1.204   8.230  1.2698  0.5416 -0.3174
  160SAPE  H15Y17958   2.716   1.304   8.217 -0.6910  2.2436  1.4899
  160SAPE  C31617959   2.883   1.400   8.336 -0.7084  0.2756  0.4671
  160SAPE  H16X17960   2.851   1.505   8.324  0.2751  0.4614 -0.8255
  160SAPE  H16Y17961   2.994   1.394   8.326 -0.7420  2.0470 -1.6276
  160SAPE  C31717962   2.841   1.355   8.470  0.3560  0.5595 -0.5608
  160SAPE  H17X17963   2.829   1.245   8.480 -2.9698  0.7623 -1.2165
  160SAPE  H17Y17964   2.738   1.393   8.485 -0.5462 -2.7075  3.5178
  160SAPE  C31817965   2.933   1.407   8.588  0.1249  0.3756 -0.3592
  160SAPE  H18X17966   3.035   1.365   8.588 -0.4552 -1.1981  1.5353
  160SAPE  H18Y17967   2.876   1.362   8.672  0.1291 -0.9313 -1.0355
  160SAPE  H18Z17968   2.932   1.518   8.595 -1.1931  0.7785 -4.4338
  161SOPE     N17969   4.973   1.361  11.223  0.3697  0.1586  0.0884
  161SOPE   HN117970   4.978   1.281  11.288 -1.3697 -1.4250 -1.5870
  161SOPE   HN217971   4.976   1.452  11.273 -1.1167  0.8805 -1.0386
  161SOPE   HN317972   4.875   1.345  11.191 -0.4593  1.9469  1.5606
  161SOPE   C1217973   5.061   1.360  11.098 -0.1811  0.0748  0.2137
  161SOPE  H12A17974   5.169   1.347  11.120  0.3099  1.6572 -1.0500
  161SOPE  H12B17975   5.050   1.457  11.046  1.7144  0.2777  0.1358
  161SOPE   C1117976   5.028   1.234  11.007  0.0630  0.0621 -0.3750
  161SOPE  H11A17977   5.067   1.142  11.055 -0.6982 -0.0620  0.0235
  161SOPE  H11B17978   5.068   1.247  10.904 -1.7274  1.8137 -0.9058
  161SOPE     P17979   4.798   1.294  10.925 -0.2806  0.0712  0.3704
  161SOPE   O1317980   4.816   1.435  10.971 -0.1362  0.3763 -0.7720
  161SOPE   O1417981   4.658   1.235  10.937 -0.2458  0.0798 -0.0040
  161SOPE   O1217982   4.888   1.198  11.002  0.0799  0.4806  0.7353
  161SOPE   O1117983   4.838   1.286  10.769 -0.0551 -0.3254 -0.0194
  161SOPE    C117984   4.891   1.398  10.699 -0.5911  0.3162  0.1866
  161SOPE    HA17985   4.926   1.359  10.600 -2.4589  2.3676 -1.3824
  161SOPE    HB17986   4.984   1.438  10.746 -1.1637  0.3426  1.3213
  161SOPE    C217987   4.791   1.505  10.652  0.4660 -0.6150  0.2749
  161SOPE    HS17988   4.719   1.519  10.736  1.4427 -0.1715  1.0559
  161SOPE   O2117989   4.721   1.458  10.541  0.3347 -0.5179  0.3847
  161SOPE   C2117990   4.603   1.510  10.503  0.3707  0.3681 -1.0672
  161SOPE   O2217991   4.547   1.597  10.568  0.2044  0.3064  0.2468
  161SOPE   C2217992   4.568   1.446  10.376 -0.5645  0.7010  0.3208
  161SOPE   H2R17993   4.521   1.346  10.384  3.0932 -1.2611 -0.4936
  161SOPE   H2S17994   4.652   1.422  10.307 -1.0629 -2.0009  0.5748
  161SOPE    C317995   4.847   1.647  10.636  0.4333 -0.1419  0.6358
  161SOPE    HX17996   4.886   1.681  10.734  2.7984  1.4888 -0.7769
  161SOPE    HY17997   4.774   1.727  10.612  1.2798  1.0223  1.8288
  161SOPE   O3117998   4.959   1.638  10.546  0.9538 -0.2019  0.3319
  161SOPE   C3117999   4.927   1.669  10.420  0.3814  0.4898 -0.4118
  161SOPE   O3218000   4.815   1.705  10.391  0.6590  0.2618  0.1254
  161SOPE   C3218001   5.055   1.659  10.331 -0.1925 -0.3499 -0.3382
  161SOPE   H2X18002   5.142   1.718  10.369  0.7418 -1.3626 -0.8351
  161SOPE   H2Y18003   5.012   1.717  10.246 -1.5583  0.6013  0.9439
  161SOPE   C2318004   4.459   1.532  10.298  0.4123 -0.1215 -0.4739
  161SOPE   H3R18005   4.483   1.641  10.299  0.4027 -0.0530  2.5067
  161SOPE   H3S18006   4.359   1.527  10.346  0.3119  0.7517 -0.5710
  161SOPE   C2418007   4.443   1.477  10.154  0.0608  0.5673 -0.1511
  161SOPE   H4R18008   4.460   1.367  10.160 -0.6885  0.4246 -0.5878
  161SOPE   H4S18009   4.344   1.481  10.104  1.3047 -1.1191 -3.0489
  161SOPE   C2518010   4.530   1.555  10.059  0.1105 -0.2095 -0.2394
  161SOPE   H5R18011   4.497   1.661  10.057  1.8732  0.3723 -1.0636
  161SOPE   H5S18012   4.638   1.542  10.085  0.2805  0.4646 -0.5888
  161SOPE   C2618013   4.521   1.516   9.916 -0.3227  0.3001 -0.4046
  161SOPE   H6R18014   4.572   1.419   9.901 -0.9775 -0.1110 -0.0364
  161SOPE   H6S18015   4.416   1.490   9.890 -0.6598 -0.3789  1.4978
  161SOPE   C2718016   4.583   1.609   9.808  0.2527  0.3900  0.2007
  161SOPE   H7R18017   4.522   1.700   9.792  1.5721  0.8502 -3.1369
  161SOPE   H7S18018   4.683   1.638   9.848  1.1129 -1.0698 -0.7587
  161SOPE   C2818019   4.592   1.539   9.664  0.3656 -0.1717  0.2451
  161SOPE   H8R18020   4.670   1.461   9.660  0.1484 -0.3395 -2.7278
  161SOPE   H8S18021   4.492   1.489   9.666  0.4862 -0.4724  2.9033
  161SOPE   C2918022   4.625   1.633   9.547 -0.1371  0.0639 -0.3195
  161SOPE   H9118023   4.731   1.640   9.522  1.5759 -0.8037  5.1689
  161SOPE  C21018024   4.531   1.711   9.490 -0.4595  0.5505  0.0577
  161SOPE  H10118025   4.551   1.757   9.392  2.3053 -0.0735  0.2243
  161SOPE  C21118026   4.387   1.717   9.527 -0.1080  0.1279 -0.9311
  161SOPE  H11R18027   4.361   1.658   9.618  0.9006  0.3429 -0.4912
  161SOPE  H11S18028   4.326   1.675   9.444  0.3968 -0.4437 -1.0210
  161SOPE  C21218029   4.325   1.868   9.534 -0.2927 -0.6080 -0.6783
  161SOPE  H12R18030   4.215   1.856   9.534 -0.4476  0.7339 -0.4308
  161SOPE  H12S18031   4.352   1.913   9.436 -0.4897  0.1281 -0.3942
  161SOPE  C21318032   4.366   1.942   9.661  0.0032 -0.1196 -0.8678
  161SOPE  H13R18033   4.328   2.046   9.659  0.7509  0.2840  1.7877
  161SOPE  H13S18034   4.470   1.926   9.697  0.2410  0.8919 -1.0875
  161SOPE  C21418035   4.282   1.897   9.787  0.3518 -0.7833  0.2186
  161SOPE  H14R18036   4.318   1.801   9.830  2.2805  0.0618  0.5624
  161SOPE  H14S18037   4.185   1.891   9.732  0.9857 -1.4721 -0.8841
  161SOPE  C21518038   4.288   2.010   9.891 -0.4768  0.8903 -0.1212
  161SOPE  H15R18039   4.225   1.979   9.977  0.1800 -0.1656 -0.0163
  161SOPE  H15S18040   4.237   2.103   9.857 -0.9418  1.1377  1.2088
  161SOPE  C21618041   4.425   2.045   9.946 -0.3873 -0.1392  0.7243
  161SOPE  H16R18042   4.405   2.133  10.011  0.1020  2.3340 -2.2464
  161SOPE  H16S18043   4.486   2.087   9.863 -2.6137 -0.4479 -1.1940
  161SOPE  C21718044   4.491   1.931  10.018  0.8058  0.1907  0.2847
  161SOPE  H17R18045   4.502   1.844   9.949  1.6125 -0.8577  1.6738
  161SOPE  H17S18046   4.423   1.890  10.096  0.5921 -2.3122 -1.0882
  161SOPE  C21818047   4.631   1.968  10.070  0.2166 -0.6192 -1.2835
  161SOPE  H18R18048   4.665   1.887  10.137  2.2503  0.2681 -1.1772
  161SOPE  H18S18049   4.632   2.058  10.136  1.8033 -1.1211 -0.5707
  161SOPE  H18T18050   4.701   1.979   9.985  0.0357  0.8891 -1.2705
  161SOPE   C3318051   5.088   1.510  10.296 -0.9142  0.1694  0.0783
  161SOPE   H3X18052   5.104   1.454  10.390 -0.5931  1.6511  0.9328
  161SOPE   H3Y18053   5.187   1.516  10.247 -1.2545 -1.4862 -0.8799
  161SOPE   C3418054   4.986   1.428  10.213  0.3610 -0.1106  0.7737
  161SOPE   H4X18055   4.894   1.429  10.275 -0.4086  2.8284 -0.2528
  161SOPE   H4Y18056   5.026   1.324  10.206 -2.3466 -1.1004 -2.4028
  161SOPE   C3518057   4.962   1.478  10.071  0.5177 -0.5769 -0.5770
  161SOPE   H5X18058   5.058   1.518  10.030  0.5294 -0.7409 -0.7106
  161SOPE   H5Y18059   4.887   1.560  10.076  0.7377 -0.3469 -0.9564
  161SOPE   C3618060   4.924   1.385   9.960 -0.4157  0.2468 -0.0353
  161SOPE   H6X18061   4.814   1.378   9.956 -0.4532 -0.2089  1.4113
  161SOPE   H6Y18062   4.961   1.283   9.982 -1.4730 -0.7468 -2.4633
  161SOPE   C3718063   4.972   1.417   9.818 -0.1400 -0.0961 -0.0988
  161SOPE   H7X18064   5.081   1.437   9.820 -0.4238  1.6282  2.7423
  161SOPE   H7Y18065   4.919   1.506   9.776  1.0980  0.0599 -1.3855
  161SOPE   C3818066   4.956   1.292   9.727  0.0132  0.4498  0.3596
  161SOPE   H8X18067   4.854   1.252   9.745 -0.2468  0.6488 -0.6043
  161SOPE   H8Y18068   5.043   1.225   9.742 -0.7628 -1.1682 -1.8043
  161SOPE   C3918069   4.974   1.320   9.578  0.6637 -0.5883 -0.2651
  161SOPE   H9X18070   5.081   1.328   9.550  1.0298 -2.4179  0.4637
  161SOPE   H9Y18071   4.923   1.418   9.564 -0.8536 -1.0787  1.4636
  161SOPE  C31018072   4.911   1.219   9.480  0.2484  0.5404 -0.0483
  161SOPE  H10X18073   4.858   1.133   9.526  1.1688 -0.2652 -0.4683
  161SOPE  H10Y18074   5.000   1.181   9.426 -0.3178 -0.7112 -0.1171
  161SOPE  C31118075   4.835   1.290   9.367  0.0991  0.6577 -0.1982
  161SOPE  H11X18076   4.906   1.367   9.331 -0.0051  0.7733 -0.1577
  161SOPE  H11Y18077   4.742   1.334   9.411  0.8899  0.3453  1.9156
  161SOPE  C31218078   4.791   1.193   9.256 -0.4127  0.7924  0.0366
  161SOPE  H12X18079   4.715   1.124   9.298  1.3556 -0.7433  0.8668
  161SOPE  H12Y18080   4.877   1.126   9.235  1.1688  2.0403  2.1624
  161SOPE  C31318081   4.743   1.267   9.135 -0.3758  0.4497  0.4431
  161SOPE  H13X18082   4.746   1.201   9.046 -2.8199  0.4638  0.2684
  161SOPE  H13Y18083   4.812   1.350   9.111 -4.5740  3.8750 -1.1324
  161SOPE  C31418084   4.597   1.325   9.121 -0.4736  0.5202 -0.1465
  161SOPE  H14X18085   4.580   1.378   9.025  2.6268 -1.4653 -1.9832
  161SOPE  H14Y18086   4.580   1.386   9.212 -1.2648 -2.4060  1.8440
  161SOPE  C31518087   4.494   1.212   9.131 -0.8848  0.3633 -0.0468
  161SOPE  H15X18088   4.505   1.152   9.224  0.8577 -0.2078 -0.5882
  161SOPE  H15Y18089   4.524   1.144   9.048  1.4278  0.8341  0.3394
  161SOPE  C31618090   4.351   1.263   9.118 -0.0700 -0.4560  0.9034
  161SOPE  H16X18091   4.338   1.307   9.017  1.0722 -1.7687  0.1522
  161SOPE  H16Y18092   4.340   1.343   9.195 -0.8785  0.8988 -0.5589
  161SOPE  C31718093   4.239   1.156   9.137 -0.5800  0.9713  0.2499
  161SOPE  H17X18094   4.236   1.141   9.247  0.0195  1.3065  0.3135
  161SOPE  H17Y18095   4.277   1.063   9.089 -1.2908 -0.1187  1.7044
  161SOPE  C31818096   4.101   1.191   9.076 -0.1454 -0.2996 -0.2432
  161SOPE  H18X18097   4.037   1.104   9.103  1.2738 -1.0739  0.7575
  161SOPE  H18Y18098   4.109   1.199   8.966 -0.8350 -0.9580 -0.3532
  161SOPE  H18Z18099   4.073   1.285   9.128 -1.6446 -1.0940  0.4696
  162SOPE     N18100   4.367   1.832  10.641 -0.1418  0.1546 -0.0212
  162SOPE   HN118101   4.351   1.888  10.555  2.0529  0.5594 -0.2096
  162SOPE   HN218102   4.365   1.889  10.728 -0.8162 -1.7374  1.2523
  162SOPE   HN318103   4.465   1.803  10.628  0.6329  2.3345  0.4754
  162SOPE   C1218104   4.280   1.708  10.636  0.0147 -0.5442 -0.1684
  162SOPE  H12A18105   4.303   1.650  10.728 -0.0221  0.8607  0.7657
  162SOPE  H12B18106   4.314   1.643  10.553  3.0124  0.0573  0.4670
  162SOPE   C1118107   4.129   1.745  10.641 -0.7660  0.3327  0.0623
  162SOPE  H11A18108   4.071   1.653  10.620  1.0457 -0.4922 -1.5921
  162SOPE  H11B18109   4.111   1.814  10.556  0.2100 -0.4606 -0.8023
  162SOPE     P18110   3.976   1.900  10.780  0.0855  0.3636  0.5934
  162SOPE   O1318111   4.001   2.017  10.863 -0.2472  0.1095 -0.1232
  162SOPE   O1418112   3.854   1.830  10.809  1.2162  0.4528  0.3725
  162SOPE   O1218113   4.105   1.802  10.770  0.4781 -0.4353  0.2098
  162SOPE   O1118114   3.960   1.961  10.630 -0.1406 -0.1154 -0.5186
  162SOPE    C118115   3.842   1.931  10.551 -0.2638 -0.1018  0.1182
  162SOPE    HA18116   3.760   1.986  10.602  1.8743  1.5322  1.9837
  162SOPE    HB18117   3.833   1.821  10.544  0.5288 -0.0571 -3.2060
  162SOPE    C218118   3.856   1.991  10.402 -0.7141  0.2843 -0.2668
  162SOPE    HS18119   3.761   1.978  10.345 -0.5477  0.7682 -0.6722
  162SOPE   O2118120   3.960   1.928  10.325 -0.2620  0.0084 -0.2316
  162SOPE   C2118121   3.935   1.807  10.282  0.4563  0.2992 -0.3087
  162SOPE   O2218122   3.827   1.749  10.290  0.3190 -0.4192  0.1645
  162SOPE   C2218123   4.062   1.747  10.218  0.0441  0.1734  1.1097
  162SOPE   H2R18124   4.139   1.728  10.296  0.5215  2.1653  1.1753
  162SOPE   H2S18125   4.114   1.816  10.148 -0.8997 -0.5219 -0.3264
  162SOPE    C318126   3.885   2.142  10.405  0.1156 -0.0873  0.0609
  162SOPE    HX18127   3.981   2.167  10.455 -0.4791  0.2073  1.1118
  162SOPE    HY18128   3.818   2.183  10.484 -2.1379 -1.6607 -0.9383
  162SOPE   O3118129   3.865   2.202  10.270 -0.3218 -0.2391  0.8133
  162SOPE   C3118130   3.968   2.273  10.224  0.0619  0.4613  1.4500
  162SOPE   O3218131   4.068   2.298  10.288  0.2806  0.1878  0.7703
  162SOPE   C3218132   3.934   2.321  10.081 -0.6060  0.7895 -0.4265
  162SOPE   H2X18133   4.021   2.382  10.049 -0.1709 -0.7662 -2.4053
  162SOPE   H2Y18134   3.843   2.383  10.073 -0.7140  0.6883 -0.0400
  162SOPE   C2318135   4.041   1.604  10.163 -0.1080 -0.6675  0.4171
  162SOPE   H3R18136   3.969   1.548  10.226 -0.1055  1.0440  2.0382
  162SOPE   H3S18137   4.127   1.534  10.161 -0.3687 -0.9872 -1.0747
  162SOPE   C2418138   3.991   1.588  10.012  0.0765 -1.1887  0.2574
  162SOPE   H4R18139   4.074   1.615   9.944 -0.2051  0.9875  0.6803
  162SOPE   H4S18140   3.940   1.491   9.994 -1.4518 -0.3499 -0.1086
  162SOPE   C2518141   3.891   1.700   9.975 -0.5389  0.0800  0.2389
  162SOPE   H5R18142   3.811   1.703  10.053 -0.5995  0.4977  0.1620
  162SOPE   H5S18143   3.952   1.793   9.969 -0.9569  0.2793 -1.3420
  162SOPE   C2618144   3.821   1.665   9.841 -0.1201 -0.3187 -0.2907
  162SOPE   H6R18145   3.811   1.555   9.839  0.3432 -0.3942  0.9660
  162SOPE   H6S18146   3.716   1.702   9.843 -0.6976 -1.8603 -0.8301
  162SOPE   C2718147   3.897   1.715   9.709  0.4321  0.4933 -0.0205
  162SOPE   H7R18148   3.912   1.821   9.741  0.1365  0.3708  0.5302
  162SOPE   H7S18149   3.994   1.668   9.684  1.0425  2.1818 -0.9805
  162SOPE   C2818150   3.816   1.703   9.579  0.1093  0.9871 -0.1487
  162SOPE   H8R18151   3.709   1.730   9.593 -0.4310 -1.0677 -0.0592
  162SOPE   H8S18152   3.865   1.764   9.500  0.7064 -1.6426 -1.9103
  162SOPE   C2918153   3.814   1.563   9.531  0.6079 -0.1751  0.3110
  162SOPE   H9118154   3.723   1.511   9.564 -0.8823  2.0359 -0.0435
  162SOPE  C21018155   3.893   1.511   9.437  0.0016 -0.6721 -0.5716
  162SOPE  H10118156   3.873   1.406   9.409 -0.9145 -0.5884 -0.2506
  162SOPE  C21118157   4.014   1.585   9.377 -0.1051 -0.4411 -0.2184
  162SOPE  H11R18158   4.109   1.540   9.412 -1.0819 -0.0798  3.3144
  162SOPE  H11S18159   4.029   1.694   9.394 -0.9780 -0.4707  0.8986
  162SOPE  C21218160   3.995   1.587   9.225 -0.5857 -0.5067 -0.1352
  162SOPE  H12R18161   3.938   1.677   9.193  1.1100  0.1288 -1.5455
  162SOPE  H12S18162   3.950   1.492   9.187  0.7229 -0.6931 -1.2816
  162SOPE  C21318163   4.141   1.602   9.164 -0.1487  0.4369 -0.4166
  162SOPE  H13R18164   4.212   1.524   9.195  1.7730  2.9563  2.0137
  162SOPE  H13S18165   4.170   1.691   9.224 -1.2689  0.3953  0.2279
  162SOPE  C21418166   4.145   1.638   9.015  0.1534  0.6748 -0.2606
  162SOPE  H14R18167   4.248   1.675   8.996  0.7306  0.5673  2.2569
  162SOPE  H14S18168   4.071   1.720   9.007  1.8842  2.3809  0.4393
  162SOPE  C21518169   4.109   1.516   8.928 -0.3504  0.5897  0.9316
  162SOPE  H15R18170   4.023   1.463   8.973  0.2489 -1.7273 -0.5066
  162SOPE  H15S18171   4.196   1.447   8.924 -0.2333  0.7737  0.0326
  162SOPE  C21618172   4.072   1.546   8.779 -0.0772 -0.4769  0.1391
  162SOPE  H16R18173   4.087   1.456   8.717  0.4127 -1.2773  1.3794
  162SOPE  H16S18174   4.139   1.622   8.733 -0.5612 -0.8402 -1.2000
  162SOPE  C21718175   3.928   1.595   8.766 -0.0863 -0.3738  0.2139
  162SOPE  H17R18176   3.917   1.691   8.819  5.2168  0.9397 -0.4864
  162SOPE  H17S18177   3.861   1.519   8.811  0.9459 -0.8199  1.0557
  162SOPE  C21818178   3.873   1.616   8.619  0.0570 -0.1409  0.2187
  162SOPE  H18R18179   3.769   1.654   8.620 -0.6634 -1.8534 -1.9675
  162SOPE  H18S18180   3.868   1.521   8.562  1.0519  1.8225 -3.4903
  162SOPE  H18T18181   3.937   1.687   8.562 -0.8229  1.5995  1.3172
  162SOPE   C3318182   3.934   2.191   9.985  0.2097  0.6340 -0.0252
  162SOPE   H3X18183   3.856   2.119  10.019  1.0662  0.6337  2.1095
  162SOPE   H3Y18184   4.030   2.136   9.973  1.0001  2.1826 -1.1366
  162SOPE   C3418185   3.871   2.228   9.845 -0.7104 -0.3024 -0.4498
  162SOPE   H4X18186   3.943   2.305   9.808 -0.3089 -1.2602 -1.7734
  162SOPE   H4Y18187   3.776   2.280   9.871  0.1874  1.3518 -0.3399
  162SOPE   C3518188   3.875   2.114   9.737  0.1707 -0.3978  0.4086
  162SOPE   H5X18189   3.820   2.020   9.759  0.1844 -1.6466 -3.9717
  162SOPE   H5Y18190   3.980   2.078   9.744 -0.5738 -2.6099  0.9235
  162SOPE   C3618191   3.842   2.166   9.594  1.0885 -0.2173 -0.1135
  162SOPE   H6X18192   3.925   2.238   9.574 -0.0931  1.0909 -0.4911
  162SOPE   H6Y18193   3.750   2.227   9.610  1.3891  1.1939 -3.0038
  162SOPE   C3718194   3.842   2.061   9.488 -0.1165  0.1278  0.4512
  162SOPE   H7X18195   3.776   1.973   9.505 -1.2542  0.6418 -1.1472
  162SOPE   H7Y18196   3.943   2.016   9.496 -1.0731 -2.1608  0.3827
  162SOPE   C3818197   3.821   2.112   9.343 -0.0201 -0.1672 -0.3057
  162SOPE   H8X18198   3.890   2.196   9.321  0.4075 -0.4496 -0.0520
  162SOPE   H8Y18199   3.718   2.154   9.339 -0.5726 -0.6447  3.8246
  162SOPE   C3918200   3.846   2.002   9.245  0.6743 -0.1983  0.1284
  162SOPE   H9X18201   3.771   1.922   9.262  0.0800  0.3964  0.3688
  162SOPE   H9Y18202   3.948   1.961   9.260 -0.2158 -2.0727  1.3372
  162SOPE  C31018203   3.821   2.042   9.104 -0.9508  0.4116  0.0070
  162SOPE  H10X18204   3.903   2.107   9.067  0.0013 -0.8922 -0.2682
  162SOPE  H10Y18205   3.726   2.100   9.112 -1.1971 -0.2140  3.0313
  162SOPE  C31118206   3.805   1.923   9.010 -0.7766 -0.6403 -0.5886
  162SOPE  H11X18207   3.756   1.836   9.058 -1.0023  0.1786  0.7301
  162SOPE  H11Y18208   3.909   1.907   8.976  0.8338  2.6644  2.1019
  162SOPE  C31218209   3.721   1.965   8.883  0.6310  0.3921 -0.4589
  162SOPE  H12X18210   3.736   1.892   8.801 -1.2072 -0.6796  0.1115
  162SOPE  H12Y18211   3.745   2.068   8.848 -2.7797  1.1330 -1.0135
  162SOPE  C31318212   3.562   1.973   8.899  0.1580 -0.3365  0.0182
  162SOPE  H13X18213   3.537   2.051   8.973  0.5002 -0.2282  0.0203
  162SOPE  H13Y18214   3.538   1.874   8.943  1.2787 -0.3964  0.5276
  162SOPE  C31418215   3.496   2.003   8.759  0.5174 -0.5613 -0.3543
  162SOPE  H14X18216   3.525   2.106   8.730  2.1793 -0.6404  0.8574
  162SOPE  H14Y18217   3.386   2.008   8.768  0.5006 -0.5309 -0.5677
  162SOPE  C31518218   3.520   1.912   8.641 -0.1955 -0.4479 -0.7015
  162SOPE  H15X18219   3.493   1.807   8.669 -1.4242 -0.3036 -1.2553
  162SOPE  H15Y18220   3.628   1.922   8.618  0.4995 -2.1249  1.4545
  162SOPE  C31618221   3.437   1.951   8.520 -0.5783  0.1970  0.6394
  162SOPE  H16X18222   3.468   2.047   8.473 -2.4244 -0.1049 -1.3221
  162SOPE  H16Y18223   3.330   1.962   8.548 -1.0269 -0.0110 -0.8822
  162SOPE  C31718224   3.456   1.838   8.421 -0.1676  0.5641 -0.2531
  162SOPE  H17X18225   3.359   1.822   8.369 -0.5136 -0.2685  0.6363
  162SOPE  H17Y18226   3.474   1.741   8.471  2.3883 -0.9122 -3.6160
  162SOPE  C31818227   3.570   1.880   8.321  0.6368  0.2901 -0.2329
  162SOPE  H18X18228   3.641   1.925   8.393 -1.8744 -0.1958  2.7207
  162SOPE  H18Y18229   3.537   1.959   8.249  1.9831  0.3236 -0.8549
  162SOPE  H18Z18230   3.619   1.795   8.269 -0.1049 -0.9887  1.0904
  163SOPE     N18231   4.988   0.144  10.499 -0.0807 -0.2624  0.4933
  163SOPE   HN118232   4.946   0.123  10.592  1.0234  0.0291  1.0735
  163SOPE   HN218233   4.957   0.241  10.476  2.8275  1.0492  1.6102
  163SOPE   HN318234   4.949   0.077  10.429 -0.8445  1.1182 -0.4522
  163SOPE   C1218235   5.138   0.140  10.513 -0.3807  0.1235  0.5176
  163SOPE  H12A18236   5.163   0.060  10.587  1.0769 -0.7228 -0.8426
  163SOPE  H12B18237   5.182   0.237  10.543 -0.5327  0.4731 -0.3626
  163SOPE   C1118238   5.197   0.115  10.378 -0.7387  0.0101  0.2413
  163SOPE  H11A18239   5.308   0.124  10.381 -0.5398 -2.1808  0.8047
  163SOPE  H11B18240   5.151   0.178  10.299  0.0355 -0.7549 -0.8574
  163SOPE     P18241   5.267  -0.142  10.397  0.1088  0.2417  0.5247
  163SOPE   O1318242   5.180  -0.262  10.395 -0.0724  0.5252 -0.4140
  163SOPE   O1418243   5.315  -0.100  10.528 -0.5918 -0.3748 -0.1168
  163SOPE   O1218244   5.177  -0.021  10.343  0.5476  0.2744 -0.2441
  163SOPE   O1118245   5.384  -0.148  10.291  0.1063  0.1869  0.0577
  163SOPE    C118246   5.364  -0.141  10.146 -0.3775  0.5194  0.4964
  163SOPE    HA18247   5.267  -0.092  10.124 -0.2320  0.5523 -0.1081
  163SOPE    HB18248   5.374  -0.244  10.104 -1.8347  0.0637  1.2342
  163SOPE    C218249   5.469  -0.050  10.080  0.4899 -0.1877 -0.0122
  163SOPE    HS18250   5.491   0.030  10.154  0.2967  1.4191 -1.6301
  163SOPE   O2118251   5.406   0.012   9.967  0.1421 -0.6297  0.1122
  163SOPE   C2118252   5.471   0.124   9.922  0.4625 -0.3692 -0.4357
  163SOPE   O2218253   5.574   0.164   9.966 -0.4010  0.8126 -0.0961
  163SOPE   C2218254   5.392   0.177   9.804 -0.5950 -0.2958 -0.0734
  163SOPE   H2R18255   5.422   0.282   9.788  3.2012 -1.5315 -2.2893
  163SOPE   H2S18256   5.284   0.164   9.826 -0.6584  1.6964  0.9936
  163SOPE    C318257   5.600  -0.124  10.056 -0.0525 -0.3282  0.0984
  163SOPE    HX18258   5.636  -0.137  10.161 -0.2049 -0.4454  0.1359
  163SOPE    HY18259   5.672  -0.052  10.011 -1.3048  0.6060 -0.4706
  163SOPE   O3118260   5.583  -0.249   9.984  0.7706  0.0798 -0.3872
  163SOPE   C3118261   5.605  -0.255   9.856  0.7536 -0.0365  0.2263
  163SOPE   O3218262   5.621  -0.169   9.777  0.2447 -0.6594 -0.3144
  163SOPE   C3218263   5.586  -0.402   9.821  0.3218 -0.0536  0.1995
  163SOPE   H2X18264   5.489  -0.405   9.767  0.6811  2.7078 -0.7135
  163SOPE   H2Y18265   5.574  -0.457   9.917 -1.8504 -0.3892 -0.2179
  163SOPE   C2318266   5.439   0.120   9.663 -0.1926  0.1046  0.6618
  163SOPE   H3R18267   5.542   0.077   9.670  0.5950  1.9929  1.3172
  163SOPE   H3S18268   5.412   0.199   9.590 -2.3322 -0.7528  0.4702
  163SOPE   C2418269   5.350   0.004   9.618  0.9898  0.6215  0.7022
  163SOPE   H4R18270   5.362  -0.076   9.695  1.5471 -0.4893 -0.5061
  163SOPE   H4S18271   5.245   0.039   9.620  0.4213 -0.9133 -0.6346
  163SOPE   C2518272   5.375  -0.074   9.487  0.8989  0.1708 -0.2752
  163SOPE   H5R18273   5.485  -0.073   9.472  0.9193 -0.6460 -0.2123
  163SOPE   H5S18274   5.335  -0.178   9.494 -1.2679  0.9119 -0.7038
  163SOPE   C2618275   5.296   0.001   9.378  0.3905  0.3629 -0.0858
  163SOPE   H6R18276   5.187   0.002   9.402  0.2496  1.6086 -0.7126
  163SOPE   H6S18277   5.334   0.106   9.383 -1.1349  0.9021  3.3821
  163SOPE   C2718278   5.310  -0.072   9.246 -0.0021 -0.3813 -0.3659
  163SOPE   H7R18279   5.418  -0.097   9.234  0.6522  0.4869  2.7741
  163SOPE   H7S18280   5.259  -0.170   9.238  0.9290 -0.7880 -1.7595
  163SOPE   C2818281   5.264   0.005   9.123  0.0804 -0.4805 -0.2958
  163SOPE   H8R18282   5.311   0.106   9.120  1.3905 -1.0595  0.0696
  163SOPE   H8S18283   5.317  -0.051   9.043  1.7904 -1.2836  1.3244
  163SOPE   C2918284   5.114   0.005   9.104  0.4462  0.5632  0.7198
  163SOPE   H9118285   5.048  -0.045   9.176  2.2194 -0.1383  1.9107
  163SOPE  C21018286   5.049   0.058   8.996 -0.3802 -0.4333  0.4975
  163SOPE  H10118287   4.940   0.054   8.993 -0.4084  0.2690 -2.0223
  163SOPE  C21118288   5.111   0.127   8.874  0.1906 -0.4236  0.9368
  163SOPE  H11R18289   5.098   0.077   8.776  0.5484  0.4118  0.4531
  163SOPE  H11S18290   5.221   0.131   8.888  0.4071 -1.1001 -0.3888
  163SOPE  C21218291   5.053   0.271   8.848 -0.2128  0.8611  0.2241
  163SOPE  H12R18292   5.108   0.334   8.775 -1.8793  1.1587 -0.8051
  163SOPE  H12S18293   5.068   0.312   8.950  0.9566 -1.1253  0.9253
  163SOPE  C21318294   4.906   0.265   8.799  0.5048 -0.3903  0.3567
  163SOPE  H13R18295   4.836   0.227   8.876  0.2212 -2.9172 -1.0329
  163SOPE  H13S18296   4.895   0.193   8.716 -0.4417  0.3297 -0.1528
  163SOPE  C21418297   4.855   0.401   8.749 -0.1302 -0.1490 -0.0800
  163SOPE  H14R18298   4.934   0.471   8.715 -0.1637  0.4953  1.1141
  163SOPE  H14S18299   4.809   0.454   8.836  2.4848 -2.4157  2.9459
  163SOPE  C21518300   4.742   0.390   8.646  0.6228 -0.2255 -0.1539
  163SOPE  H15R18301   4.679   0.306   8.680  2.3535 -0.2859  3.2970
  163SOPE  H15S18302   4.774   0.365   8.543 -1.3074  1.6454 -1.2930
  163SOPE  C21618303   4.656   0.515   8.633 -0.2376  0.2754 -0.5163
  163SOPE  H16R18304   4.714   0.609   8.644  0.3010 -0.1378  0.1761
  163SOPE  H16S18305   4.579   0.507   8.713 -0.3706 -0.9942 -0.7482
  163SOPE  C21718306   4.595   0.529   8.499  0.3764 -0.4195 -0.0728
  163SOPE  H17R18307   4.527   0.444   8.474 -0.3509  0.1226  0.0404
  163SOPE  H17S18308   4.674   0.522   8.421 -0.3598 -3.1587 -0.7146
  163SOPE  C21818309   4.508   0.656   8.486  0.3600 -0.3832 -0.0404
  163SOPE  H18R18310   4.428   0.651   8.563 -0.7812 -0.0938 -1.1758
  163SOPE  H18S18311   4.455   0.654   8.388  1.3059 -0.3015 -0.5610
  163SOPE  H18T18312   4.564   0.751   8.493  0.3189 -0.2052 -1.6766
  163SOPE   C3318313   5.702  -0.466   9.734 -0.5112 -0.7219 -0.0211
  163SOPE   H3X18314   5.696  -0.577   9.731 -1.5869 -0.6490 -1.7068
  163SOPE   H3Y18315   5.799  -0.444   9.785 -0.6400  2.2242 -0.8380
  163SOPE   C3418316   5.706  -0.413   9.591 -0.0261  0.9510 -0.0727
  163SOPE   H4X18317   5.768  -0.480   9.528 -0.3059  0.8967 -0.2876
  163SOPE   H4Y18318   5.751  -0.311   9.587  0.3379  0.7691 -3.0199
  163SOPE   C3518319   5.563  -0.421   9.529  0.5638  0.1112 -0.1893
  163SOPE   H5X18320   5.507  -0.342   9.584  1.3198  0.3382  0.2746
  163SOPE   H5Y18321   5.515  -0.519   9.548 -0.7342  0.5336 -1.1330
  163SOPE   C3618322   5.555  -0.375   9.383 -0.6532 -0.0367 -0.6000
  163SOPE   H6X18323   5.619  -0.284   9.380 -0.9853  0.3812  2.2063
  163SOPE   H6Y18324   5.451  -0.341   9.362 -1.4850  0.9397  3.9953
  163SOPE   C3718325   5.621  -0.477   9.288 -0.3137  0.6197  0.3105
  163SOPE   H7X18326   5.559  -0.569   9.283 -0.6209  0.8904 -1.7704
  163SOPE   H7Y18327   5.716  -0.516   9.329 -0.2149  1.3051  0.7524
  163SOPE   C3818328   5.634  -0.430   9.148 -0.5852 -0.5266  0.4042
  163SOPE   H8X18329   5.688  -0.503   9.084 -2.0883  0.6108 -2.3258
  163SOPE   H8Y18330   5.682  -0.330   9.154  0.4334 -0.8752 -1.0952
  163SOPE   C3918331   5.498  -0.417   9.077  0.7421 -0.6617 -1.4327
  163SOPE   H9X18332   5.420  -0.388   9.150  1.1388 -1.1375 -0.8090
  163SOPE   H9Y18333   5.473  -0.518   9.038  0.9339 -1.1465 -0.3477
  163SOPE  C31018334   5.500  -0.329   8.958 -0.4999 -0.2430 -0.5242
  163SOPE  H10X18335   5.578  -0.360   8.885 -0.1645 -0.7114  0.0289
  163SOPE  H10Y18336   5.524  -0.226   8.992  0.5759 -1.4810  2.9244
  163SOPE  C31118337   5.374  -0.331   8.882 -0.0211  0.6509 -0.0543
  163SOPE  H11X18338   5.289  -0.301   8.947 -0.3212 -2.3171  1.0790
  163SOPE  H11Y18339   5.352  -0.437   8.856 -1.6743  1.1668 -0.9116
  163SOPE  C31218340   5.360  -0.246   8.753 -0.1537  0.1349  0.5194
  163SOPE  H12X18341   5.253  -0.244   8.724 -0.7724  1.8284  2.6280
  163SOPE  H12Y18342   5.415  -0.283   8.664 -0.1798 -2.9791  1.6956
  163SOPE  C31318343   5.396  -0.101   8.783 -0.0728  0.0131 -0.8294
  163SOPE  H13X18344   5.496  -0.083   8.828 -0.0502  0.1734 -0.9426
  163SOPE  H13Y18345   5.317  -0.063   8.851 -0.3022 -1.5302 -0.1873
  163SOPE  C31418346   5.388  -0.004   8.662  0.0092 -0.6544  0.3724
  163SOPE  H14X18347   5.346   0.094   8.694 -0.4092 -0.7065 -0.0092
  163SOPE  H14Y18348   5.308  -0.035   8.591  0.2180 -1.4480  0.4749
  163SOPE  C31518349   5.518   0.018   8.574  0.2278  0.0911  0.2671
  163SOPE  H15X18350   5.494   0.076   8.482 -2.0357  0.1963  0.8780
  163SOPE  H15Y18351   5.572  -0.073   8.537  0.1402 -0.1457  0.7120
  163SOPE  C31618352   5.622   0.107   8.655  0.4348  0.5184 -0.3440
  163SOPE  H16X18353   5.644   0.044   8.744 -1.7185  1.0167  0.6194
  163SOPE  H16Y18354   5.562   0.189   8.700 -0.9520 -0.3041 -0.6322
  163SOPE  C31718355   5.741   0.162   8.598 -0.1992  0.4794  0.4861
  163SOPE  H17X18356   5.816   0.085   8.570  0.8562  2.0234 -1.1261
  163SOPE  H17Y18357   5.791   0.226   8.672  0.9315  0.7652 -0.4903
  163SOPE  C31818358   5.709   0.230   8.463 -0.7787  0.2577  0.3048
  163SOPE  H18X18359   5.684   0.155   8.385 -0.9942 -1.0873  1.6245
  163SOPE  H18Y18360   5.806   0.275   8.432  0.8250 -0.9252  3.2029
  163SOPE  H18Z18361   5.646   0.321   8.480 -0.1437  0.6160  0.7582
  164SOPE     N18362   1.112   3.804  10.563 -0.7791 -0.2082  0.1318
  164SOPE   HN118363   1.180   3.789  10.640 -0.0562  0.2929 -0.3877
  164SOPE   HN218364   1.015   3.784  10.593 -1.6745  1.7384 -1.2636
  164SOPE   HN318365   1.138   3.733  10.492 -0.0031  1.7324 -1.6543
  164SOPE   C1218366   1.136   3.944  10.517 -0.0280 -0.8153  0.3005
  164SOPE  H12A18367   1.230   3.947  10.457 -0.3016  1.1875 -0.1050
  164SOPE  H12B18368   1.151   4.010  10.605  1.2699 -0.5460 -0.0872
  164SOPE   C1118369   1.016   4.004  10.427  0.1868 -0.8594 -0.7864
  164SOPE  H11A18370   1.057   4.091  10.371  1.1920 -1.3939 -0.9056
  164SOPE  H11B18371   0.955   4.047  10.509  0.4733  2.3434 -2.0960
  164SOPE     P18372   0.890   3.934  10.201  0.3018 -0.0837 -0.2011
  164SOPE   O1318373   0.998   3.939  10.106 -0.1433 -0.1067  0.8617
  164SOPE   O1418374   0.785   4.036  10.199 -0.0319  0.3431  0.1301
  164SOPE   O1218375   0.951   3.916  10.345  0.1062 -0.0583  0.1279
  164SOPE   O1118376   0.822   3.796  10.186  0.0616 -0.5029 -0.0750
  164SOPE    C118377   0.891   3.667  10.186  0.0621  0.1616  0.5853
  164SOPE    HA18378   0.828   3.594  10.242 -0.8173 -0.1191 -0.7156
  164SOPE    HB18379   0.984   3.670  10.247  0.3982 -1.4721  0.2022
  164SOPE    C218380   0.929   3.615  10.043  0.1662  0.1913 -0.4695
  164SOPE    HS18381   0.988   3.699   9.999  0.5319  0.0929 -0.1732
  164SOPE   O2118382   0.813   3.599   9.953 -1.1203 -0.0625 -0.3846
  164SOPE   C2118383   0.714   3.507   9.975  0.0922 -0.0354 -0.3328
  164SOPE   O2218384   0.720   3.428  10.070 -0.1828  0.1066 -0.3248
  164SOPE   C2218385   0.606   3.500   9.872  0.4323 -0.2839  0.5224
  164SOPE   H2R18386   0.595   3.606   9.839 -0.1351 -0.6227 -0.4030
  164SOPE   H2S18387   0.515   3.459   9.920  0.6321 -0.5159  0.7079
  164SOPE    C318388   1.036   3.498  10.049  0.1691 -0.0513 -0.2794
  164SOPE    HX18389   0.989   3.408  10.094 -2.1115  0.7472 -0.8983
  164SOPE    HY18390   1.119   3.524  10.117  1.3040 -1.4552 -1.0853
  164SOPE   O3118391   1.086   3.463   9.919  0.3026 -0.0180  0.9060
  164SOPE   C3118392   1.170   3.356   9.925 -0.4500  0.3608  0.0185
  164SOPE   O3218393   1.191   3.287  10.025 -0.1514 -0.5027 -0.1638
  164SOPE   C3218394   1.235   3.333   9.787 -0.3510 -0.0164 -1.1453
  164SOPE   H2X18395   1.271   3.229   9.779 -1.9548 -0.5678 -1.6336
  164SOPE   H2Y18396   1.319   3.406   9.791 -1.1179  0.8460  0.3047
  164SOPE   C2318397   0.645   3.423   9.738  0.4085 -0.2678 -0.5510
  164SOPE   H3R18398   0.670   3.317   9.756  0.7175 -0.5154 -2.2439
  164SOPE   H3S18399   0.734   3.472   9.692 -0.0216  0.6389 -0.4505
  164SOPE   C2418400   0.532   3.403   9.638 -0.0802 -0.0643  0.2169
  164SOPE   H4R18401   0.572   3.326   9.568  0.8705  0.3548  0.2862
  164SOPE   H4S18402   0.446   3.355   9.689  0.9573 -2.6124 -0.2772
  164SOPE   C2518403   0.485   3.525   9.562 -0.5721 -0.1590  0.0457
  164SOPE   H5R18404   0.483   3.619   9.622 -0.0117 -0.4370  0.5123
  164SOPE   H5S18405   0.554   3.539   9.476 -0.6512 -0.1928 -0.0228
  164SOPE   C2618406   0.339   3.504   9.502 -0.4071 -0.3002 -0.2505
  164SOPE   H6R18407   0.271   3.479   9.587 -0.2010  0.7775  0.2516
  164SOPE   H6S18408   0.318   3.609   9.474  0.0540 -0.3012 -0.6157
  164SOPE   C2718409   0.327   3.409   9.388  0.1334 -0.0523  0.7165
  164SOPE   H7R18410   0.408   3.425   9.314 -0.4416 -0.0543  0.0828
  164SOPE   H7S18411   0.350   3.306   9.424  1.8447  0.3253  0.7601
  164SOPE   C2818412   0.195   3.402   9.307  0.4170  0.3300 -0.6360
  164SOPE   H8R18413   0.219   3.344   9.216 -0.2911  1.3211 -1.4739
  164SOPE   H8S18414   0.123   3.345   9.369  2.4688 -0.4383  1.1637
  164SOPE   C2918415   0.146   3.541   9.261  0.3378  0.1842  0.2472
  164SOPE   H9118416   0.204   3.579   9.177  1.2677  1.5637  1.4704
  164SOPE  C21018417   0.040   3.615   9.314  0.5787  0.5861 -0.1406
  164SOPE  H10118418   0.006   3.711   9.273  0.6189  1.1403  1.1039
  164SOPE  C21118419  -0.039   3.569   9.430 -0.2400  0.5699  0.3362
  164SOPE  H11R18420   0.009   3.481   9.479 -3.2426 -1.7580 -0.6324
  164SOPE  H11S18421  -0.142   3.540   9.401  0.1996  0.9717 -1.7541
  164SOPE  C21218422  -0.055   3.681   9.536 -0.6760 -0.3710  0.1569
  164SOPE  H12R18423  -0.111   3.647   9.626  2.3933 -0.7547  2.0635
  164SOPE  H12S18424  -0.117   3.767   9.502 -0.0321 -0.1077 -0.3694
  164SOPE  C21318425   0.081   3.726   9.589  0.1585 -0.2984  0.5066
  164SOPE  H13R18426   0.140   3.782   9.514 -1.5238 -1.4351 -1.7631
  164SOPE  H13S18427   0.139   3.639   9.626  2.8945  0.9110 -0.6519
  164SOPE  C21418428   0.070   3.816   9.724  0.5954 -0.1625  0.5094
  164SOPE  H14R18429   0.009   3.761   9.799 -3.1379  2.1828 -0.5121
  164SOPE  H14S18430   0.006   3.904   9.700  0.7844 -0.7831 -2.6138
  164SOPE  C21518431   0.207   3.848   9.781  0.3824  0.5235  0.5645
  164SOPE  H15R18432   0.275   3.914   9.723  0.1188  0.5149  0.2482
  164SOPE  H15S18433   0.264   3.753   9.791 -0.1429  0.4032  3.1294
  164SOPE  C21618434   0.207   3.894   9.935 -0.0632  0.1107  0.1165
  164SOPE  H16R18435   0.158   3.819  10.000 -0.6574 -0.2015 -0.6803
  164SOPE  H16S18436   0.143   3.985   9.939  0.3079  0.7236 -3.9684
  164SOPE  C21718437   0.344   3.924   9.995 -0.2316  0.1066 -0.5679
  164SOPE  H17R18438   0.332   3.956  10.101 -1.1505  2.9206 -1.4460
  164SOPE  H17S18439   0.384   4.015   9.947  1.9939  0.9087  2.5277
  164SOPE  C21818440   0.457   3.814   9.988  0.0828 -0.3471 -0.0200
  164SOPE  H18R18441   0.545   3.859  10.039  0.4014  0.0463 -0.8946
  164SOPE  H18S18442   0.475   3.793   9.880 -1.3177  2.3748 -0.9035
  164SOPE  H18T18443   0.414   3.723  10.034 -1.4992 -0.0373 -0.8096
  164SOPE   C3318444   1.145   3.380   9.668 -0.5750  0.6666  0.3155
  164SOPE   H3X18445   1.142   3.491   9.662  1.1483  0.6939 -0.8435
  164SOPE   H3Y18446   1.038   3.353   9.681 -1.0755  2.7066  0.7022
  164SOPE   C3418447   1.189   3.318   9.535 -0.1817 -0.2316  0.4095
  164SOPE   H4X18448   1.185   3.207   9.541 -0.9538 -0.3534 -1.5418
  164SOPE   H4Y18449   1.288   3.363   9.512 -0.2439  1.5534  3.1787
  164SOPE   C3518450   1.092   3.356   9.422 -0.0285 -0.1043  0.5746
  164SOPE   H5X18451   1.087   3.464   9.397 -0.6046 -0.3183 -0.2972
  164SOPE   H5Y18452   0.988   3.338   9.457  0.3761 -0.8584  1.4357
  164SOPE   C3618453   1.107   3.282   9.289 -0.5467 -0.6056  0.5541
  164SOPE   H6X18454   1.065   3.179   9.294 -1.0687 -0.5958 -2.3190
  164SOPE   H6Y18455   1.213   3.272   9.260 -0.1473 -0.0671  1.7630
  164SOPE   C3718456   1.054   3.357   9.164  0.6570  0.7560  0.1700
  164SOPE   H7X18457   1.102   3.455   9.141 -0.7462  2.1075  2.5563
  164SOPE   H7Y18458   0.946   3.374   9.186  0.5013  0.0843 -0.0605
  164SOPE   C3818459   1.072   3.262   9.042 -0.1378  0.0794  0.7999
  164SOPE   H8X18460   1.025   3.164   9.064 -2.0255 -0.2235 -3.6687
  164SOPE   H8Y18461   1.180   3.241   9.025 -0.4090  1.1627 -3.0777
  164SOPE   C3918462   1.007   3.331   8.917  0.7550 -0.9072 -0.9047
  164SOPE   H9X18463   1.065   3.424   8.900  0.4098 -0.7628 -1.2985
  164SOPE   H9Y18464   0.906   3.366   8.944  0.9006 -2.2436  1.7039
  164SOPE  C31018465   0.992   3.254   8.785  1.1848  0.0635  0.2461
  164SOPE  H10X18466   0.940   3.159   8.810 -0.0165  0.8358  0.7623
  164SOPE  H10Y18467   1.093   3.230   8.745  0.9543 -0.8287  0.1769
  164SOPE  C31118468   0.927   3.337   8.666 -0.1727  0.3281  0.5015
  164SOPE  H11X18469   0.958   3.443   8.656 -0.2168  0.3317  0.4008
  164SOPE  H11Y18470   0.820   3.351   8.691 -0.5508  0.7442 -1.2195
  164SOPE  C31218471   0.948   3.257   8.533  0.2507  0.0563 -0.5431
  164SOPE  H12X18472   0.892   3.162   8.546 -1.3471  1.2537  1.9725
  164SOPE  H12Y18473   1.057   3.235   8.520  0.7104  1.9258 -0.0717
  164SOPE  C31318474   0.895   3.321   8.402 -0.1715  0.6775 -0.1742
  164SOPE  H13X18475   0.965   3.390   8.350  0.1419  0.1556 -0.4641
  164SOPE  H13Y18476   0.803   3.381   8.414 -0.9755 -0.0675 -2.0490
  164SOPE  C31418477   0.863   3.214   8.289 -0.1377  0.3294 -0.3651
  164SOPE  H14X18478   0.786   3.269   8.230 -0.2290  0.9748  0.3433
  164SOPE  H14Y18479   0.815   3.122   8.330 -2.0911  1.5164  0.1728
  164SOPE  C31518480   0.986   3.176   8.214  0.3518  0.3181  0.0225
  164SOPE  H15X18481   1.066   3.143   8.283  1.8067 -1.0943 -2.2151
  164SOPE  H15Y18482   1.026   3.269   8.167 -1.7557  2.5438  2.2999
  164SOPE  C31618483   0.974   3.054   8.123  0.2461  0.4456  0.2533
  164SOPE  H16X18484   1.076   3.046   8.079  0.0931  0.8302 -0.1829
  164SOPE  H16Y18485   0.914   3.073   8.031  2.3433 -2.1803 -1.8316
  164SOPE  C31718486   0.944   2.922   8.187  0.0470  0.0697 -0.1093
  164SOPE  H17X18487   0.846   2.924   8.240 -0.0159  2.0714 -0.2168
  164SOPE  H17Y18488   1.029   2.915   8.258 -0.2013  2.3479  0.4928
  164SOPE  C31818489   0.931   2.803   8.087 -0.2153  0.0176 -0.7520
  164SOPE  H18X18490   0.833   2.794   8.035 -0.2905  0.9138 -0.7682
  164SOPE  H18Y18491   0.933   2.711   8.150 -3.2233 -0.5067 -1.2585
  164SOPE  H18Z18492   1.017   2.807   8.016  0.7122  2.2200  0.4175
  165SOPE     N18493   6.525   5.489  10.291 -0.5892 -0.3714  0.0543
  165SOPE   HN118494   6.566   5.513  10.198 -1.7278 -2.6292 -1.1232
  165SOPE   HN218495   6.591   5.535  10.357  1.9996  0.2693 -2.7332
  165SOPE   HN318496   6.540   5.388  10.310  2.4224 -0.0203  0.0225
  165SOPE   C1218497   6.384   5.539  10.295 -0.3618  0.2487  0.4268
  165SOPE  H12A18498   6.343   5.503  10.199  0.6402 -0.9684  0.4321
  165SOPE  H12B18499   6.394   5.650  10.295  2.2340  0.0978  1.2284
  165SOPE   C1118500   6.304   5.478  10.405 -0.1254  0.0082 -0.7681
  165SOPE  H11A18501   6.204   5.527  10.412  1.2567  2.9434  0.0667
  165SOPE  H11B18502   6.351   5.507  10.501  1.8729  0.2436 -1.7720
  165SOPE     P18503   6.179   5.265  10.343  0.2818  0.3325  0.3283
  165SOPE   O1318504   6.050   5.328  10.369  0.0311 -0.0065 -0.6085
  165SOPE   O1418505   6.190   5.125  10.375 -0.4698 -0.3514  0.3250
  165SOPE   O1218506   6.298   5.338  10.403 -0.1477  0.1767  0.0148
  165SOPE   O1118507   6.214   5.272  10.187 -0.0643 -0.9675 -0.3239
  165SOPE    C118508   6.332   5.212  10.127  0.2960  0.1139  0.3932
  165SOPE    HA18509   6.402   5.181  10.208 -1.0372 -0.9160  1.1864
  165SOPE    HB18510   6.384   5.279  10.055  2.8061 -0.7799  1.2734
  165SOPE    C218511   6.291   5.091  10.038  0.3100  0.1340  0.0539
  165SOPE    HS18512   6.392   5.058  10.006  1.6125  0.4220  3.3931
  165SOPE   O2118513   6.207   5.137   9.929  0.0519 -0.2051  0.2256
  165SOPE   C2118514   6.263   5.153   9.819 -0.3944  0.7853  0.3827
  165SOPE   O2218515   6.378   5.122   9.791 -0.0709  0.1468  0.1667
  165SOPE   C2218516   6.153   5.181   9.715 -0.5125 -0.1018 -0.3480
  165SOPE   H2R18517   6.153   5.291   9.698 -2.6394  0.0458  0.3810
  165SOPE   H2S18518   6.054   5.154   9.757 -1.7591  0.8622 -2.4870
  165SOPE    C318519   6.223   4.975  10.118  0.5578 -0.2651 -0.0067
  165SOPE    HX18520   6.125   5.015  10.152 -0.3704 -1.2150 -1.4739
  165SOPE    HY18521   6.291   4.936  10.197  1.0123  0.1264 -0.2027
  165SOPE   O3118522   6.189   4.866  10.035  0.2002  0.1301  0.2684
  165SOPE   C3118523   6.292   4.790   9.997  0.0695  0.1975 -0.1497
  165SOPE   O3218524   6.405   4.797  10.036  0.4291 -0.8917 -0.4574
  165SOPE   C3218525   6.244   4.690   9.895  0.0872 -0.1739  0.8353
  165SOPE   H2X18526   6.137   4.663   9.909  0.5158 -1.9439  0.8929
  165SOPE   H2Y18527   6.299   4.595   9.910 -0.5023 -0.5111  0.9078
  165SOPE   C2318528   6.177   5.106   9.579  0.0657  0.3562  0.1742
  165SOPE   H3R18529   6.099   5.027   9.571 -0.8738  1.2501  0.3371
  165SOPE   H3S18530   6.274   5.052   9.584 -0.6989 -0.9918  1.8951
  165SOPE   C2418531   6.174   5.193   9.458 -0.1624 -0.6509  0.2304
  165SOPE   H4R18532   6.075   5.243   9.467  0.1436  0.0433 -0.2112
  165SOPE   H4S18533   6.245   5.278   9.444 -2.8964  1.8396  0.5372
  165SOPE   C2518534   6.175   5.107   9.330 -0.4194 -0.3616  0.4453
  165SOPE   H5R18535   6.274   5.057   9.328 -1.7641 -3.2360  0.2918
  165SOPE   H5S18536   6.096   5.029   9.343 -0.1237 -0.6813  0.3367
  165SOPE   C2618537   6.140   5.179   9.191  0.0644  0.0224  0.8337
  165SOPE   H6R18538   6.032   5.201   9.201 -0.1791 -0.3623 -0.7357
  165SOPE   H6S18539   6.198   5.271   9.167  1.9019 -1.5306 -1.1273
  165SOPE   C2718540   6.146   5.070   9.083 -0.0381 -0.1007 -0.2018
  165SOPE   H7R18541   6.130   4.970   9.127  2.2300 -0.6578 -0.5131
  165SOPE   H7S18542   6.060   5.089   9.015 -0.4873 -3.4992 -0.7485
  165SOPE   C2818543   6.272   5.068   8.995 -0.5355  0.1450 -0.1219
  165SOPE   H8R18544   6.364   5.069   9.058 -0.0853 -0.9873 -0.7310
  165SOPE   H8S18545   6.260   4.971   8.943 -1.4912 -1.0650  2.2225
  165SOPE   C2918546   6.287   5.193   8.907 -0.1409 -0.7804  0.0845
  165SOPE   H9118547   6.319   5.281   8.965  0.4861 -0.4896 -0.6935
  165SOPE  C21018548   6.280   5.207   8.773 -0.7500  0.9030 -0.5808
  165SOPE  H10118549   6.293   5.307   8.729 -1.9180  0.7849 -1.2367
  165SOPE  C21118550   6.258   5.090   8.675  0.2067 -0.1292 -0.4472
  165SOPE  H11R18551   6.307   5.003   8.723  2.2717  0.9918 -0.4292
  165SOPE  H11S18552   6.319   5.126   8.590  0.2790  0.1659 -0.2732
  165SOPE  C21218553   6.114   5.070   8.632  0.2035 -0.1238 -0.3562
  165SOPE  H12R18554   6.052   5.050   8.722 -3.1040 -2.2963 -2.8798
  165SOPE  H12S18555   6.104   4.968   8.588 -1.6693 -1.0845  2.0618
  165SOPE  C21318556   6.057   5.181   8.542  0.7792  0.6347 -0.3931
  165SOPE  H13R18557   6.071   5.287   8.574  0.6564  1.1474 -1.9323
  165SOPE  H13S18558   5.949   5.155   8.547  1.4876 -2.4992  1.0911
  165SOPE  C21418559   6.111   5.161   8.400 -0.1979  0.8003 -0.1860
  165SOPE  H14R18560   6.090   5.055   8.371  0.0239  0.0118  2.2970
  165SOPE  H14S18561   6.221   5.168   8.405  0.0024 -1.8705  2.5633
  165SOPE  C21518562   6.040   5.260   8.309 -0.1298  0.3475 -0.2573
  165SOPE  H15R18563   5.929   5.250   8.309 -0.0699 -0.3905  0.3565
  165SOPE  H15S18564   6.066   5.218   8.209  2.3896 -0.0001  0.4852
  165SOPE  C21618565   6.069   5.411   8.317  0.8327  0.0574 -0.3511
  165SOPE  H16R18566   6.171   5.423   8.274  0.8211  1.9455  0.0545
  165SOPE  H16S18567   6.048   5.441   8.421 -0.1654 -0.3519 -0.4228
  165SOPE  C21718568   5.970   5.500   8.236  0.5256  0.0375  0.1960
  165SOPE  H17R18569   5.990   5.606   8.260 -0.3767  0.3624 -0.4364
  165SOPE  H17S18570   5.869   5.480   8.278 -1.4929  0.9991 -3.6941
  165SOPE  C21818571   5.980   5.464   8.091  0.3001 -0.1242  1.3142
  165SOPE  H18R18572   5.910   5.529   8.034 -0.5437  2.1892  4.6740
  165SOPE  H18S18573   5.959   5.359   8.062  0.2539  0.5836 -1.5585
  165SOPE  H18T18574   6.081   5.493   8.054 -0.2114 -0.3985 -0.4054
  165SOPE   C3318575   6.277   4.740   9.750  0.9222 -0.3054 -0.0810
  165SOPE   H3X18576   6.385   4.740   9.726  0.7878 -0.0878 -0.7117
  165SOPE   H3Y18577   6.239   4.843   9.732 -1.7397 -0.7955  2.1793
  165SOPE   C3418578   6.230   4.633   9.644  1.0293 -0.0798 -1.1268
  165SOPE   H4X18579   6.125   4.599   9.664  0.7757  0.8495 -0.8510
  165SOPE   H4Y18580   6.294   4.543   9.656  0.7366 -0.2672 -0.9290
  165SOPE   C3518581   6.235   4.678   9.503  0.0074  0.2232  0.9696
  165SOPE   H5X18582   6.163   4.762   9.489 -0.4215  0.0389  2.0168
  165SOPE   H5Y18583   6.213   4.593   9.435  3.4010 -0.2482  0.2794
  165SOPE   C3618584   6.380   4.719   9.456 -0.1794  0.1971 -0.1112
  165SOPE   H6X18585   6.443   4.629   9.467 -0.9854 -0.2654  0.8204
  165SOPE   H6Y18586   6.426   4.803   9.512 -0.6933  0.1887  0.3306
  165SOPE   C3718587   6.371   4.762   9.309 -0.0761  0.1248  0.0012
  165SOPE   H7X18588   6.329   4.862   9.287  0.8657  0.4913 -0.1725
  165SOPE   H7Y18589   6.309   4.688   9.253  0.8256 -1.7509  1.3633
  165SOPE   C3818590   6.512   4.774   9.244 -0.4263 -0.4169  0.2334
  165SOPE   H8X18591   6.553   4.673   9.269 -1.4643 -0.2666  2.7690
  165SOPE   H8Y18592   6.569   4.845   9.308  1.0417 -1.0602 -0.2963
  165SOPE   C3918593   6.517   4.803   9.098  0.9198 -0.1336  0.0237
  165SOPE   H9X18594   6.480   4.908   9.089 -0.4973 -0.7260 -1.4165
  165SOPE   H9Y18595   6.444   4.744   9.039  0.2815 -1.1835  1.7834
  165SOPE  C31018596   6.655   4.798   9.042  1.1640  0.1221  0.5249
  165SOPE  H10X18597   6.695   4.695   9.046 -2.3087 -1.5156 -1.8019
  165SOPE  H10Y18598   6.714   4.866   9.107  1.7276  1.1894 -1.0522
  165SOPE  C31118599   6.648   4.847   8.898 -0.2680  0.0252  0.7968
  165SOPE  H11X18600   6.743   4.904   8.890  1.6640 -3.0395  0.3120
  165SOPE  H11Y18601   6.556   4.908   8.883 -0.7474 -0.8962 -0.1132
  165SOPE  C31218602   6.656   4.733   8.797 -0.4724  0.0819  0.0320
  165SOPE  H12X18603   6.551   4.697   8.792 -0.2642 -0.3486 -2.0445
  165SOPE  H12Y18604   6.722   4.653   8.835  2.1504  2.5257  0.9798
  165SOPE  C31318605   6.703   4.766   8.658 -0.5600  0.6291 -0.2486
  165SOPE  H13X18606   6.698   4.680   8.587  3.8814 -0.5990  0.6363
  165SOPE  H13Y18607   6.809   4.799   8.664 -0.7774  1.3881 -0.4578
  165SOPE  C31418608   6.638   4.898   8.595  0.3730  1.2892 -0.6846
  165SOPE  H14X18609   6.670   4.985   8.656  2.3144  1.7329 -2.2288
  165SOPE  H14Y18610   6.527   4.891   8.604  0.3432  1.0244 -1.2280
  165SOPE  C31518611   6.676   4.929   8.455  0.3508  0.1369  0.0988
  165SOPE  H15X18612   6.642   4.841   8.395  1.5995  0.3445 -0.9631
  165SOPE  H15Y18613   6.782   4.946   8.427  0.5501  1.1977  1.3968
  165SOPE  C31618614   6.594   5.050   8.392  0.3472  0.0775 -0.0283
  165SOPE  H16X18615   6.488   5.049   8.427  0.8133 -0.7615  1.4332
  165SOPE  H16Y18616   6.586   5.024   8.285  0.9671  0.5743 -0.2018
  165SOPE  C31718617   6.643   5.195   8.415  0.0470  0.0100 -0.7033
  165SOPE  H17X18618   6.738   5.207   8.359  0.6200  2.3176  0.6600
  165SOPE  H17Y18619   6.680   5.196   8.520  2.2009 -1.4595 -1.3763
  165SOPE  C31818620   6.530   5.297   8.398  0.7205 -0.0275  0.0929
  165SOPE  H18X18621   6.561   5.403   8.405  0.8925 -0.1177  0.7459
  165SOPE  H18Y18622   6.452   5.289   8.476  0.4311  1.1106 -0.0715
  165SOPE  H18Z18623   6.477   5.283   8.301 -1.5036  0.1603  1.2092
  166SOPE     N18624   2.368   5.980  10.541  0.4970 -0.0264  0.2094
  166SOPE   HN118625   2.329   5.972  10.637 -1.4787  0.8992 -0.4614
  166SOPE   HN218626   2.307   5.917  10.487  1.5599  1.1626 -2.5482
  166SOPE   HN318627   2.455   5.925  10.525  0.1760 -0.7832  1.0113
  166SOPE   C1218628   2.370   6.123  10.486  0.6583 -0.4050  0.6674
  166SOPE  H12A18629   2.375   6.113  10.375 -1.8435  0.1445  0.4555
  166SOPE  H12B18630   2.455   6.185  10.521  1.9222 -2.0996  0.7209
  166SOPE   C1118631   2.245   6.201  10.525 -0.2289  0.0308 -0.2133
  166SOPE  H11A18632   2.260   6.310  10.505 -1.0392 -0.0405 -1.3706
  166SOPE  H11B18633   2.231   6.194  10.635 -0.5243  0.5315 -0.2109
  166SOPE     P18634   1.984   6.182  10.492  0.0615 -0.2190 -0.1485
  166SOPE   O1318635   1.970   6.309  10.565 -0.1470  0.4575 -0.2664
  166SOPE   O1418636   1.944   6.061  10.568 -0.3557 -0.0322 -0.2643
  166SOPE   O1218637   2.135   6.161  10.453  0.1326  0.3738  0.4862
  166SOPE   O1118638   1.914   6.180  10.352  0.5357 -0.3194  0.3569
  166SOPE    C118639   1.917   6.291  10.269 -0.2960  0.0283  0.0903
  166SOPE    HA18640   1.875   6.377  10.326  0.7788 -0.0083  0.9627
  166SOPE    HB18641   1.835   6.272  10.196 -0.7619  0.0064  0.6102
  166SOPE    C218642   2.051   6.312  10.194  0.2895 -0.0928 -0.6845
  166SOPE    HS18643   2.126   6.317  10.276 -0.5625 -1.0360  0.1823
  166SOPE   O2118644   2.046   6.437  10.127  0.1278 -0.2522  0.7786
  166SOPE   C2118645   2.166   6.474  10.084 -0.3734 -0.3801  0.8764
  166SOPE   O2218646   2.265   6.407  10.099  0.1523  0.4915  0.3532
  166SOPE   C2218647   2.158   6.602  10.018 -0.5489 -1.0952  0.1646
  166SOPE   H2R18648   2.136   6.682  10.092  1.0580  0.0145 -0.5211
  166SOPE   H2S18649   2.078   6.597   9.941  0.2636 -1.9259 -0.6578
  166SOPE    C318650   2.078   6.189  10.103  0.3580  0.0583  0.7183
  166SOPE    HX18651   2.065   6.104  10.173 -0.5397  1.6414  2.5731
  166SOPE    HY18652   2.185   6.182  10.073 -0.1822 -1.4570 -1.0037
  166SOPE   O3118653   1.983   6.173   9.992 -0.1349  0.6131 -0.0724
  166SOPE   C3118654   2.028   6.207   9.876 -0.2558 -0.9679 -0.5655
  166SOPE   O3218655   2.136   6.255   9.846 -0.4513  0.3446  0.2146
  166SOPE   C3218656   1.916   6.175   9.775  0.1757  0.1665 -0.1244
  166SOPE   H2X18657   1.820   6.150   9.825 -0.2516 -1.4860 -1.6444
  166SOPE   H2Y18658   1.963   6.091   9.720 -0.0589 -0.7950  1.1033
  166SOPE   C2318659   2.285   6.660   9.947  0.6053 -0.0267  0.4689
  166SOPE   H3R18660   2.375   6.674  10.011 -0.8128 -1.5125  2.9476
  166SOPE   H3S18661   2.245   6.758   9.912 -2.2354 -0.2573  2.7687
  166SOPE   C2418662   2.325   6.569   9.823 -0.5768 -0.6127 -0.3874
  166SOPE   H4R18663   2.409   6.500   9.848 -0.4208 -0.4556 -0.4771
  166SOPE   H4S18664   2.249   6.489   9.809 -1.8545  0.5724 -0.4537
  166SOPE   C2518665   2.342   6.659   9.696  0.1584 -0.5949  0.7422
  166SOPE   H5R18666   2.246   6.708   9.668  0.4334 -0.9350 -0.9042
  166SOPE   H5S18667   2.426   6.727   9.724  0.7330 -1.6931  1.7687
  166SOPE   C2618668   2.387   6.575   9.582  0.1684 -0.4638  0.0689
  166SOPE   H6R18669   2.435   6.648   9.514 -1.0805  0.6094  0.2933
  166SOPE   H6S18670   2.469   6.507   9.614  0.7352 -0.4103 -1.2138
  166SOPE   C2718671   2.280   6.504   9.501  0.2079  0.1694 -0.0811
  166SOPE   H7R18672   2.216   6.461   9.581 -2.1705  3.4533 -0.0201
  166SOPE   H7S18673   2.210   6.578   9.457  2.6022  1.5167 -1.8436
  166SOPE   C2818674   2.329   6.397   9.400 -0.0016 -0.0719 -0.4628
  166SOPE   H8R18675   2.410   6.442   9.338  0.0924  0.8503  0.3058
  166SOPE   H8S18676   2.383   6.323   9.462  3.2840  1.9261 -0.7205
  166SOPE   C2918677   2.209   6.341   9.329  0.1222 -0.1738  0.4945
  166SOPE   H9118678   2.128   6.303   9.393 -0.1709 -1.2008 -0.4579
  166SOPE  C21018679   2.195   6.323   9.196 -0.2357  0.0757 -0.7728
  166SOPE  H10118680   2.100   6.274   9.173  0.8693 -2.1829 -0.8876
  166SOPE  C21118681   2.295   6.356   9.094 -0.1132 -0.9297  0.3815
  166SOPE  H11R18682   2.365   6.270   9.088  0.7950 -0.5110  3.4526
  166SOPE  H11S18683   2.347   6.451   9.118 -0.0970 -0.4150 -1.5170
  166SOPE  C21218684   2.235   6.376   8.955  0.0871  0.4512 -0.1888
  166SOPE  H12R18685   2.176   6.287   8.926 -0.0394  0.1828  0.8300
  166SOPE  H12S18686   2.321   6.399   8.889  1.8534  0.3072  1.9441
  166SOPE  C21318687   2.132   6.487   8.941  0.1786  0.2323 -0.8082
  166SOPE  H13R18688   2.193   6.572   8.979 -1.1689  1.1221 -0.5524
  166SOPE  H13S18689   2.046   6.456   9.005 -1.0155  1.6973 -1.6305
  166SOPE  C21418690   2.082   6.496   8.798  0.1061 -0.4269  0.0452
  166SOPE  H14R18691   2.003   6.575   8.795 -0.0487 -0.6002 -0.8458
  166SOPE  H14S18692   2.036   6.400   8.768 -1.3769 -0.2669  1.6363
  166SOPE  C21518693   2.197   6.541   8.705 -0.0783  0.2090  0.4554
  166SOPE  H15R18694   2.252   6.450   8.671 -1.4980 -0.3228 -0.4900
  166SOPE  H15S18695   2.267   6.616   8.748 -1.9252  2.3877 -0.1844
  166SOPE  C21618696   2.127   6.590   8.575 -0.3186  0.2812  0.6586
  166SOPE  H16R18697   2.057   6.673   8.598  0.3181  1.1322 -0.3640
  166SOPE  H16S18698   2.065   6.503   8.547  0.5169 -0.6656  1.6621
  166SOPE  C21718699   2.210   6.619   8.452 -0.0977 -0.1832  1.4444
  166SOPE  H17R18700   2.152   6.595   8.361  1.8017 -0.1260  0.1524
  166SOPE  H17S18701   2.295   6.546   8.450  0.5637  0.5862  0.9125
  166SOPE  C21818702   2.260   6.757   8.464 -0.1887 -0.3715  0.3404
  166SOPE  H18R18703   2.183   6.837   8.464  0.7531  0.5577  1.2008
  166SOPE  H18S18704   2.321   6.768   8.372 -0.3136 -1.8374  0.0511
  166SOPE  H18T18705   2.326   6.764   8.553  0.9755 -0.9584 -0.4495
  166SOPE   C3318706   1.886   6.293   9.663  0.7896  0.2063 -0.4308
  166SOPE   H3X18707   1.978   6.351   9.638  0.0467  0.5190 -2.6525
  166SOPE   H3Y18708   1.817   6.365   9.711  2.8918  0.9590  1.6911
  166SOPE   C3418709   1.819   6.246   9.531 -0.4351 -0.1097 -1.5488
  166SOPE   H4X18710   1.719   6.205   9.556 -1.9055  3.4828 -0.9330
  166SOPE   H4Y18711   1.887   6.173   9.482  0.0587 -2.1441  1.7990
  166SOPE   C3518712   1.803   6.352   9.418 -1.3136 -0.6306 -0.0010
  166SOPE   H5X18713   1.889   6.422   9.415 -1.5520 -0.3205  0.2913
  166SOPE   H5Y18714   1.728   6.425   9.453  1.6288  1.9727  1.4121
  166SOPE   C3618715   1.778   6.282   9.279 -0.2431 -0.0954  0.2711
  166SOPE   H6X18716   1.702   6.203   9.295  1.1104 -1.2547  1.1353
  166SOPE   H6Y18717   1.871   6.232   9.247 -1.2416 -0.7132 -1.8838
  166SOPE   C3718718   1.733   6.379   9.165  0.5095 -0.2957  0.0506
  166SOPE   H7X18719   1.806   6.462   9.155 -0.3171  0.4092 -0.2895
  166SOPE   H7Y18720   1.634   6.421   9.193  0.0829 -1.1351 -0.1613
  166SOPE   C3818721   1.710   6.317   9.024  0.1668 -0.0422  0.3423
  166SOPE   H8X18722   1.621   6.251   9.025 -0.6277  0.8439 -2.6072
  166SOPE   H8Y18723   1.810   6.268   9.016  0.5333  0.8093 -0.4713
  166SOPE   C3918724   1.699   6.430   8.916 -0.7636 -0.7160  0.1860
  166SOPE   H9X18725   1.744   6.394   8.821 -0.0444 -0.3494  0.3814
  166SOPE   H9Y18726   1.765   6.513   8.948  2.6978 -2.5070 -1.7522
  166SOPE  C31018727   1.565   6.494   8.910 -0.1337  0.2213  0.2621
  166SOPE  H10X18728   1.530   6.542   9.004 -0.1138 -1.8986  1.4166
  166SOPE  H10Y18729   1.486   6.421   8.881 -0.6238  1.1204 -0.7139
  166SOPE  C31118730   1.586   6.617   8.814 -0.4893 -0.2897 -0.4540
  166SOPE  H11X18731   1.688   6.661   8.812 -1.3853  1.9157 -0.5085
  166SOPE  H11Y18732   1.531   6.702   8.862 -1.3736 -0.3991 -1.2353
  166SOPE  C31218733   1.532   6.609   8.675  1.1672 -0.2100 -0.4660
  166SOPE  H12X18734   1.421   6.605   8.682  0.9630  0.4935 -2.6580
  166SOPE  H12Y18735   1.567   6.511   8.637  0.0054 -0.5403 -0.7028
  166SOPE  C31318736   1.565   6.734   8.590 -0.5606  0.5386  0.2483
  166SOPE  H13X18737   1.530   6.831   8.631  0.8565  0.8177  0.8572
  166SOPE  H13Y18738   1.510   6.704   8.498 -1.1526 -0.0495  0.7865
  166SOPE  C31418739   1.719   6.736   8.554 -0.2427 -0.0346  0.0613
  166SOPE  H14X18740   1.754   6.630   8.555 -3.2876 -1.1443  0.0682
  166SOPE  H14Y18741   1.767   6.783   8.642  1.8379  0.3440 -1.2322
  166SOPE  C31518742   1.737   6.806   8.424  0.9689  0.6736 -0.1051
  166SOPE  H15X18743   1.706   6.912   8.436 -0.0867  0.5136 -1.1963
  166SOPE  H15Y18744   1.665   6.768   8.349  0.2364  0.0988  0.8738
  166SOPE  C31618745   1.881   6.801   8.369  0.0776 -0.1723 -0.2452
  166SOPE  H16X18746   1.908   6.696   8.345 -2.3464 -0.7910 -0.5475
  166SOPE  H16Y18747   1.950   6.827   8.453 -0.2661 -1.3501  0.4291
  166SOPE  C31718748   1.894   6.883   8.239  0.4370  0.0493 -0.1706
  166SOPE  H17X18749   1.847   6.982   8.259  0.3767 -0.1316  0.6047
  166SOPE  H17Y18750   1.829   6.830   8.166 -0.2630  0.6308  0.0222
  166SOPE  C31818751   2.038   6.898   8.190  1.1933  0.2533 -0.5909
  166SOPE  H18X18752   2.107   6.919   8.274 -1.0327  0.5122  1.2549
  166SOPE  H18Y18753   2.057   6.973   8.109  1.0187  0.3157 -0.5766
  166SOPE  H18Z18754   2.074   6.800   8.155  1.3942 -0.3397  1.2024
  167SOPE     N18755   5.929   5.620   6.425 -0.8378  0.1768  0.0104
  167SOPE   HN118756   5.876   5.531   6.439  0.9298 -1.2830 -1.8447
  167SOPE   HN218757   6.030   5.605   6.446 -0.4678  2.7232  0.2933
  167SOPE   HN318758   5.890   5.690   6.491  0.5166 -0.6440  1.8002
  167SOPE   C1218759   5.916   5.645   6.275  0.1098 -0.6419 -0.6074
  167SOPE  H12A18760   5.972   5.738   6.253 -0.8025 -0.1337 -0.7923
  167SOPE  H12B18761   5.810   5.668   6.255 -0.4516 -2.7618 -0.3038
  167SOPE   C1118762   5.988   5.540   6.190  0.4645  0.2714  0.1614
  167SOPE  H11A18763   6.086   5.520   6.239  0.4416  1.3060  0.6570
  167SOPE  H11B18764   5.993   5.576   6.085 -5.0985  0.4154 -0.3392
  167SOPE     P18765   5.985   5.286   6.128 -0.1922  0.1068 -0.4456
  167SOPE   O1318766   6.105   5.326   6.048  0.1651  0.1797 -0.5971
  167SOPE   O1418767   5.885   5.212   6.057  0.2990  0.3868  0.5824
  167SOPE   O1218768   5.916   5.414   6.187 -0.3022 -0.3064 -0.6031
  167SOPE   O1118769   6.019   5.202   6.255 -0.3623 -0.2845 -0.2598
  167SOPE    C118770   5.992   5.255   6.384  0.0748  0.4687  0.3670
  167SOPE    HA18771   5.895   5.307   6.395 -0.5155 -0.2479 -1.2198
  167SOPE    HB18772   6.075   5.323   6.414  0.9139 -0.4095  0.0771
  167SOPE    C218773   6.011   5.148   6.492  0.4938 -0.1943 -0.8225
  167SOPE    HS18774   6.002   5.202   6.588  3.2309  1.0136 -1.1312
  167SOPE   O2118775   6.132   5.077   6.492  0.2793  0.0771 -0.1141
  167SOPE   C2118776   6.251   5.131   6.509 -0.9433 -0.0006 -0.4231
  167SOPE   O2218777   6.271   5.250   6.528 -0.0180 -0.1957  0.0432
  167SOPE   C2218778   6.353   5.019   6.523 -0.1612 -0.3212 -0.2627
  167SOPE   H2R18779   6.412   5.021   6.429 -0.6253 -0.1251 -0.5528
  167SOPE   H2S18780   6.308   4.917   6.522  0.3264 -0.5872  1.4303
  167SOPE    C318781   5.887   5.049   6.475 -0.2899  0.3327 -0.0314
  167SOPE    HX18782   5.918   4.983   6.392 -2.3505 -0.4387 -0.2548
  167SOPE    HY18783   5.801   5.110   6.441 -1.9692 -1.3952  0.8756
  167SOPE   O3118784   5.852   4.969   6.596 -0.0720 -0.2080  0.0586
  167SOPE   C3118785   5.768   4.867   6.572 -0.4717  0.2453 -0.1376
  167SOPE   O3218786   5.735   4.828   6.463  0.8184 -0.4732 -0.6767
  167SOPE   C3218787   5.729   4.806   6.709 -0.4142 -0.2271 -0.4746
  167SOPE   H2X18788   5.715   4.880   6.791  0.0276 -1.2526  0.5637
  167SOPE   H2Y18789   5.815   4.740   6.730 -1.4264 -0.9434  1.7852
  167SOPE   C2318790   6.458   5.045   6.636  0.1585  0.4806  0.0398
  167SOPE   H3R18791   6.507   5.145   6.631 -1.8134  1.5168  0.3830
  167SOPE   H3S18792   6.537   4.968   6.621 -1.0751 -0.4277 -2.1894
  167SOPE   C2418793   6.399   5.040   6.782  0.2548 -0.5806 -0.4862
  167SOPE   H4R18794   6.321   5.118   6.797  0.8702 -0.2931  1.5176
  167SOPE   H4S18795   6.351   4.942   6.799 -1.5374  0.7315  3.0998
  167SOPE   C2518796   6.510   5.042   6.888  0.1527  0.0108 -0.3914
  167SOPE   H5R18797   6.594   4.974   6.861  1.5754  1.3563  0.4373
  167SOPE   H5S18798   6.552   5.145   6.878 -1.5996  0.6684 -1.3163
  167SOPE   C2618799   6.459   5.007   7.024 -0.7721  0.3938 -0.1226
  167SOPE   H6R18800   6.404   5.095   7.065  2.4084  1.2191  2.9149
  167SOPE   H6S18801   6.394   4.916   7.022 -1.2899  0.7656 -0.4220
  167SOPE   C2718802   6.579   4.982   7.113 -0.3988  0.1817 -0.1435
  167SOPE   H7R18803   6.633   4.902   7.057  0.1599  0.2917  0.2298
  167SOPE   H7S18804   6.658   5.060   7.113  0.2782 -0.4860  0.7027
  167SOPE   C2818805   6.550   4.937   7.250  0.3313 -0.3134  0.4059
  167SOPE   H8R18806   6.493   5.010   7.313 -0.5620 -0.0569 -0.6752
  167SOPE   H8S18807   6.495   4.842   7.237 -0.5651  0.0155  1.5622
  167SOPE   C2918808   6.679   4.897   7.314 -0.3090  0.4686  0.0837
  167SOPE   H9118809   6.754   4.859   7.243 -0.1479  2.3916 -0.8308
  167SOPE  C21018810   6.726   4.932   7.432  0.4828 -0.1016  0.6149
  167SOPE  H10118811   6.830   4.902   7.453  0.4730 -0.8421 -0.3132
  167SOPE  C21118812   6.657   5.002   7.539 -0.0259 -0.8581  0.1739
  167SOPE  H11R18813   6.612   4.936   7.615  1.2648 -1.4174  0.4720
  167SOPE  H11S18814   6.567   5.050   7.494  0.9145  0.6011 -0.2397
  167SOPE  C21218815   6.737   5.112   7.611 -0.2031  0.5617  0.6223
  167SOPE  H12R18816   6.676   5.184   7.671 -0.5750  0.7752 -0.0014
  167SOPE  H12S18817   6.788   5.174   7.535  0.7636  1.2446  1.7852
  167SOPE  C21318818   6.855   5.057   7.697 -0.3757 -0.3304 -0.5014
  167SOPE  H13R18819   6.908   5.149   7.732 -1.5120  0.1383  0.0355
  167SOPE  H13S18820   6.939   5.016   7.637  0.5062  1.1556 -0.3508
  167SOPE  C21418821   6.810   4.958   7.803  0.0950  0.2301 -0.3475
  167SOPE  H14R18822   6.776   4.867   7.750 -2.2101 -0.8295  2.6201
  167SOPE  H14S18823   6.731   5.002   7.867  0.5823 -0.4232  0.7510
  167SOPE  C21518824   6.934   4.908   7.890  0.2782  0.0746 -0.0474
  167SOPE  H15R18825   6.984   4.995   7.938 -0.1699 -0.3800  1.3118
  167SOPE  H15S18826   7.004   4.865   7.815 -0.4735 -2.4127  0.5727
  167SOPE  C21618827   6.905   4.803   7.999  0.2668 -0.2851  0.1550
  167SOPE  H16R18828   6.836   4.856   8.068 -0.3883 -1.8115  0.7184
  167SOPE  H16S18829   7.000   4.781   8.053  0.5053 -0.1944 -0.2251
  167SOPE  C21718830   6.841   4.668   7.955 -0.3926 -0.1116  0.7773
  167SOPE  H17R18831   6.770   4.685   7.872 -0.4135 -1.7029  0.4468
  167SOPE  H17S18832   6.776   4.631   8.038 -0.7360 -4.2495 -1.1174
  167SOPE  C21818833   6.966   4.575   7.925 -0.6157 -0.6332  0.3123
  167SOPE  H18R18834   7.048   4.610   7.859 -0.9883  1.1984  0.7632
  167SOPE  H18S18835   6.923   4.484   7.879  1.1184 -2.2203  1.6404
  167SOPE  H18T18836   7.013   4.538   8.018  2.7412 -3.0815 -2.1230
  167SOPE   C3318837   5.613   4.707   6.705 -0.4881 -0.1190  0.0732
  167SOPE   H3X18838   5.532   4.763   6.654  1.1238  1.2063 -1.1363
  167SOPE   H3Y18839   5.582   4.686   6.809 -0.8828 -1.8188 -0.3571
  167SOPE   C3418840   5.624   4.581   6.624  0.4058  0.0341 -0.0364
  167SOPE   H4X18841   5.645   4.615   6.520  1.4929  1.1070  0.5082
  167SOPE   H4Y18842   5.525   4.530   6.613  0.0758  0.8209 -0.9358
  167SOPE   C3518843   5.734   4.480   6.673 -0.4791  0.2455 -0.7010
  167SOPE   H5X18844   5.843   4.497   6.660 -0.3185  1.0637  1.4028
  167SOPE   H5Y18845   5.721   4.387   6.613  3.3397 -0.8245 -0.0997
  167SOPE   C3618846   5.720   4.442   6.822  0.9882 -0.0189 -0.1729
  167SOPE   H6X18847   5.621   4.396   6.844  1.0962 -0.4018 -0.4643
  167SOPE   H6Y18848   5.736   4.537   6.877 -0.8931  0.6699 -0.7165
  167SOPE   C3718849   5.819   4.339   6.878  0.0520 -0.4402  0.0743
  167SOPE   H7X18850   5.916   4.391   6.862 -0.2189  0.0709  0.1027
  167SOPE   H7Y18851   5.811   4.241   6.825 -3.5887 -0.4891  0.4792
  167SOPE   C3818852   5.800   4.289   7.021 -0.5253 -0.4083  0.9374
  167SOPE   H8X18853   5.870   4.203   7.030 -0.1719 -0.2173  0.0790
  167SOPE   H8Y18854   5.699   4.246   7.039 -0.4188 -1.0429  0.0829
  167SOPE   C3918855   5.842   4.392   7.128 -0.0546 -0.8385 -0.2888
  167SOPE   H9X18856   5.928   4.449   7.087 -0.0819 -0.2588  0.4459
  167SOPE   H9Y18857   5.862   4.334   7.221 -0.5661 -0.3150  0.1562
  167SOPE  C31018858   5.738   4.498   7.164  0.1729  0.1884 -0.0854
  167SOPE  H10X18859   5.646   4.442   7.192  1.0100 -0.9229  0.5491
  167SOPE  H10Y18860   5.720   4.560   7.073  0.3278 -1.9536 -1.6705
  167SOPE  C31118861   5.791   4.588   7.278  0.2600 -0.5468 -0.2260
  167SOPE  H11X18862   5.888   4.637   7.252 -0.7557  1.4047 -0.5613
  167SOPE  H11Y18863   5.818   4.522   7.362 -0.0757  1.0516  1.1892
  167SOPE  C31218864   5.697   4.701   7.321 -0.7918 -0.6629 -0.1562
  167SOPE  H12X18865   5.592   4.664   7.318 -0.6860 -0.9401 -0.5149
  167SOPE  H12Y18866   5.700   4.778   7.242  0.1494  0.2815  0.7719
  167SOPE  C31318867   5.740   4.748   7.466  0.1786 -0.0122  0.5566
  167SOPE  H13X18868   5.844   4.785   7.468  0.1181  0.3645 -1.4069
  167SOPE  H13Y18869   5.730   4.653   7.523 -2.4436 -0.2520 -0.1638
  167SOPE  C31418870   5.645   4.856   7.517  0.0637 -0.6564  0.5441
  167SOPE  H14X18871   5.549   4.820   7.561 -0.3214  1.9045  2.0293
  167SOPE  H14Y18872   5.620   4.922   7.432 -0.6796 -0.6597  0.7488
  167SOPE  C31518873   5.707   4.928   7.638 -0.0062  0.4202 -0.7907
  167SOPE  H15X18874   5.631   4.990   7.690  0.8716  0.1515  0.8983
  167SOPE  H15Y18875   5.791   4.988   7.598 -0.5088  1.3558 -0.4616
  167SOPE  C31618876   5.756   4.833   7.749 -0.4411  0.8118 -0.0691
  167SOPE  H16X18877   5.849   4.793   7.704  0.6359  2.9526  0.0922
  167SOPE  H16Y18878   5.690   4.745   7.763 -1.3932  0.7287 -3.8905
  167SOPE  C31718879   5.795   4.890   7.879  0.3874  0.0655 -0.3642
  167SOPE  H17X18880   5.848   4.813   7.939  0.6747 -0.5194 -1.3470
  167SOPE  H17Y18881   5.695   4.893   7.928 -0.1332 -1.7849 -1.2395
  167SOPE  C31818882   5.877   5.017   7.894  0.1817  0.0591  0.1628
  167SOPE  H18X18883   5.808   5.098   7.862  2.0675  1.5839 -0.2268
  167SOPE  H18Y18884   5.972   5.012   7.836 -0.5864 -0.5571 -1.0782
  167SOPE  H18Z18885   5.896   5.038   8.002  0.0262  2.2120 -0.1881
  168SOPE     N18886   4.749   2.862   6.152 -0.0488  0.4609  0.1406
  168SOPE   HN118887   4.851   2.862   6.133  0.3567  2.0040  1.9291
  168SOPE   HN218888   4.723   2.791   6.224 -1.3740  0.8313  0.0541
  168SOPE   HN318889   4.687   2.851   6.070 -0.4979 -1.9347  0.7340
  168SOPE   C1218890   4.726   3.000   6.206 -0.3941 -0.1597 -1.5055
  168SOPE  H12A18891   4.802   3.012   6.286 -0.1662 -0.1262 -1.7238
  168SOPE  H12B18892   4.623   3.008   6.245  0.7833 -0.4631  2.0251
  168SOPE   C1118893   4.764   3.105   6.099 -1.0198 -0.2804  0.0088
  168SOPE  H11A18894   4.742   3.200   6.153  1.4232  0.0384  0.5548
  168SOPE  H11B18895   4.714   3.107   5.999  2.6695 -1.8059 -2.0575
  168SOPE     P18896   4.975   3.199   5.970 -0.0538  0.1771  0.1164
  168SOPE   O1318897   4.926   3.181   5.827  0.4819  0.1622 -0.1807
  168SOPE   O1418898   5.119   3.198   5.976  0.4041 -0.1342 -0.4231
  168SOPE   O1218899   4.905   3.093   6.065 -0.0087 -0.5828 -0.0430
  168SOPE   O1118900   4.926   3.340   6.034  0.8050  0.1432 -0.5790
  168SOPE    C118901   4.940   3.361   6.175 -1.3337 -0.2384 -0.2679
  168SOPE    HA18902   4.946   3.274   6.244  3.2191 -0.8041 -1.0248
  168SOPE    HB18903   4.845   3.416   6.193 -1.2785 -0.3250  0.3077
  168SOPE    C218904   5.053   3.459   6.203  0.5203 -0.4627 -0.3811
  168SOPE    HS18905   5.150   3.406   6.209  1.0774  0.4857 -0.8088
  168SOPE   O2118906   5.017   3.532   6.325 -0.0140  0.6954  0.1752
  168SOPE   C2118907   5.059   3.467   6.439 -0.3006  0.2661 -1.1090
  168SOPE   O2218908   5.133   3.372   6.439 -0.1559 -0.3073 -0.2554
  168SOPE   C2218909   4.997   3.533   6.556 -0.7300  0.9876  0.1476
  168SOPE   H2R18910   4.889   3.507   6.544 -0.6394  1.1991 -1.3708
  168SOPE   H2S18911   5.014   3.642   6.555  1.6642  0.6834  1.4934
  168SOPE    C318912   5.074   3.568   6.092 -0.0136 -0.3493  0.4206
  168SOPE    HX18913   4.988   3.638   6.091 -1.2719 -1.8301  0.8684
  168SOPE    HY18914   5.076   3.525   5.989  1.0077 -1.3642  0.8397
  168SOPE   O3118915   5.206   3.627   6.118  0.1402  0.0331 -0.5093
  168SOPE   C3118916   5.204   3.747   6.189 -0.4201  1.0571 -0.2930
  168SOPE   O3218917   5.099   3.800   6.224  0.3633 -0.3910  0.1644
  168SOPE   C3218918   5.348   3.780   6.225  0.1624  0.2188  0.1159
  168SOPE   H2X18919   5.378   3.868   6.165 -1.1037 -0.5697 -1.8033
  168SOPE   H2Y18920   5.414   3.695   6.195 -0.5924 -1.1063  2.0050
  168SOPE   C2318921   5.068   3.475   6.687  0.4602  0.3621  0.2222
  168SOPE   H3R18922   5.172   3.512   6.681  0.7833 -0.1782  1.8894
  168SOPE   H3S18923   5.056   3.365   6.679 -0.1666  0.4048  0.4425
  168SOPE   C2418924   5.004   3.527   6.818 -0.2426 -0.1739  0.6010
  168SOPE   H4R18925   5.003   3.638   6.813 -0.4439 -0.1564  0.9818
  168SOPE   H4S18926   4.900   3.493   6.836 -0.0457 -0.6037  0.9507
  168SOPE   C2518927   5.080   3.470   6.937 -0.2092 -0.0408 -0.2327
  168SOPE   H5R18928   5.063   3.361   6.947 -1.7237  0.1113 -0.8559
  168SOPE   H5S18929   5.185   3.492   6.906 -0.6713  0.6835 -1.3709
  168SOPE   C2618930   5.068   3.552   7.069  0.1060  0.4401  0.1614
  168SOPE   H6R18931   5.076   3.659   7.044  0.0225  1.0503  2.5125
  168SOPE   H6S18932   4.965   3.532   7.105 -0.0615 -0.7512 -0.8910
  168SOPE   C2718933   5.163   3.518   7.187  0.1004 -0.2364  0.2494
  168SOPE   H7R18934   5.148   3.410   7.212 -0.9404 -0.3021 -0.5744
  168SOPE   H7S18935   5.270   3.527   7.160  0.5715 -0.2940  2.0153
  168SOPE   C2818936   5.125   3.601   7.308 -0.2598 -0.4672 -0.7396
  168SOPE   H8R18937   5.216   3.602   7.371 -0.0291  2.0821 -1.0049
  168SOPE   H8S18938   5.096   3.703   7.276 -0.1669 -0.6836 -1.5304
  168SOPE   C2918939   5.006   3.543   7.381 -0.0271 -0.0669  0.8684
  168SOPE   H9118940   4.918   3.521   7.318  0.8870 -0.1979 -0.4070
  168SOPE  C21018941   5.006   3.502   7.505  0.0239  0.4982  1.2244
  168SOPE  H10118942   4.912   3.464   7.547 -0.9316 -0.3160 -1.4458
  168SOPE  C21118943   5.114   3.519   7.610 -0.2717 -0.3144  0.0022
  168SOPE  H11R18944   5.120   3.628   7.632 -1.2523  0.1123 -1.6795
  168SOPE  H11S18945   5.216   3.487   7.581 -0.4355 -0.9910  0.1635
  168SOPE  C21218946   5.064   3.454   7.747 -0.3237 -0.0509  0.3453
  168SOPE  H12R18947   5.082   3.345   7.734 -0.2236 -0.0130  0.1693
  168SOPE  H12S18948   4.962   3.491   7.771 -0.4534  0.2615 -0.6505
  168SOPE  C21318949   5.161   3.493   7.851 -0.0657  0.3229 -1.1634
  168SOPE  H13R18950   5.159   3.604   7.858  3.4405  0.3993  3.1801
  168SOPE  H13S18951   5.268   3.471   7.830  0.2399  0.1999  0.3886
  168SOPE  C21418952   5.129   3.428   7.987 -0.2212 -0.0458  0.0299
  168SOPE  H14R18953   5.145   3.318   7.980 -0.7247 -0.0332 -1.5830
  168SOPE  H14S18954   5.020   3.448   7.985 -0.4609 -1.0739  1.3152
  168SOPE  C21518955   5.195   3.499   8.098  0.5060 -0.0658  0.0837
  168SOPE  H15R18956   5.163   3.603   8.121  2.3945  1.4696 -3.4370
  168SOPE  H15S18957   5.300   3.530   8.078  1.2439 -2.8023 -0.6406
  168SOPE  C21618958   5.187   3.414   8.224 -0.5825  0.4853 -1.0685
  168SOPE  H16R18959   5.095   3.351   8.228  0.2112 -0.6138  0.6400
  168SOPE  H16S18960   5.180   3.473   8.318 -0.0549 -0.4505 -0.4306
  168SOPE  C21718961   5.315   3.330   8.239  0.6056 -0.0788 -0.6980
  168SOPE  H17R18962   5.401   3.400   8.248 -1.5520  2.6872 -0.2206
  168SOPE  H17S18963   5.342   3.266   8.152  0.2498 -0.7571 -0.3148
  168SOPE  C21818964   5.307   3.239   8.356  0.2660 -0.0620 -0.0706
  168SOPE  H18R18965   5.385   3.159   8.359 -0.9133 -1.2145  1.6726
  168SOPE  H18S18966   5.221   3.168   8.359  0.4176 -0.4176 -2.4154
  168SOPE  H18T18967   5.305   3.301   8.448 -1.5667  0.4447 -0.4318
  168SOPE   C3318968   5.366   3.799   6.378 -0.0397  0.6909  0.2765
  168SOPE   H3X18969   5.269   3.840   6.414  0.3155  1.0172  0.8753
  168SOPE   H3Y18970   5.445   3.870   6.411  0.4474 -0.0627  0.7735
  168SOPE   C3418971   5.397   3.670   6.447  0.6119  1.4066  0.3789
  168SOPE   H4X18972   5.484   3.615   6.405  0.8725  0.7573  1.7184
  168SOPE   H4Y18973   5.312   3.599   6.444  0.7777  1.1236  1.6342
  168SOPE   C3518974   5.415   3.688   6.598  0.4810 -0.3137 -0.0778
  168SOPE   H5X18975   5.513   3.734   6.624  0.3493  0.4333 -0.8458
  168SOPE   H5Y18976   5.414   3.582   6.631  0.4854 -1.1134 -2.4784
  168SOPE   C3618977   5.301   3.775   6.656 -0.4974  0.4360 -1.0668
  168SOPE   H6X18978   5.204   3.733   6.622 -1.0433  0.5117  0.3400
  168SOPE   H6Y18979   5.306   3.875   6.608 -1.8780  0.7774 -0.5277
  168SOPE   C3718980   5.299   3.793   6.813 -0.6363  0.6333  0.9260
  168SOPE   H7X18981   5.391   3.842   6.850  1.0276 -1.9904  0.5368
  168SOPE   H7Y18982   5.300   3.694   6.863  1.7075  0.5271  0.7798
  168SOPE   C3818983   5.176   3.872   6.856  0.1426  0.1099  0.0833
  168SOPE   H8X18984   5.084   3.812   6.841  1.3501 -1.9231  0.3639
  168SOPE   H8Y18985   5.170   3.974   6.812  0.0222  0.6799  1.3719
  168SOPE   C3918986   5.189   3.906   7.004  0.4561  0.1033  0.3701
  168SOPE   H9X18987   5.229   3.820   7.062  1.1982 -0.0942 -0.4279
  168SOPE   H9Y18988   5.095   3.947   7.047  1.3513  2.3990  0.3032
  168SOPE  C31018989   5.296   4.009   7.028 -0.2703  0.0267 -0.6989
  168SOPE  H10X18990   5.296   4.093   6.955  1.7337  0.4998 -0.2155
  168SOPE  H10Y18991   5.394   3.958   7.016 -0.7649 -0.6768 -1.9829
  168SOPE  C31118992   5.291   4.068   7.170  0.1589  0.7564 -0.1264
  168SOPE  H11X18993   5.292   3.983   7.242 -0.5200  0.1279 -0.8381
  168SOPE  H11Y18994   5.196   4.122   7.186  1.1324  1.8553  2.4857
  168SOPE  C31218995   5.398   4.161   7.215  0.2079  0.9511  0.5696
  168SOPE  H12X18996   5.378   4.252   7.154 -2.9901  0.3487  0.5522
  168SOPE  H12Y18997   5.498   4.119   7.192  0.6209  0.6308  2.7279
  168SOPE  C31318998   5.391   4.194   7.368  0.5171 -1.0524  0.7019
  168SOPE  H13X18999   5.404   4.102   7.430 -0.7571 -0.8670  1.2775
  168SOPE  H13Y19000   5.282   4.215   7.374  0.3547 -1.5674 -0.2820
  168SOPE  C31419001   5.471   4.317   7.413  0.7037 -0.1688 -0.1203
  168SOPE  H14X19002   5.435   4.408   7.361  1.3891 -0.3148 -0.8640
  168SOPE  H14Y19003   5.579   4.305   7.391  0.8446  1.0020 -0.1106
  168SOPE  C31519004   5.449   4.347   7.564  0.4859  0.6723  1.0329
  168SOPE  H15X19005   5.470   4.257   7.625 -0.9255 -0.6711 -0.3712
  168SOPE  H15Y19006   5.341   4.352   7.590  0.2141  0.1989  0.0621
  168SOPE  C31619007   5.547   4.456   7.614  0.5279 -0.5216  0.2848
  168SOPE  H16X19008   5.533   4.540   7.544 -0.5552  0.3720  1.5273
  168SOPE  H16Y19009   5.652   4.421   7.603  0.8656 -0.3073  2.3920
  168SOPE  C31719010   5.537   4.487   7.771 -0.3957 -0.0864  0.0497
  168SOPE  H17X19011   5.614   4.566   7.787 -0.2302 -0.3903  0.8023
  168SOPE  H17Y19012   5.574   4.394   7.820  0.5406 -0.5174 -1.3900
  168SOPE  C31819013   5.401   4.537   7.819  0.0608 -0.0565 -0.4371
  168SOPE  H18X19014   5.326   4.455   7.823  2.7174 -2.6792 -1.3123
  168SOPE  H18Y19015   5.365   4.618   7.753 -4.1008 -1.8074 -0.6500
  168SOPE  H18Z19016   5.421   4.578   7.921  0.3676  1.9419 -1.2647
  169SOPE     N19017   1.569   3.912   5.549  0.6716 -0.1184  0.0847
  169SOPE   HN119018   1.516   3.945   5.466  0.1786  1.6251  1.0340
  169SOPE   HN219019   1.628   3.837   5.509  1.8190  1.5480 -1.5335
  169SOPE   HN319020   1.505   3.894   5.629 -2.2125  3.2217 -1.1712
  169SOPE   C1219021   1.675   4.014   5.590  0.2713 -0.4084  0.4991
  169SOPE  H12A19022   1.621   4.106   5.622  1.3504  0.1862  0.6660
  169SOPE  H12B19023   1.750   4.034   5.510 -0.1411 -0.2010  0.1646
  169SOPE   C1119024   1.734   3.947   5.713 -0.3940  0.6026  0.2524
  169SOPE  H11A19025   1.659   3.906   5.785  0.3334 -1.2971 -0.0074
  169SOPE  H11B19026   1.786   4.032   5.762 -0.3152  0.3679  0.5810
  169SOPE     P19027   1.968   3.837   5.650 -0.2315 -0.2367  0.0233
  169SOPE   O1319028   1.978   3.940   5.550 -0.1316  0.2636  0.5405
  169SOPE   O1419029   2.019   3.701   5.620  0.6815  0.8303 -0.1013
  169SOPE   O1219030   1.812   3.825   5.686 -0.2536 -0.7980  0.2317
  169SOPE   O1119031   2.025   3.888   5.791 -0.2795 -0.2540 -0.5220
  169SOPE    C119032   2.115   3.807   5.871 -0.1357 -0.9527  0.1879
  169SOPE    HA19033   2.169   3.875   5.940 -0.6243 -1.2636  0.8906
  169SOPE    HB19034   2.190   3.759   5.805  0.5168  1.9925 -1.3865
  169SOPE    C219035   2.048   3.680   5.933  0.1265  0.5241  0.7437
  169SOPE    HS19036   2.023   3.612   5.849  1.7366 -0.2673  0.8681
  169SOPE   O2119037   1.935   3.716   6.010  0.0287  0.1633 -0.0392
  169SOPE   C2119038   1.834   3.629   6.023  0.5595 -0.1540  0.3310
  169SOPE   O2219039   1.831   3.515   5.978  0.2212  0.4720 -0.8000
  169SOPE   C2219040   1.756   3.687   6.139  0.0571 -0.6394 -0.6907
  169SOPE   H2R19041   1.652   3.649   6.144 -0.4150  0.7277  1.3995
  169SOPE   H2S19042   1.754   3.796   6.119  0.6999 -0.7133 -1.1754
  169SOPE    C319043   2.155   3.596   6.010  0.0620  0.0520 -0.2868
  169SOPE    HX19044   2.250   3.570   5.960  0.6792 -1.1483  1.4357
  169SOPE    HY19045   2.099   3.502   6.030  1.0903 -0.1436  1.9584
  169SOPE   O3119046   2.179   3.648   6.137  0.0930 -0.6220 -0.0633
  169SOPE   C3119047   2.272   3.580   6.214  1.0965 -0.1479 -0.0141
  169SOPE   O3219048   2.311   3.467   6.172 -0.3204 -0.2594 -0.0595
  169SOPE   C3219049   2.311   3.657   6.339 -0.4690  0.6334  0.0059
  169SOPE   H2X19050   2.214   3.678   6.388  0.1042  1.2762  0.8880
  169SOPE   H2Y19051   2.353   3.754   6.305  1.1904  0.0254  0.1854
  169SOPE   C2319052   1.818   3.661   6.277  0.7280 -0.0771  0.4896
  169SOPE   H3R19053   1.747   3.715   6.343 -0.1584 -0.4358 -0.1497
  169SOPE   H3S19054   1.920   3.705   6.278  1.3820 -1.5401  1.6478
  169SOPE   C2419055   1.827   3.513   6.303  0.1695 -0.5555  0.3798
  169SOPE   H4R19056   1.729   3.467   6.329 -2.0484  1.7593 -3.0207
  169SOPE   H4S19057   1.859   3.456   6.214 -1.9096 -1.2529  0.0335
  169SOPE   C2519058   1.940   3.483   6.407 -0.1862 -0.0333 -0.2909
  169SOPE   H5R19059   1.937   3.372   6.420  0.5515 -0.1722 -1.1418
  169SOPE   H5S19060   2.036   3.505   6.354 -0.1128 -1.0691 -0.6222
  169SOPE   C2619061   1.942   3.557   6.538 -0.4706  0.0609 -0.0601
  169SOPE   H6R19062   1.955   3.667   6.535  0.1997  0.0758  2.0841
  169SOPE   H6S19063   1.851   3.530   6.596  0.8331 -3.3377  0.6072
  169SOPE   C2719064   2.061   3.500   6.631 -0.7309  0.3944 -0.6271
  169SOPE   H7R19065   2.029   3.399   6.665 -0.3306  1.1228  2.1092
  169SOPE   H7S19066   2.148   3.483   6.565  0.1698 -0.5295  0.7518
  169SOPE   C2819067   2.102   3.591   6.751  0.0459 -0.3963  0.1890
  169SOPE   H8R19068   2.191   3.561   6.810 -0.1097  0.7987  1.0778
  169SOPE   H8S19069   2.141   3.689   6.715  1.5994 -0.2809  2.0121
  169SOPE   C2919070   1.979   3.622   6.835 -0.2710  0.2487 -0.0154
  169SOPE   H9119071   1.888   3.647   6.779  0.6148  2.0227 -0.7546
  169SOPE  C21019072   1.977   3.622   6.970 -0.4142  0.0145 -0.2895
  169SOPE  H10119073   1.889   3.650   7.030  1.7320  2.0296  2.1272
  169SOPE  C21119074   2.103   3.585   7.051 -0.0817  0.9866 -0.2931
  169SOPE  H11R19075   2.194   3.633   7.010  0.6002  0.0110  0.0357
  169SOPE  H11S19076   2.104   3.474   7.052 -2.0726  0.9479  1.3031
  169SOPE  C21219077   2.097   3.622   7.200  0.0577  0.4103  0.1241
  169SOPE  H12R19078   2.054   3.722   7.223  0.2337  0.2743  1.1133
  169SOPE  H12S19079   2.192   3.613   7.258 -0.9479 -0.5340  1.7183
  169SOPE  C21319080   2.016   3.519   7.287  0.0993 -0.4719 -0.2874
  169SOPE  H13R19081   2.055   3.416   7.278 -0.9434 -0.7252 -2.4245
  169SOPE  H13S19082   1.914   3.517   7.242 -0.6437  0.7193  1.2041
  169SOPE  C21419083   2.013   3.557   7.438 -0.0368  0.2623  1.1748
  169SOPE  H14R19084   1.966   3.654   7.463 -0.5407  0.8632 -1.7023
  169SOPE  H14S19085   2.121   3.564   7.465  0.3753  0.0729 -0.3355
  169SOPE  C21519086   1.948   3.451   7.519 -0.0720 -0.1864  0.2161
  169SOPE  H15R19087   1.991   3.351   7.496 -1.7887 -0.7898 -0.5351
  169SOPE  H15S19088   1.837   3.453   7.508 -0.0984  1.9441  0.4026
  169SOPE  C21619089   1.963   3.494   7.666  0.0256 -0.2827 -0.4609
  169SOPE  H16R19090   1.901   3.583   7.694  0.3127  0.3066 -1.6643
  169SOPE  H16S19091   2.068   3.512   7.697  0.7223  0.6629 -3.1393
  169SOPE  C21719092   1.905   3.378   7.754  0.4211 -0.1439 -0.5432
  169SOPE  H17R19093   1.950   3.280   7.727  2.2062 -0.0117  1.6553
  169SOPE  H17S19094   1.794   3.370   7.742  0.4779 -2.2108 -0.0452
  169SOPE  C21819095   1.927   3.403   7.898  0.2709  0.4365 -0.3504
  169SOPE  H18R19096   1.863   3.487   7.932 -1.7078 -0.8051 -0.8364
  169SOPE  H18S19097   2.031   3.425   7.930  0.1074  0.5342  0.1313
  169SOPE  H18T19098   1.889   3.323   7.966  1.4376  1.1987  1.2362
  169SOPE   C3319099   2.408   3.585   6.434 -0.1250  0.0629  0.2786
  169SOPE   H3X19100   2.508   3.564   6.390  1.4218  4.0749  1.3698
  169SOPE   H3Y19101   2.369   3.487   6.469 -0.3561  0.5166  1.3183
  169SOPE   C3419102   2.422   3.678   6.554 -0.3948 -0.2751 -0.0835
  169SOPE   H4X19103   2.325   3.723   6.581  0.6925  2.6631 -0.6980
  169SOPE   H4Y19104   2.491   3.762   6.533 -1.7113  0.4774 -1.5349
  169SOPE   C3519105   2.484   3.613   6.674  0.1396 -0.1557  0.9044
  169SOPE   H5X19106   2.595   3.607   6.665  0.0700  0.2342 -0.4329
  169SOPE   H5Y19107   2.449   3.508   6.683 -1.1108  0.2063  0.4078
  169SOPE   C3619108   2.450   3.690   6.810 -0.0993  0.5260 -0.2705
  169SOPE   H6X19109   2.345   3.682   6.845  0.4866 -1.5729  1.1409
  169SOPE   H6Y19110   2.469   3.799   6.799  0.8132  0.2913 -1.1986
  169SOPE   C3719111   2.532   3.638   6.925 -0.3745 -0.9348  0.2688
  169SOPE   H7X19112   2.638   3.627   6.893 -0.4548 -0.4444 -0.1824
  169SOPE   H7Y19113   2.506   3.532   6.944 -1.1219 -0.6097  1.1185
  169SOPE   C3819114   2.512   3.724   7.056  0.1942  0.4633  0.0103
  169SOPE   H8X19115   2.544   3.825   7.021 -0.8161 -0.0202 -2.4847
  169SOPE   H8Y19116   2.405   3.736   7.084 -0.4282 -2.4661 -0.8756
  169SOPE   C3919117   2.574   3.664   7.181 -0.2433  0.1104 -0.1135
  169SOPE   H9X19118   2.683   3.648   7.164 -0.6145 -0.8329 -1.8466
  169SOPE   H9Y19119   2.528   3.566   7.206  1.2761 -0.4290  0.6871
  169SOPE  C31019120   2.550   3.741   7.309 -0.1289 -0.0045 -0.5938
  169SOPE  H10X19121   2.444   3.766   7.330  0.2192  0.8785  0.1316
  169SOPE  H10Y19122   2.594   3.843   7.310  1.1726 -0.5431  0.9661
  169SOPE  C31119123   2.596   3.664   7.432  0.0084 -0.1762  0.0828
  169SOPE  H11X19124   2.707   3.654   7.425 -0.1494 -0.6847 -2.8351
  169SOPE  H11Y19125   2.560   3.559   7.437 -0.3057 -0.1415 -1.1366
  169SOPE  C31219126   2.557   3.731   7.559  0.3028 -0.8174 -0.1335
  169SOPE  H12X19127   2.449   3.715   7.578 -0.0692 -0.6988 -1.9496
  169SOPE  H12Y19128   2.561   3.840   7.536 -3.1670 -0.9416 -2.0109
  169SOPE  C31319129   2.645   3.702   7.678  0.6341  0.4314  0.2267
  169SOPE  H13X19130   2.746   3.726   7.639 -0.6066  2.5207 -1.9519
  169SOPE  H13Y19131   2.623   3.595   7.699  0.7006  0.3944  0.1071
  169SOPE  C31419132   2.600   3.783   7.798  0.0666 -0.7263  0.7031
  169SOPE  H14X19133   2.494   3.761   7.821  0.2071 -0.8248  1.2764
  169SOPE  H14Y19134   2.607   3.892   7.779 -1.0408 -1.0147 -1.7560
  169SOPE  C31519135   2.684   3.765   7.919  0.6410  0.4072 -1.0309
  169SOPE  H15X19136   2.781   3.818   7.907  1.4289 -0.3522  1.4436
  169SOPE  H15Y19137   2.694   3.655   7.934 -0.0323  0.4402 -0.2764
  169SOPE  C31619138   2.636   3.816   8.054 -0.4875 -0.3173 -0.1899
  169SOPE  H16X19139   2.709   3.803   8.137 -1.1845 -0.0035  0.4826
  169SOPE  H16Y19140   2.546   3.759   8.084 -0.9352  0.0349 -0.8226
  169SOPE  C31719141   2.593   3.965   8.047  0.4268  0.7521  0.4183
  169SOPE  H17X19142   2.501   3.962   7.985  0.0779 -3.5756  0.8824
  169SOPE  H17Y19143   2.669   4.017   7.984  0.7021  0.6018  0.6266
  169SOPE  C31819144   2.578   4.030   8.187  0.2840  0.1473  0.3929
  169SOPE  H18X19145   2.673   4.021   8.243 -0.5779 -1.0563  1.7225
  169SOPE  H18Y19146   2.494   3.994   8.249  0.0274  1.5379  0.8877
  169SOPE  H18Z19147   2.561   4.139   8.170  1.4265  0.2412 -0.2588
  170SOPE     N19148   2.054   1.787   5.605 -0.1321 -0.0766  0.0341
  170SOPE   HN119149   2.073   1.887   5.628 -2.1038  0.3008  0.2107
  170SOPE   HN219150   2.124   1.746   5.540  0.4531  2.1115 -0.8170
  170SOPE   HN319151   1.963   1.788   5.555  0.0506 -1.3104 -0.3397
  170SOPE   C1219152   2.037   1.726   5.739  0.0487 -0.2647 -0.6297
  170SOPE  H12A19153   2.135   1.690   5.776 -1.1918 -4.0584 -0.6155
  170SOPE  H12B19154   1.974   1.635   5.738  0.9446 -0.9429  0.6144
  170SOPE   C1119155   1.969   1.822   5.838 -0.3549 -0.3520 -0.5408
  170SOPE  H11A19156   1.954   1.768   5.934 -1.3655 -0.8996 -0.9900
  170SOPE  H11B19157   1.868   1.857   5.808  0.6948  2.4973 -1.0905
  170SOPE     P19158   2.005   2.049   5.953 -0.6678  0.1095 -0.0023
  170SOPE   O1319159   1.870   2.091   5.924  0.1494 -0.1316  0.2240
  170SOPE   O1419160   2.114   2.146   5.953 -0.3253 -0.5892 -0.2078
  170SOPE   O1219161   2.047   1.942   5.855  0.8555 -0.3167  0.3575
  170SOPE   O1119162   2.010   1.967   6.084 -0.1574 -0.6719  0.4166
  170SOPE    C119163   1.906   1.966   6.179 -0.4118  0.3142  0.3651
  170SOPE    HA19164   1.932   1.890   6.255  0.5931 -1.3571 -1.5672
  170SOPE    HB19165   1.811   1.922   6.142 -0.3364  0.2737  0.2225
  170SOPE    C219166   1.872   2.095   6.263  0.3141  0.4881  0.1601
  170SOPE    HS19167   1.839   2.163   6.182 -1.7544 -2.2808 -1.5153
  170SOPE   O2119168   1.994   2.144   6.320 -0.1171  0.1092 -0.0053
  170SOPE   C2119169   1.980   2.256   6.384  0.1700 -0.0134  0.0694
  170SOPE   O2219170   1.885   2.329   6.376  0.3964  0.5633  0.8826
  170SOPE   C2219171   2.109   2.279   6.482 -0.6537  0.0094  0.3322
  170SOPE   H2R19172   2.118   2.389   6.474  0.8526 -0.1546 -0.6379
  170SOPE   H2S19173   2.198   2.233   6.434 -1.2220  0.9741 -1.7864
  170SOPE    C319174   1.762   2.054   6.361  0.1063 -0.0958  0.0205
  170SOPE    HX19175   1.688   1.990   6.307 -0.6625  0.2063  0.6892
  170SOPE    HY19176   1.716   2.151   6.390 -0.1454  0.2312 -1.3944
  170SOPE   O3119177   1.814   1.997   6.481 -0.3610  0.0958  0.1544
  170SOPE   C3119178   1.733   1.922   6.552 -0.1792  0.2105 -1.0911
  170SOPE   O3219179   1.615   1.906   6.531  0.3568  0.1510  0.0067
  170SOPE   C3219180   1.808   1.887   6.677  0.4140  0.7680 -0.5025
  170SOPE   H2X19181   1.878   1.972   6.693  2.0891 -0.8239  1.1652
  170SOPE   H2Y19182   1.865   1.793   6.660 -1.8048 -0.8704  0.6062
  170SOPE   C2319183   2.073   2.225   6.624 -0.0303  0.0395  0.4292
  170SOPE   H3R19184   2.048   2.116   6.623 -1.5280  0.3681  0.7706
  170SOPE   H3S19185   1.992   2.278   6.678 -0.3048  0.0739 -0.0110
  170SOPE   C2419186   2.199   2.234   6.710 -0.4403 -0.1006 -0.1738
  170SOPE   H4R19187   2.281   2.180   6.657  0.3776  1.0507 -0.1027
  170SOPE   H4S19188   2.221   2.341   6.727 -3.8631  0.9064 -1.1995
  170SOPE   C2519189   2.183   2.164   6.844 -0.2504  0.3716  0.4567
  170SOPE   H5R19190   2.175   2.054   6.828  1.4336  0.7125 -3.7836
  170SOPE   H5S19191   2.270   2.175   6.912 -0.1048 -4.3690  1.4063
  170SOPE   C2619192   2.061   2.207   6.930  0.0581 -0.2469  0.1902
  170SOPE   H6R19193   2.080   2.310   6.967  1.2737 -0.8531  1.3475
  170SOPE   H6S19194   1.972   2.188   6.866 -1.6580 -1.1506  2.7289
  170SOPE   C2719195   2.039   2.130   7.055  0.2146  0.3055  0.5545
  170SOPE   H7R19196   2.044   2.025   7.021 -0.9932 -0.2659  2.0335
  170SOPE   H7S19197   2.124   2.151   7.124  3.1538 -0.3885 -2.5790
  170SOPE   C2819198   1.902   2.151   7.122  0.3602  0.1669  0.1647
  170SOPE   H8R19199   1.868   2.256   7.108  1.6498  0.6766  0.6370
  170SOPE   H8S19200   1.830   2.096   7.058  0.4271  1.1463 -0.7931
  170SOPE   C2919201   1.907   2.106   7.265 -0.6002  0.2765  0.6096
  170SOPE   H9119202   1.933   2.000   7.278  1.4889  0.7107  0.2320
  170SOPE  C21019203   1.896   2.178   7.375 -0.6664  0.2360  0.3340
  170SOPE  H10119204   1.917   2.132   7.473 -1.0933  1.7026  1.1485
  170SOPE  C21119205   1.869   2.321   7.398  0.2392 -0.1470  0.2102
  170SOPE  H11R19206   1.848   2.377   7.304  0.4015 -0.0939  0.2057
  170SOPE  H11S19207   1.952   2.372   7.451 -0.2642  1.2675 -0.3144
  170SOPE  C21219208   1.745   2.349   7.486 -1.1787  0.1666  0.3393
  170SOPE  H12R19209   1.737   2.278   7.571  1.4530 -1.1566 -0.4014
  170SOPE  H12S19210   1.656   2.317   7.429 -0.3613 -2.3834  0.3895
  170SOPE  C21319211   1.725   2.489   7.544  0.4346  0.4082 -0.7286
  170SOPE  H13R19212   1.704   2.565   7.466 -1.0026  0.4590 -0.3202
  170SOPE  H13S19213   1.818   2.515   7.600 -0.7028 -0.6667  1.7757
  170SOPE  C21419214   1.601   2.477   7.646 -0.9005 -0.1896 -0.0526
  170SOPE  H14R19215   1.615   2.395   7.719 -1.2840  0.1326  0.3920
  170SOPE  H14S19216   1.512   2.461   7.582 -0.8703 -0.2000 -0.0919
  170SOPE  C21519217   1.599   2.609   7.723 -0.2608  0.1063 -0.0787
  170SOPE  H15R19218   1.594   2.693   7.651 -1.3225 -0.2783 -0.4692
  170SOPE  H15S19219   1.692   2.615   7.785 -0.3026  0.0762 -0.0130
  170SOPE  C21619220   1.474   2.624   7.807  0.6883 -0.2570 -0.5374
  170SOPE  H16R19221   1.450   2.733   7.807  2.6873  0.2284  0.2517
  170SOPE  H16S19222   1.486   2.595   7.913  1.7981  2.0679  0.0506
  170SOPE  C21719223   1.349   2.558   7.748 -0.3951  0.1603 -0.1405
  170SOPE  H17R19224   1.359   2.448   7.743 -0.6848  0.1287 -0.0680
  170SOPE  H17S19225   1.330   2.591   7.643  0.8190  0.3765 -0.2995
  170SOPE  C21819226   1.219   2.595   7.821 -0.0421  0.2735  0.1521
  170SOPE  H18R19227   1.136   2.557   7.757  1.0074  0.0469 -1.1161
  170SOPE  H18S19228   1.197   2.704   7.820  0.9302  0.5467 -3.1601
  170SOPE  H18T19229   1.209   2.546   7.920 -0.2021 -0.1624 -0.0795
  170SOPE   C3319230   1.716   1.862   6.795 -0.1473 -0.2825 -0.0753
  170SOPE   H3X19231   1.640   1.788   6.762 -2.6402  0.6779  3.0132
  170SOPE   H3Y19232   1.658   1.955   6.811  2.7413  1.6276 -0.1882
  170SOPE   C3419233   1.803   1.832   6.924 -0.0272  0.7023  0.3964
  170SOPE   H4X19234   1.734   1.823   7.010 -1.6214 -1.2078 -0.9749
  170SOPE   H4Y19235   1.873   1.916   6.942  0.3185 -0.0541  2.9867
  170SOPE   C3519236   1.875   1.696   6.914 -0.0770 -0.3548  0.7366
  170SOPE   H5X19237   1.935   1.692   6.821 -0.0752  1.5176  0.6157
  170SOPE   H5Y19238   1.807   1.609   6.903 -1.3930  0.6012  1.0315
  170SOPE   C3619239   1.979   1.670   7.024  0.0494 -0.5967 -0.2000
  170SOPE   H6X19240   2.041   1.761   7.034 -1.4023  0.2970  1.2386
  170SOPE   H6Y19241   2.059   1.601   6.989  1.6041  1.7395 -1.4660
  170SOPE   C3719242   1.926   1.632   7.161  0.1583  0.0496 -0.0198
  170SOPE   H7X19243   1.909   1.522   7.151  0.0133  0.2578 -2.6769
  170SOPE   H7Y19244   1.828   1.680   7.180  0.1347 -0.4276  1.1524
  170SOPE   C3819245   2.021   1.659   7.280 -0.3767 -0.0140  0.4725
  170SOPE   H8X19246   2.062   1.760   7.261 -1.0308 -0.3112 -3.3833
  170SOPE   H8Y19247   2.112   1.597   7.269 -0.2487  0.5069 -1.8510
  170SOPE   C3919248   1.958   1.663   7.413 -0.7896 -0.1708 -0.3695
  170SOPE   H9X19249   1.908   1.566   7.435 -0.5951 -0.5724 -1.6001
  170SOPE   H9Y19250   1.875   1.738   7.415 -0.8684 -0.2289 -1.0313
  170SOPE  C31019251   2.048   1.693   7.541  0.2884 -0.4352 -0.1408
  170SOPE  H10X19252   2.138   1.630   7.526 -0.4191 -1.1557 -1.6836
  170SOPE  H10Y19253   1.995   1.647   7.628  0.5761 -2.2761 -0.8843
  170SOPE  C31119254   2.088   1.840   7.544  0.6457 -0.2297  0.5667
  170SOPE  H11X19255   1.997   1.903   7.537 -1.4118 -2.8632  1.6559
  170SOPE  H11Y19256   2.153   1.871   7.460  0.7835 -0.2104  0.6809
  170SOPE  C31219257   2.169   1.874   7.671 -0.1566 -0.0995  0.4215
  170SOPE  H12X19258   2.274   1.843   7.651 -0.5932 -0.2355 -2.0611
  170SOPE  H12Y19259   2.130   1.814   7.756 -3.4513 -0.5907 -1.2961
  170SOPE  C31319260   2.160   2.028   7.701 -0.5521  0.8611 -0.4604
  170SOPE  H13X19261   2.190   2.088   7.612  0.4461 -0.7870 -1.2747
  170SOPE  H13Y19262   2.233   2.053   7.781  0.4324 -0.1127 -1.0380
  170SOPE  C31419263   2.025   2.072   7.775 -0.3310 -0.6502  0.5688
  170SOPE  H14X19264   2.007   1.998   7.856 -1.8425 -1.0256 -0.0720
  170SOPE  H14Y19265   1.953   2.053   7.693 -1.1954  1.7368  0.7022
  170SOPE  C31519266   2.025   2.210   7.825  0.9897 -0.4781  0.5545
  170SOPE  H15X19267   2.054   2.275   7.739  1.0711 -0.5253  0.5456
  170SOPE  H15Y19268   2.111   2.210   7.895  0.7731 -1.7111  0.8472
  170SOPE  C31619269   1.902   2.246   7.909  0.2697  0.0964  0.4501
  170SOPE  H16X19270   1.897   2.201   8.011 -0.0895  0.7128  0.7143
  170SOPE  H16Y19271   1.822   2.204   7.844  0.9575  0.4419 -0.6270
  170SOPE  C31719272   1.879   2.393   7.908 -0.7411  0.1869 -0.1862
  170SOPE  H17X19273   1.850   2.434   7.808  0.1780  1.4907  0.0634
  170SOPE  H17Y19274   1.971   2.444   7.943 -0.1399  0.3349 -1.8646
  170SOPE  C31819275   1.770   2.435   8.004 -0.6373 -0.5573  0.1909
  170SOPE  H18X19276   1.676   2.380   7.982 -2.3087  1.5985  1.4918
  170SOPE  H18Y19277   1.761   2.545   7.990  0.3199 -0.6800 -1.6307
  170SOPE  H18Z19278   1.801   2.421   8.110  0.5920 -2.3097 -0.3482
  171SOPE     N19279   1.750   6.136   6.045 -0.1280  0.0218 -0.5083
  171SOPE   HN119280   1.766   6.033   6.053  1.0698  0.1169 -1.3205
  171SOPE   HN219281   1.688   6.144   5.961  0.4125  1.4051 -0.8016
  171SOPE   HN319282   1.845   6.169   6.017  0.5447  0.3041  1.9343
  171SOPE   C1219283   1.712   6.193   6.181 -0.5889  0.0459  0.0118
  171SOPE  H12A19284   1.807   6.197   6.239  0.1467 -0.6197 -1.1107
  171SOPE  H12B19285   1.633   6.132   6.230  0.2403 -3.2642 -2.3834
  171SOPE   C1119286   1.672   6.337   6.154  0.0302  0.1695 -0.3655
  171SOPE  H11A19287   1.650   6.383   6.252  1.2971 -1.0050  0.5153
  171SOPE  H11B19288   1.573   6.326   6.104 -0.3012  0.1174  0.2964
  171SOPE     P19289   1.707   6.556   6.023 -0.1939 -0.1432  0.0556
  171SOPE   O1319290   1.558   6.556   6.012 -0.2804  0.0894 -0.3793
  171SOPE   O1419291   1.785   6.600   5.908 -0.5449  0.6366 -0.0980
  171SOPE   O1219292   1.760   6.415   6.066 -0.1202 -0.2240  0.6491
  171SOPE   O1119293   1.748   6.653   6.138  0.2850 -0.0042 -0.3591
  171SOPE    C119294   1.876   6.657   6.197 -0.0054 -0.0519 -0.1445
  171SOPE    HA19295   1.944   6.724   6.142  0.3799  1.0355  1.5735
  171SOPE    HB19296   1.930   6.560   6.191 -1.7540 -1.1296  0.5884
  171SOPE    C219297   1.866   6.691   6.351 -0.4396 -0.8443  0.9319
  171SOPE    HS19298   1.798   6.779   6.354  1.2038  0.4554  1.5301
  171SOPE   O2119299   1.993   6.731   6.412  0.2418 -0.9261  0.5623
  171SOPE   C2119300   2.025   6.855   6.395 -0.5637 -0.1232  0.6113
  171SOPE   O2219301   1.973   6.939   6.320  0.0640  0.0881 -0.9685
  171SOPE   C2219302   2.144   6.885   6.480 -0.2420 -0.5968 -0.5435
  171SOPE   H2R19303   2.171   6.984   6.436 -0.4632 -0.4378 -0.3220
  171SOPE   H2S19304   2.220   6.805   6.464 -0.9111 -1.8655  2.1333
  171SOPE    C319305   1.805   6.580   6.431 -0.1635 -0.1014 -0.4128
  171SOPE    HX19306   1.865   6.487   6.431  0.7992  0.4270  2.5829
  171SOPE    HY19307   1.703   6.546   6.403 -0.3437  0.0169  0.0899
  171SOPE   O3119308   1.801   6.604   6.574 -0.7611  0.2699  0.0782
  171SOPE   C3119309   1.729   6.696   6.627  0.8177 -0.1276  0.3004
  171SOPE   O3219310   1.653   6.773   6.565 -0.2609  0.1549  0.0748
  171SOPE   C3219311   1.754   6.694   6.781  0.0640 -0.2804 -0.4915
  171SOPE   H2X19312   1.855   6.739   6.795 -0.3460  0.3524  0.6091
  171SOPE   H2Y19313   1.749   6.592   6.824 -1.4616  0.3129  0.8676
  171SOPE   C2319314   2.108   6.884   6.637 -0.1321 -0.1477  0.0648
  171SOPE   H3R19315   2.211   6.884   6.677  0.7041  2.4674 -1.7830
  171SOPE   H3S19316   2.071   6.782   6.660  0.9755 -0.8731 -1.2152
  171SOPE   C2419317   2.036   7.003   6.690  0.0118 -0.0420 -0.6324
  171SOPE   H4R19318   2.100   7.086   6.655  2.1687 -1.5353 -0.4361
  171SOPE   H4S19319   1.933   7.016   6.651 -0.9856  0.2601  1.8862
  171SOPE   C2519320   2.029   7.010   6.835 -0.2159  0.4249 -0.5790
  171SOPE   H5R19321   2.006   6.912   6.881 -0.6028  0.6836 -0.2025
  171SOPE   H5S19322   2.129   7.041   6.870  0.0912  2.7254 -3.1453
  171SOPE   C2619323   1.948   7.118   6.896  0.8543  0.1619  0.6904
  171SOPE   H6R19324   1.958   7.220   6.854  3.3809 -0.9705 -1.7963
  171SOPE   H6S19325   1.840   7.094   6.887  1.0848 -0.7115  0.0285
  171SOPE   C2719326   1.977   7.126   7.048 -0.4589 -0.3359  0.3431
  171SOPE   H7R19327   1.965   7.029   7.101  2.3935 -0.5161  0.8021
  171SOPE   H7S19328   2.083   7.160   7.058 -0.9769  1.4506  0.1517
  171SOPE   C2819329   1.889   7.224   7.121  0.1945 -0.0423 -0.0719
  171SOPE   H8R19330   1.901   7.312   7.053  3.0073 -1.7138 -1.9521
  171SOPE   H8S19331   1.787   7.182   7.130  0.1029  0.3965  1.2149
  171SOPE   C2919332   1.941   7.247   7.265 -0.0590  0.3378 -0.0505
  171SOPE   H9119333   2.033   7.308   7.270 -0.0627  0.3283  0.1741
  171SOPE  C21019334   1.883   7.208   7.383 -0.8752 -0.5880  0.0118
  171SOPE  H10119335   1.944   7.239   7.469 -0.3888 -0.5562 -0.3410
  171SOPE  C21119336   1.759   7.134   7.411 -0.3436  0.0807 -0.0875
  171SOPE  H11R19337   1.710   7.096   7.319  2.8161 -0.9565 -1.4405
  171SOPE  H11S19338   1.683   7.205   7.452 -0.0904  0.1897  0.2014
  171SOPE  C21219339   1.770   7.026   7.515 -0.4840  0.2075 -0.5597
  171SOPE  H12R19340   1.874   6.985   7.510 -0.9160 -1.1951  1.0935
  171SOPE  H12S19341   1.696   6.946   7.491  0.2172 -0.8522  0.6199
  171SOPE  C21319342   1.741   7.084   7.649  0.2542 -0.0948 -0.3503
  171SOPE  H13R19343   1.633   7.113   7.650  0.0970 -0.6087 -1.5319
  171SOPE  H13S19344   1.809   7.168   7.676 -0.5338  1.1305 -2.0200
  171SOPE  C21419345   1.753   6.967   7.752 -0.5389 -0.2576 -0.0977
  171SOPE  H14R19346   1.849   6.912   7.736  0.0731  0.9093 -0.5324
  171SOPE  H14S19347   1.671   6.894   7.734 -0.7192 -0.0263 -0.2030
  171SOPE  C21519348   1.745   7.002   7.902  0.4393  0.1357 -0.0195
  171SOPE  H15R19349   1.817   7.086   7.910 -0.0174  0.7034 -1.4963
  171SOPE  H15S19350   1.770   6.914   7.965  0.5373 -1.4765 -2.1876
  171SOPE  C21619351   1.598   7.034   7.953 -0.6357  0.5437  0.7515
  171SOPE  H16R19352   1.539   6.940   7.943  0.3756 -0.0552  0.3389
  171SOPE  H16S19353   1.562   7.117   7.889 -0.3190 -0.7018 -1.1021
  171SOPE  C21719354   1.595   7.067   8.103  0.4168 -0.3501 -0.1580
  171SOPE  H17R19355   1.662   7.154   8.120 -0.1266 -0.5896  4.2570
  171SOPE  H17S19356   1.638   6.980   8.156  0.8249  0.3642  0.7095
  171SOPE  C21819357   1.452   7.107   8.140 -0.1084  0.2093  0.6107
  171SOPE  H18R19358   1.448   7.129   8.249 -0.3787 -0.2941  0.7070
  171SOPE  H18S19359   1.371   7.034   8.119 -1.2612  1.2273  1.3449
  171SOPE  H18T19360   1.418   7.193   8.077  0.6015  0.5013  0.6141
  171SOPE   C3319361   1.661   6.793   6.859 -0.1327 -0.2825  0.0017
  171SOPE   H3X19362   1.557   6.753   6.860  0.1839 -1.1727 -0.7202
  171SOPE   H3Y19363   1.666   6.887   6.801 -0.0686 -0.6594 -0.6177
  171SOPE   C3419364   1.724   6.814   6.993  0.3087 -0.3624 -0.5876
  171SOPE   H4X19365   1.672   6.901   7.038  4.0067  0.3681  2.8690
  171SOPE   H4Y19366   1.831   6.834   6.970  0.4305 -1.5510 -1.1722
  171SOPE   C3519367   1.719   6.697   7.089  0.2622 -1.1951 -0.5576
  171SOPE   H5X19368   1.776   6.609   7.055 -0.8664 -1.9478 -0.5644
  171SOPE   H5Y19369   1.611   6.671   7.098 -1.3233  3.9113 -1.6887
  171SOPE   C3619370   1.759   6.742   7.227 -0.7496 -0.3096 -0.5068
  171SOPE   H6X19371   1.701   6.831   7.258 -0.5046 -0.4571  0.4177
  171SOPE   H6Y19372   1.863   6.782   7.226 -0.7371 -0.2742  0.6599
  171SOPE   C3719373   1.727   6.638   7.332  0.1941  0.3291 -0.3230
  171SOPE   H7X19374   1.753   6.537   7.295 -1.3080 -0.3935  0.5386
  171SOPE   H7Y19375   1.622   6.629   7.366  0.2728  2.0456  0.4950
  171SOPE   C3819376   1.813   6.658   7.462  0.1229  0.2055 -0.7934
  171SOPE   H8X19377   1.776   6.755   7.501 -0.4814 -0.2119 -0.3080
  171SOPE   H8Y19378   1.922   6.664   7.443  0.3288 -0.6678  0.0056
  171SOPE   C3919379   1.781   6.551   7.566 -0.0289  0.5295  0.1031
  171SOPE   H9X19380   1.816   6.451   7.532  0.1795  1.2978 -2.1137
  171SOPE   H9Y19381   1.671   6.554   7.580  0.2152 -0.0956  2.4562
  171SOPE  C31019382   1.851   6.579   7.697 -0.4546  0.1066 -0.3864
  171SOPE  H10X19383   1.833   6.685   7.724  0.6213  0.6733 -1.7971
  171SOPE  H10Y19384   1.961   6.564   7.687 -0.3344  0.7837 -0.1131
  171SOPE  C31119385   1.794   6.489   7.812  0.5009 -0.6581  0.2997
  171SOPE  H11X19386   1.804   6.380   7.791 -0.3144 -0.5753 -0.6037
  171SOPE  H11Y19387   1.687   6.511   7.832  0.6482 -0.2147  0.6135
  171SOPE  C31219388   1.869   6.506   7.943  0.1894 -0.5561 -0.0895
  171SOPE  H12X19389   1.874   6.608   7.987 -1.5331  0.3447 -1.7875
  171SOPE  H12Y19390   1.968   6.458   7.931 -0.4051 -1.5652 -1.2888
  171SOPE  C31319391   1.798   6.418   8.056 -0.6562  0.4540 -0.0991
  171SOPE  H13X19392   1.825   6.313   8.031  0.1450  0.3915  0.9342
  171SOPE  H13Y19393   1.689   6.437   8.061 -0.4789  1.2228  3.2380
  171SOPE  C31419394   1.862   6.439   8.193 -0.1587  0.8965  0.7343
  171SOPE  H14X19395   1.838   6.538   8.239  2.2794  2.4780 -1.1547
  171SOPE  H14Y19396   1.972   6.424   8.186 -0.1258  1.4193 -0.0613
  171SOPE  C31519397   1.810   6.337   8.295  0.0198 -0.1616  0.4238
  171SOPE  H15X19398   1.854   6.351   8.396 -0.8649  1.5181  0.6071
  171SOPE  H15Y19399   1.833   6.231   8.268  0.1243 -0.3510  1.2239
  171SOPE  C31619400   1.655   6.346   8.316  0.1595  0.1783 -0.1521
  171SOPE  H16X19401   1.594   6.303   8.234  0.6754  1.2674 -1.1270
  171SOPE  H16Y19402   1.634   6.455   8.323 -1.1267  0.0068 -1.1540
  171SOPE  C31719403   1.617   6.284   8.451  0.9361  0.0219 -0.5483
  171SOPE  H17X19404   1.677   6.339   8.527  0.4598  2.3341 -1.7447
  171SOPE  H17Y19405   1.648   6.178   8.453 -2.0668 -0.9599  0.7627
  171SOPE  C31819406   1.465   6.298   8.488  0.4493  0.0010 -1.0281
  171SOPE  H18X19407   1.429   6.393   8.442 -2.8261 -0.0682  1.0689
  171SOPE  H18Y19408   1.447   6.307   8.597  0.2451  2.1030 -1.1855
  171SOPE  H18Z19409   1.396   6.225   8.442  0.6413 -0.3513 -0.7567
  172SOPE     N19410   3.665   2.155   6.207  0.4519 -0.0695 -0.0703
  172SOPE   HN119411   3.564   2.133   6.215  0.1905  0.8165 -0.6911
  172SOPE   HN219412   3.688   2.205   6.295  1.9198  0.8277 -0.9210
  172SOPE   HN319413   3.693   2.205   6.120 -1.6501  0.2526 -0.6275
  172SOPE   C1219414   3.729   2.021   6.207 -0.6005  0.0226 -1.0423
  172SOPE  H12A19415   3.839   2.037   6.204 -0.6269  0.0189 -2.4548
  172SOPE  H12B19416   3.690   1.959   6.124  1.0274 -3.3870  0.5581
  172SOPE   C1119417   3.706   1.951   6.342 -0.2074  0.5870  0.3458
  172SOPE  H11A19418   3.600   1.939   6.373 -0.2999 -0.5114 -0.3582
  172SOPE  H11B19419   3.742   2.025   6.416 -3.2373  1.5231  1.0324
  172SOPE     P19420   3.913   1.792   6.381 -0.3707  0.3118 -0.1602
  172SOPE   O1319421   3.989   1.919   6.393 -0.3330 -0.0407 -0.5107
  172SOPE   O1419422   3.954   1.689   6.275 -0.0151  0.0815  0.3752
  172SOPE   O1219423   3.761   1.821   6.355  0.1519 -0.3807 -0.9467
  172SOPE   O1119424   3.904   1.706   6.515 -0.4043 -0.6572 -0.3581
  172SOPE    C119425   3.794   1.631   6.559  0.6507  0.5816 -0.5638
  172SOPE    HA19426   3.767   1.552   6.486  1.8533  0.3981 -0.8359
  172SOPE    HB19427   3.700   1.689   6.553 -1.6556 -2.8414 -0.3730
  172SOPE    C219428   3.796   1.575   6.700  0.7103  0.7299  0.8133
  172SOPE    HS19429   3.696   1.539   6.733  0.8864  0.4464  1.0379
  172SOPE   O2119430   3.860   1.669   6.789  0.1291 -0.1265  0.3082
  172SOPE   C2119431   3.797   1.780   6.812 -0.4983  0.7236 -0.0636
  172SOPE   O2219432   3.695   1.821   6.758 -0.6760  0.1162 -0.3129
  172SOPE   C2219433   3.859   1.846   6.936  0.3223  0.7562  0.0410
  172SOPE   H2R19434   3.856   1.955   6.916  2.3917  0.5533 -1.8536
  172SOPE   H2S19435   3.962   1.808   6.958 -0.0364  0.1817  0.7514
  172SOPE    C319436   3.893   1.450   6.703 -0.2947 -0.0674  0.0952
  172SOPE    HX19437   3.995   1.458   6.659 -0.3419 -1.2009 -0.2605
  172SOPE    HY19438   3.841   1.378   6.635 -3.5548  0.3699  1.9207
  172SOPE   O3119439   3.907   1.391   6.836 -0.0697 -0.5936 -0.8157
  172SOPE   C3119440   4.000   1.434   6.916 -0.7477 -0.1043 -0.1253
  172SOPE   O3219441   4.082   1.521   6.886 -0.3183  0.9547  0.2436
  172SOPE   C3219442   3.988   1.356   7.051  1.1060 -0.1175 -0.0873
  172SOPE   H2X19443   4.092   1.324   7.072  1.0074 -3.4485 -3.6661
  172SOPE   H2Y19444   3.928   1.265   7.030  0.8342  0.1530 -0.4959
  172SOPE   C2319445   3.755   1.821   7.043  0.7831  0.3919  0.5512
  172SOPE   H3R19446   3.716   1.717   7.043  0.2556  0.5868 -0.0108
  172SOPE   H3S19447   3.666   1.884   7.025  0.0258 -1.3514 -2.3458
  172SOPE   C2419448   3.808   1.855   7.187 -0.3706  0.2430 -0.0888
  172SOPE   H4R19449   3.913   1.820   7.198  0.5034  2.6129 -0.3000
  172SOPE   H4S19450   3.818   1.966   7.198  1.0351 -0.0254  1.8218
  172SOPE   C2519451   3.713   1.823   7.302 -0.0307 -0.2660  0.3211
  172SOPE   H5R19452   3.615   1.874   7.289  0.8800  1.2283 -1.0698
  172SOPE   H5S19453   3.689   1.715   7.310 -2.9984  0.2340 -0.4664
  172SOPE   C2619454   3.792   1.856   7.433  0.7925 -0.5804  0.4140
  172SOPE   H6R19455   3.891   1.808   7.420  1.0719  0.4768 -1.8553
  172SOPE   H6S19456   3.803   1.967   7.437  2.6586 -0.7457  1.1684
  172SOPE   C2719457   3.729   1.798   7.559 -0.2358  0.0314 -0.2979
  172SOPE   H7R19458   3.626   1.828   7.588  0.1766  1.1339  0.0736
  172SOPE   H7S19459   3.703   1.690   7.558 -0.2547  0.0384 -0.9457
  172SOPE   C2819460   3.813   1.827   7.684 -0.7053 -0.3874  0.4242
  172SOPE   H8R19461   3.787   1.757   7.766 -2.3489  0.7902  0.9595
  172SOPE   H8S19462   3.917   1.808   7.651 -0.4513  1.0712  0.3141
  172SOPE   C2919463   3.794   1.973   7.722 -0.3993 -0.4530  0.5131
  172SOPE   H9119464   3.835   2.039   7.644 -0.9206 -3.3918 -2.4707
  172SOPE  C21019465   3.726   2.027   7.825  1.0209  0.2646  0.2366
  172SOPE  H10119466   3.714   2.135   7.841  0.4946  0.1293  0.8142
  172SOPE  C21119467   3.656   1.943   7.922  0.2373  0.4052 -0.8866
  172SOPE  H11R19468   3.633   1.995   8.017 -0.3719  0.3836 -1.0130
  172SOPE  H11S19469   3.717   1.852   7.940 -0.0704  0.5259  0.9679
  172SOPE  C21219470   3.516   1.885   7.884 -0.0514 -0.9477  1.1528
  172SOPE  H12R19471   3.533   1.850   7.780  0.7842  2.0016  0.1945
  172SOPE  H12S19472   3.450   1.973   7.872 -0.6335 -1.5155 -0.0063
  172SOPE  C21319473   3.449   1.788   7.979  0.0996  0.1091  1.1620
  172SOPE  H13R19474   3.338   1.794   7.970  0.0741  1.0762  1.9887
  172SOPE  H13S19475   3.464   1.823   8.084 -0.3689  2.4022  0.5208
  172SOPE  C21419476   3.490   1.643   7.966 -0.4701 -0.2568  0.5402
  172SOPE  H14R19477   3.601   1.636   7.957 -0.3286  0.8668  1.1705
  172SOPE  H14S19478   3.440   1.589   7.883  1.4948 -0.6691 -0.4389
  172SOPE  C21519479   3.472   1.542   8.087 -0.8872 -0.4640 -0.5609
  172SOPE  H15R19480   3.549   1.569   8.163 -2.5716  1.8316  0.4351
  172SOPE  H15S19481   3.489   1.435   8.062 -2.1192 -0.9031  0.3697
  172SOPE  C21619482   3.326   1.566   8.136  0.7842  0.7639 -0.5014
  172SOPE  H16R19483   3.270   1.573   8.040 -1.8625 -0.1580  0.8637
  172SOPE  H16S19484   3.313   1.664   8.186  0.0953  1.7704 -2.5629
  172SOPE  C21719485   3.267   1.453   8.224  0.0700 -0.2957  0.0506
  172SOPE  H17R19486   3.263   1.362   8.161 -1.3608 -0.7711  0.7806
  172SOPE  H17S19487   3.162   1.487   8.238  0.5993  1.9044 -0.8028
  172SOPE  C21819488   3.337   1.424   8.353  0.4629 -0.3440 -0.4280
  172SOPE  H18R19489   3.292   1.338   8.406  0.1306 -0.2250 -0.5163
  172SOPE  H18S19490   3.330   1.517   8.414  2.0133 -0.9442  0.7267
  172SOPE  H18T19491   3.445   1.399   8.343  0.6548 -0.7957  2.0120
  172SOPE   C3319492   3.916   1.450   7.157  0.1885  0.9059  0.2456
  172SOPE   H3X19493   3.808   1.454   7.132  0.2577 -0.9763 -0.5419
  172SOPE   H3Y19494   3.971   1.546   7.165 -0.8622  1.5509 -0.0676
  172SOPE   C3419495   3.941   1.375   7.293  0.2047  0.0025  0.5430
  172SOPE   H4X19496   4.049   1.355   7.305  0.7478  2.2908 -0.0809
  172SOPE   H4Y19497   3.885   1.279   7.287  2.1661 -1.1423 -0.8394
  172SOPE   C3519498   3.887   1.455   7.411 -0.2843  0.2079  0.1685
  172SOPE   H5X19499   3.782   1.481   7.385  0.1404  0.1350 -1.7849
  172SOPE   H5Y19500   3.938   1.553   7.416  0.7391 -0.3679  1.5962
  172SOPE   C3619501   3.897   1.368   7.541 -0.0138 -1.2562  0.2869
  172SOPE   H6X19502   4.003   1.357   7.570 -0.3155  0.6574  2.3647
  172SOPE   H6Y19503   3.839   1.274   7.540 -0.6362 -0.8875 -1.0926
  172SOPE   C3719504   3.825   1.434   7.654 -0.0236  0.3507  0.1096
  172SOPE   H7X19505   3.715   1.420   7.647  0.4226 -2.8540 -2.1969
  172SOPE   H7Y19506   3.854   1.541   7.651  3.9743 -0.6214 -1.6970
  172SOPE   C3819507   3.882   1.367   7.782  0.0979 -0.2191 -0.0827
  172SOPE   H8X19508   3.991   1.383   7.767  0.1221 -1.5444 -1.6465
  172SOPE   H8Y19509   3.860   1.259   7.775  1.4347 -0.4600 -1.0056
  172SOPE   C3919510   3.820   1.432   7.907 -0.4942  0.3832  0.2590
  172SOPE   H9X19511   3.725   1.381   7.932  0.2176 -1.3942 -0.5592
  172SOPE   H9Y19512   3.819   1.540   7.880  0.2581  0.2449 -0.3653
  172SOPE  C31019513   3.906   1.418   8.030 -0.2024  1.0580  0.0245
  172SOPE  H10X19514   4.011   1.448   8.011 -0.7714  2.7505 -0.6237
  172SOPE  H10Y19515   3.887   1.311   8.053 -0.7070  0.6205 -2.2634
  172SOPE  C31119516   3.856   1.493   8.158  0.8563 -0.3527 -0.7131
  172SOPE  H11X19517   3.920   1.458   8.241  0.4983  2.8212  1.0697
  172SOPE  H11Y19518   3.749   1.467   8.176  0.8832  0.1560  0.2602
  172SOPE  C31219519   3.860   1.647   8.140 -0.2415 -0.3699 -0.6642
  172SOPE  H12X19520   3.843   1.691   8.241  2.8426  0.4107 -0.3713
  172SOPE  H12Y19521   3.781   1.690   8.074 -2.6034 -0.8385  1.6658
  172SOPE  C31319522   3.995   1.699   8.089  0.3644  0.3669 -0.2671
  172SOPE  H13X19523   4.007   1.657   7.986 -1.4056  0.1488 -0.4090
  172SOPE  H13Y19524   4.069   1.659   8.162 -2.3774 -2.5935  1.1085
  172SOPE  C31419525   4.019   1.847   8.079 -0.4544 -0.3313 -0.0949
  172SOPE  H14X19526   3.958   1.875   7.990  0.6094 -0.5686 -0.9232
  172SOPE  H14Y19527   4.126   1.869   8.062 -0.6420  0.3476 -0.4639
  172SOPE  C31519528   3.967   1.936   8.196  0.1779  0.4421  0.6262
  172SOPE  H15X19529   3.978   1.886   8.295 -2.3461  0.2999  0.8980
  172SOPE  H15Y19530   3.860   1.956   8.174  0.9518  4.2142 -0.4548
  172SOPE  C31619531   4.023   2.083   8.198 -0.1586 -0.2440 -0.5611
  172SOPE  H16X19532   3.967   2.125   8.284  0.6758 -1.5516  0.6837
  172SOPE  H16Y19533   3.988   2.130   8.104  0.3225  0.1152 -0.5661
  172SOPE  C31719534   4.169   2.100   8.219  0.5312  0.3838  0.4176
  172SOPE  H17X19535   4.185   2.209   8.235  0.5311  0.0504  3.2094
  172SOPE  H17Y19536   4.213   2.063   8.124 -1.3866 -1.9565  0.3161
  172SOPE  C31819537   4.209   2.020   8.344  0.2552 -0.8619  0.1574
  172SOPE  H18X19538   4.236   1.917   8.311  2.5667  0.3141 -1.9449
  172SOPE  H18Y19539   4.125   2.028   8.416 -0.2869  2.1114 -0.7027
  172SOPE  H18Z19540   4.302   2.055   8.393 -0.7548 -1.0427  2.3058
  173SAPI   C1219541   3.149   2.692  10.378 -0.1302 -0.2313 -0.5639
  173SAPI    H219542   3.040   2.675  10.361  0.2335 -0.5840 -2.8812
  173SAPI    O219543   3.206   2.650  10.254 -0.0152  0.3229 -0.1758
  173SAPI   HO219544   3.215   2.554  10.261 -1.0510  0.0955 -1.4883
  173SAPI   C1319545   3.166   2.849  10.396  0.1761 -0.4021 -0.0545
  173SAPI    H319546   3.133   2.877  10.498  1.3333 -0.8496  0.4610
  173SAPI    O319547   3.084   2.927  10.298 -0.3830 -0.3997  0.1574
  173SAPI   HO319548   3.063   3.011  10.338  2.8866  1.3273 -1.3955
  173SAPI   C1419549   3.307   2.882  10.390  0.4723  0.2548  0.3763
  173SAPI    H419550   3.338   2.867  10.284  0.3040  1.3077  0.1653
  173SAPI    O419551   3.328   3.023  10.410 -0.4032 -0.6125  0.4878
  173SAPI   HO419552   3.394   3.050  10.346 -0.1836  0.4781  1.1655
  173SAPI   C1519553   3.392   2.794  10.478 -0.3585 -0.0769  0.3100
  173SAPI    H519554   3.400   2.850  10.574  0.6425 -1.3986  1.0337
  173SAPI    O519555   3.523   2.791  10.433  0.4661 -1.0509 -0.3353
  173SAPI   HO519556   3.583   2.740  10.488  0.2322 -0.5858  0.3621
  173SAPI   C1619557   3.342   2.653  10.519  0.3082  0.0931  0.4577
  173SAPI    H619558   3.404   2.590  10.452 -3.3244 -0.4357 -2.7306
  173SAPI    O619559   3.376   2.611  10.649  0.2959  0.1715  0.3494
  173SAPI   HO619560   3.363   2.517  10.656  0.4775  0.0381 -0.8710
  173SAPI   C1119561   3.198   2.618  10.497 -0.2995  0.2216  0.3441
  173SAPI    H119562   3.141   2.646  10.588 -1.8864 -1.2454 -0.1435
  173SAPI     P19563   3.040   2.401  10.513 -0.0583 -0.0297  0.2207
  173SAPI   O1319564   2.991   2.434  10.647 -0.3113 -0.3893 -0.6245
  173SAPI   O1419565   3.059   2.258  10.479 -0.5529 -0.0990  0.4287
  173SAPI   O1219566   3.189   2.477  10.490  0.0394  0.1187  0.8962
  173SAPI   O1119567   2.937   2.461  10.408 -0.5832 -0.0521 -0.0641
  173SAPI    C119568   2.806   2.484  10.463  0.1597 -0.1169  0.1645
  173SAPI    HA19569   2.768   2.398  10.522 -0.9992  0.2548 -0.0111
  173SAPI    HB19570   2.805   2.576  10.525  0.2632  1.3491 -1.8976
  173SAPI    C219571   2.701   2.513  10.355  0.2390 -0.8347  0.2088
  173SAPI    HS19572   2.701   2.427  10.284 -1.4627 -1.5772  1.0755
  173SAPI   O2119573   2.728   2.641  10.284 -0.0119  0.8507 -0.1351
  173SAPI   C2119574   2.812   2.624  10.179 -0.0987  0.2838  0.0300
  173SAPI   O2219575   2.840   2.518  10.122  0.0599  0.3160  0.8381
  173SAPI   C2219576   2.845   2.762  10.116  0.0354 -0.0575  1.1950
  173SAPI   H2R19577   2.897   2.820  10.195 -1.5757  1.9289  0.8698
  173SAPI   H2S19578   2.915   2.745  10.031 -1.9936  0.3782 -0.6751
  173SAPI    C319579   2.559   2.523  10.416 -0.3448  0.4502 -0.6140
  173SAPI    HX19580   2.540   2.601  10.493  1.8807 -0.2766  0.7619
  173SAPI    HY19581   2.556   2.431  10.478 -0.2505  0.3822 -0.7113
  173SAPI   O3119582   2.461   2.496  10.312  0.5533 -0.4758 -0.8434
  173SAPI   C3119583   2.408   2.616  10.278 -0.3873  0.4517  0.3217
  173SAPI   O3219584   2.437   2.726  10.318  0.4395 -0.2784 -0.5094
  173SAPI   C3219585   2.298   2.589  10.176  0.2960 -0.3954 -0.3126
  173SAPI   H2X19586   2.274   2.690  10.138  1.6147 -0.4322 -1.3399
  173SAPI   H2Y19587   2.208   2.552  10.229 -0.3557  0.6282 -0.7002
  173SAPI   C2319588   2.723   2.837  10.072  0.0650  0.2165  0.3170
  173SAPI   H3R19589   2.766   2.935  10.043  1.0683  0.7268  3.1835
  173SAPI   H3S19590   2.659   2.868  10.157 -0.2453  2.6649 -0.7240
  173SAPI   C2419591   2.635   2.762   9.971  0.2507 -0.3027 -0.3698
  173SAPI   H4R19592   2.560   2.839   9.943  0.5590  0.2169  0.2319
  173SAPI   H4S19593   2.582   2.673  10.012 -0.5191  0.6765  0.8453
  173SAPI   C2519594   2.726   2.734   9.853 -0.2162 -0.0737 -0.2916
  173SAPI   H5R19595   2.796   2.651   9.871 -0.0840 -0.7965 -3.5461
  173SAPI   C2619596   2.729   2.781   9.730 -0.2350  0.1051  1.4438
  173SAPI   H6R19597   2.795   2.729   9.659 -2.6409  0.4806 -1.2172
  173SAPI   C2719598   2.663   2.909   9.677 -0.3284  0.4522 -0.3436
  173SAPI   H7R19599   2.606   2.949   9.763  0.6831  0.2536  0.4408
  173SAPI   H7S19600   2.596   2.884   9.592 -0.5556  1.4821 -0.4796
  173SAPI   C2819601   2.777   2.999   9.631 -0.3555 -0.0704  0.8583
  173SAPI   H8R19602   2.872   2.987   9.686 -0.6210 -1.6134  1.0178
  173SAPI   C2919603   2.786   3.063   9.518  0.8256 -0.9302  0.3448
  173SAPI   H9R19604   2.885   3.104   9.493  1.1223 -1.1701  1.0871
  173SAPI  C21019605   2.682   3.054   9.411 -0.1844  0.0342  0.2499
  173SAPI  H10R19606   2.578   3.045   9.450 -0.6275  0.2156 -0.8353
  173SAPI  H10S19607   2.700   2.964   9.348  0.5538  0.3633 -0.0194
  173SAPI  C21119608   2.700   3.174   9.320  0.0949 -0.7194  0.5693
  173SAPI  H11R19609   2.718   3.272   9.368 -0.0087  0.4056 -1.5580
  173SAPI  C21219610   2.707   3.179   9.187 -0.4561 -0.3212 -0.4447
  173SAPI  H12R19611   2.730   3.275   9.138  5.2851 -1.8013 -1.4245
  173SAPI  C21319612   2.697   3.065   9.083  0.3391 -0.1506  0.2925
  173SAPI  H13R19613   2.604   3.077   9.025  0.4404 -0.1104  0.1372
  173SAPI  H13S19614   2.690   2.964   9.127 -1.9618  0.0208  0.4348
  173SAPI  C21419615   2.823   3.076   8.993  0.6674  0.4383  0.1348
  173SAPI  H14R19616   2.911   3.014   9.017 -0.4643 -1.2036  0.1882
  173SAPI  C21519617   2.831   3.148   8.881  0.1024 -0.9779  0.1276
  173SAPI  H15R19618   2.925   3.135   8.825  1.1563 -2.5197  2.1203
  173SAPI  C21619619   2.727   3.241   8.826  0.2634  0.7665 -0.7882
  173SAPI  H16R19620   2.760   3.347   8.826 -0.7515  1.1047  0.0308
  173SAPI  H16S19621   2.640   3.234   8.895  0.3048 -1.5728 -0.8931
  173SAPI  C21719622   2.683   3.193   8.687  0.0499 -0.1583 -0.6710
  173SAPI  H17R19623   2.774   3.193   8.623  1.6010  0.9764  1.3990
  173SAPI  H17S19624   2.613   3.269   8.646  2.9077  1.9892 -1.9633
  173SAPI  C21819625   2.617   3.057   8.683 -0.4583 -0.2899  0.0245
  173SAPI  H18R19626   2.544   3.052   8.766 -1.1295 -3.1021 -0.6400
  173SAPI  H18S19627   2.684   2.971   8.705 -1.2028 -0.3627  2.1730
  173SAPI  C21919628   2.547   3.042   8.548 -0.1614 -0.1419  0.4110
  173SAPI  H19R19629   2.454   3.103   8.545  0.0537  0.2045  0.6550
  173SAPI  H19S19630   2.507   2.938   8.545 -1.4570  0.3645 -1.6783
  173SAPI  C22019631   2.625   3.072   8.417 -0.2951 -0.4202 -0.4081
  173SAPI  H20R19632   2.634   3.183   8.410 -1.9544 -0.2875 -0.9514
  173SAPI  H20S19633   2.577   3.032   8.326 -0.2371 -1.3155 -0.0525
  173SAPI  H20T19634   2.728   3.032   8.426  0.2971  0.8371 -1.2977
  173SAPI   C3319635   2.332   2.496  10.061 -0.1187 -0.0089 -0.0441
  173SAPI   H3X19636   2.292   2.400  10.101 -1.2809 -0.5706 -2.3624
  173SAPI   H3Y19637   2.437   2.463  10.048 -0.3502 -0.4418 -0.8856
  173SAPI   C3419638   2.254   2.511   9.936 -0.2418  0.0806 -0.3381
  173SAPI   H4X19639   2.145   2.511   9.961 -0.1859  0.6749 -0.0734
  173SAPI   H4Y19640   2.288   2.435   9.862 -0.1132  0.8088 -1.0469
  173SAPI   C3519641   2.286   2.637   9.859  1.0943  0.8671  0.4016
  173SAPI   H5X19642   2.326   2.720   9.920  0.4520  1.2292  0.3373
  173SAPI   H5Y19643   2.193   2.677   9.812  1.5638  1.4277 -0.0562
  173SAPI   C3619644   2.386   2.618   9.752 -0.4443 -0.8837  0.5450
  173SAPI   H6X19645   2.477   2.573   9.796  0.3617  1.4473  1.3803
  173SAPI   H6Y19646   2.413   2.719   9.717 -0.4578 -0.5278  1.5537
  173SAPI   C3719647   2.335   2.541   9.629  0.1893  0.3963 -0.2015
  173SAPI   H7X19648   2.229   2.563   9.604  0.7212  4.1342  0.3318
  173SAPI   H7Y19649   2.335   2.437   9.669  2.0586  0.2929 -0.3681
  173SAPI   C3819650   2.413   2.552   9.495  0.0459 -0.0674 -0.1363
  173SAPI   H8X19651   2.380   2.472   9.425  1.1675 -0.7689  0.1157
  173SAPI   H8Y19652   2.521   2.530   9.510  0.3688 -0.2548 -2.3704
  173SAPI   C3919653   2.379   2.687   9.418  0.0033 -0.2369  0.1565
  173SAPI   H9X19654   2.401   2.772   9.486 -1.1811  0.1929  0.0202
  173SAPI   H9Y19655   2.269   2.680   9.407  0.0549 -0.7655 -0.0791
  173SAPI  C31019656   2.417   2.712   9.274 -0.9384 -0.5616 -1.0884
  173SAPI  H10X19657   2.528   2.722   9.278 -1.0360  0.4019  2.0193
  173SAPI  H10Y19658   2.388   2.816   9.246  1.2879  1.7848  3.9984
  173SAPI  C31119659   2.377   2.604   9.174 -0.6538  0.3713  0.2179
  173SAPI  H11X19660   2.277   2.574   9.213  0.0996  0.0983  2.0467
  173SAPI  H11Y19661   2.441   2.514   9.182  0.0425  0.8653  0.2821
  173SAPI  C31219662   2.372   2.655   9.026 -0.2647 -0.8921  0.2969
  173SAPI  H12X19663   2.465   2.706   8.993 -0.1124 -0.4046  1.4306
  173SAPI  H12Y19664   2.290   2.729   9.019  0.0230 -0.5885  0.1009
  173SAPI  C31319665   2.345   2.565   8.907 -0.2339  0.5917 -0.8812
  173SAPI  H13X19666   2.234   2.559   8.910 -0.1680 -0.5728  0.3462
  173SAPI  H13Y19667   2.395   2.467   8.928  1.6772  0.7666 -4.0498
  173SAPI  C31419668   2.383   2.636   8.780  0.2093  0.3536  0.3512
  173SAPI  H14X19669   2.491   2.662   8.784  0.1585  1.2202 -2.2167
  173SAPI  H14Y19670   2.336   2.736   8.790  2.3437  1.2175  2.6682
  173SAPI  C31519671   2.334   2.563   8.652  0.0491  0.3892 -0.4426
  173SAPI  H15X19672   2.236   2.516   8.676 -0.0954  0.2674 -1.2445
  173SAPI  H15Y19673   2.398   2.476   8.625 -0.9491 -0.5690  0.1785
  173SAPI  C31619674   2.319   2.652   8.524  0.1047 -0.8533  0.0320
  173SAPI  H16X19675   2.415   2.705   8.507 -0.2865 -0.8293 -2.5053
  173SAPI  H16Y19676   2.248   2.737   8.538  1.9969  0.8584 -0.3620
  173SAPI  C31719677   2.273   2.580   8.397 -0.2184 -0.2746  0.2583
  173SAPI  H17X19678   2.180   2.528   8.432  1.1952 -2.7036  0.6461
  173SAPI  H17Y19679   2.351   2.509   8.362 -0.1532 -0.7994  1.4212
  173SAPI  C31819680   2.255   2.667   8.270  0.1357 -0.1640  0.0957
  173SAPI  H18X19681   2.179   2.742   8.301 -0.2360 -0.2249 -0.6507
  173SAPI  H18Y19682   2.225   2.604   8.184  0.8282 -1.4579  0.7602
  173SAPI  H18Z19683   2.348   2.722   8.246  0.3624  0.0149  1.3189
  174SAPI   C1219684   6.351   4.534  10.813  0.1919  0.1324 -0.2412
  174SAPI    H219685   6.442   4.592  10.787 -0.1237  0.1266 -1.3931
  174SAPI    O219686   6.401   4.405  10.825 -0.3848  0.5490 -0.2376
  174SAPI   HO219687   6.450   4.405  10.907  0.0597 -0.1658 -0.4940
  174SAPI   C1319688   6.308   4.583  10.947 -0.2541  0.0843 -0.5185
  174SAPI    H319689   6.283   4.691  10.942 -0.0571  0.2712  1.4164
  174SAPI    O319690   6.408   4.573  11.048 -0.0542 -1.1184 -0.2430
  174SAPI   HO319691   6.369   4.546  11.132  0.4497 -3.1506 -0.6132
  174SAPI   C1419692   6.184   4.490  10.988 -1.0182 -0.0691  0.4737
  174SAPI    H419693   6.238   4.395  11.008  0.1191  0.5828  0.5942
  174SAPI    O419694   6.118   4.534  11.104  0.3465 -0.5059 -0.7820
  174SAPI   HO419695   6.029   4.500  11.093  0.4040 -1.2219  0.7447
  174SAPI   C1519696   6.087   4.456  10.881  0.8439  0.1400  0.1626
  174SAPI    H519697   6.001   4.525  10.894  1.4224  0.7590  0.8100
  174SAPI    O519698   6.022   4.330  10.895 -0.1560  0.0994  0.2112
  174SAPI   HO519699   6.066   4.262  10.843 -1.3121  0.1195 -0.8623
  174SAPI   C1619700   6.124   4.463  10.735 -0.0643  0.4246 -0.1716
  174SAPI    H619701   6.149   4.360  10.702  0.2890 -0.3923  2.3728
  174SAPI    O619702   6.011   4.500  10.659 -0.1532  0.5047 -0.2738
  174SAPI   HO619703   6.042   4.498  10.568  1.6851  1.1999  0.2860
  174SAPI   C1119704   6.244   4.553  10.713  0.1728  0.4153  0.0783
  174SAPI    H119705   6.210   4.658  10.726 -0.4324  0.2661 -0.2477
  174SAPI     P19706   6.258   4.577  10.438  0.2166  0.4862 -0.1526
  174SAPI   O1319707   6.354   4.532  10.334 -0.2138 -0.0214  0.1749
  174SAPI   O1419708   6.216   4.718  10.443 -0.1775 -0.4239 -0.1665
  174SAPI   O1219709   6.316   4.530  10.590  0.3111  0.4978 -0.3716
  174SAPI   O1119710   6.129   4.493  10.426  0.0194  0.5235 -0.1096
  174SAPI    C119711   6.121   4.362  10.376  0.8950  0.3967  0.1496
  174SAPI    HA19712   6.191   4.294  10.429  0.6230  0.0561  0.0782
  174SAPI    HB19713   6.023   4.329  10.417  0.1751  1.0294 -1.0359
  174SAPI    C219714   6.101   4.354  10.218  0.2614  0.0892 -0.0925
  174SAPI    HS19715   6.023   4.278  10.197 -0.5316  1.6356 -3.4529
  174SAPI   O2119716   6.223   4.314  10.155 -0.0126  0.1450 -0.0457
  174SAPI   C2119717   6.276   4.205  10.199  0.1870  0.4009  0.0349
  174SAPI   O2219718   6.221   4.115  10.262 -0.2349 -0.4551  0.1877
  174SAPI   C2219719   6.416   4.196  10.146  0.3160  0.1360  0.0720
  174SAPI   H2R19720   6.422   4.165  10.040  0.6199 -0.4162  0.2492
  174SAPI   H2S19721   6.472   4.291  10.161  1.5647 -0.5347 -0.2089
  174SAPI    C319722   6.050   4.491  10.163 -0.6358 -0.3345 -0.2800
  174SAPI    HX19723   6.133   4.564  10.179  1.7077 -2.8442 -0.2699
  174SAPI    HY19724   5.960   4.523  10.220 -0.3363 -1.2975  0.7697
  174SAPI   O3119725   6.025   4.490  10.022 -0.3494 -0.2013  0.7525
  174SAPI   C3119726   5.906   4.434   9.979 -0.1910 -0.3456 -0.0623
  174SAPI   O3219727   5.819   4.403  10.056  0.6593 -0.0787  0.2947
  174SAPI   C3219728   5.895   4.421   9.828  0.3393 -0.3154  0.6760
  174SAPI   H2X19729   5.884   4.523   9.785 -1.5622 -1.4659 -1.8321
  174SAPI   H2Y19730   5.797   4.373   9.806  0.2095  0.8869 -1.6942
  174SAPI   C2319731   6.508   4.082  10.208 -0.3961 -0.0304 -0.1648
  174SAPI   H3R19732   6.453   3.991  10.241  1.3585 -0.0047  3.2706
  174SAPI   H3S19733   6.547   4.130  10.300 -1.2323  0.0281  0.1730
  174SAPI   C2419734   6.629   4.033  10.122  1.1667 -0.1627  0.8956
  174SAPI   H4R19735   6.586   3.965  10.045  2.6714 -1.1864  0.9252
  174SAPI   H4S19736   6.689   3.967  10.187 -0.4517 -0.7693  1.8474
  174SAPI   C2519737   6.714   4.147  10.074 -0.3427 -0.4053  0.2635
  174SAPI   H5R19738   6.796   4.175  10.142  0.6907 -0.1834 -1.0417
  174SAPI   C2619739   6.722   4.207   9.956  1.0764  0.6235 -0.0074
  174SAPI   H6R19740   6.798   4.286   9.948  0.0063  1.6535 -0.2791
  174SAPI   C2719741   6.619   4.194   9.847 -0.9028 -1.0115 -0.0886
  174SAPI   H7R19742   6.535   4.123   9.866  0.2403 -3.0558 -2.2398
  174SAPI   H7S19743   6.677   4.166   9.756  2.6900  2.5859  0.8389
  174SAPI   C2819744   6.554   4.330   9.824  0.2655  0.5819  0.0781
  174SAPI   H8R19745   6.544   4.393   9.913  2.1229  1.4376 -0.2509
  174SAPI   C2919746   6.531   4.386   9.707  0.4670 -0.4782  0.3315
  174SAPI   H9R19747   6.482   4.485   9.710  0.3234 -0.5700  1.2639
  174SAPI  C21019748   6.530   4.314   9.579  0.3365 -0.5938  0.5357
  174SAPI  H10R19749   6.454   4.367   9.516  0.3186 -1.7208 -0.4181
  174SAPI  H10S19750   6.490   4.211   9.592 -0.1858 -0.3028  1.2916
  174SAPI  C21119751   6.668   4.313   9.507  0.4158  0.4764 -0.3726
  174SAPI  H11R19752   6.742   4.361   9.572  1.1518 -4.0295  2.5454
  174SAPI  C21219753   6.682   4.303   9.371 -1.2189  0.4234 -0.0811
  174SAPI  H12R19754   6.785   4.307   9.333 -1.2492 -1.6028 -0.4989
  174SAPI  C21319755   6.584   4.246   9.278  0.1753 -0.2844  1.1819
  174SAPI  H13R19756   6.505   4.186   9.327  0.8622 -0.3910  2.1894
  174SAPI  H13S19757   6.639   4.179   9.208  1.0997 -0.0552  1.6730
  174SAPI  C21419758   6.506   4.349   9.192 -0.5292  0.6241 -0.7979
  174SAPI  H14R19759   6.411   4.387   9.233 -0.5240  2.3430 -2.2349
  174SAPI  C21519760   6.547   4.412   9.077 -0.1754 -0.2165  0.6276
  174SAPI  H15R19761   6.479   4.479   9.022  0.2431 -1.4159 -1.4800
  174SAPI  C21619762   6.678   4.390   9.004 -0.1875  0.0655  0.9486
  174SAPI  H16R19763   6.750   4.332   9.066 -0.9648 -1.5039  0.4436
  174SAPI  H16S19764   6.713   4.491   8.975  2.7381 -0.5608  1.9782
  174SAPI  C21719765   6.662   4.307   8.872  0.2777 -0.0497  0.0621
  174SAPI  H17R19766   6.569   4.338   8.821 -0.1583  2.6135  2.2142
  174SAPI  H17S19767   6.648   4.200   8.899  1.4127 -0.0783  0.6191
  174SAPI  C21819768   6.792   4.311   8.791 -1.3926  0.0148  0.1563
  174SAPI  H18R19769   6.865   4.254   8.853 -0.1714  0.6115 -0.7076
  174SAPI  H18S19770   6.828   4.416   8.790 -1.8991  0.1982 -2.0642
  174SAPI  C21919771   6.795   4.262   8.642  0.3931 -0.8087  0.3617
  174SAPI  H19R19772   6.899   4.259   8.604  0.6612  4.2565  0.0055
  174SAPI  H19S19773   6.746   4.346   8.588  1.1229 -0.0939  0.7933
  174SAPI  C22019774   6.722   4.130   8.598  0.0469  1.1504  0.6401
  174SAPI  H20R19775   6.614   4.116   8.620  0.1579 -0.5282  0.2440
  174SAPI  H20S19776   6.782   4.043   8.630  2.0535  1.5394 -1.7442
  174SAPI  H20T19777   6.709   4.123   8.487 -1.6829 -0.3545  0.8884
  174SAPI   C3319778   6.002   4.349   9.758 -0.8265  0.1882  0.4390
  174SAPI   H3X19779   6.007   4.250   9.807 -0.2782 -0.6962 -1.3129
  174SAPI   H3Y19780   6.099   4.400   9.741 -0.8372  0.7882  1.9846
  174SAPI   C3419781   5.964   4.308   9.604  0.1947 -0.4702 -0.2271
  174SAPI   H4X19782   5.937   4.402   9.551  0.3023 -0.3574 -0.0792
  174SAPI   H4Y19783   5.877   4.239   9.599  1.0090 -1.5053 -0.8752
  174SAPI   C3519784   6.087   4.242   9.540  0.1692 -0.3685  0.6014
  174SAPI   H5X19785   6.140   4.166   9.601  2.2495 -1.4252 -2.3005
  174SAPI   H5Y19786   6.162   4.323   9.533  0.2538 -0.5470 -0.9060
  174SAPI   C3619787   6.051   4.184   9.398  0.5492 -0.6145 -0.3436
  174SAPI   H6X19788   6.008   4.264   9.335  0.7261 -1.2937 -1.3488
  174SAPI   H6Y19789   5.978   4.102   9.413  0.4173 -0.0407  3.0213
  174SAPI   C3719790   6.172   4.138   9.326 -0.0825  0.1063 -0.4851
  174SAPI   H7X19791   6.223   4.064   9.392  0.3716  0.1693 -0.7666
  174SAPI   H7Y19792   6.243   4.222   9.308 -0.1406  0.6835  1.6516
  174SAPI   C3819793   6.140   4.064   9.194 -0.0501  0.5729 -0.1129
  174SAPI   H8X19794   6.061   3.994   9.229 -0.1558  1.4197  1.4612
  174SAPI   H8Y19795   6.233   4.007   9.172  0.1285  1.2103 -1.0265
  174SAPI   C3919796   6.098   4.150   9.068  0.4874 -0.2139 -0.1854
  174SAPI   H9X19797   6.177   4.224   9.043 -0.8698  0.9772 -1.0822
  174SAPI   H9Y19798   6.005   4.206   9.091 -0.5115 -1.2294 -1.6466
  174SAPI  C31019799   6.070   4.070   8.946 -0.4393  0.1710 -0.1550
  174SAPI  H10X19800   5.983   4.005   8.969 -0.0796 -0.2580  0.0135
  174SAPI  H10Y19801   6.164   4.010   8.942  0.6648  1.9026 -1.8745
  174SAPI  C31119802   6.054   4.126   8.808 -0.2874  0.6248 -0.5394
  174SAPI  H11X19803   6.146   4.186   8.792  0.4743  0.3678  2.3175
  174SAPI  H11Y19804   5.963   4.190   8.803 -1.1198 -0.5158 -0.4030
  174SAPI  C31219805   6.042   4.015   8.698  0.0295  0.2550 -0.4899
  174SAPI  H12X19806   5.944   3.965   8.709  0.6432 -0.5697  1.7515
  174SAPI  H12Y19807   6.125   3.941   8.699  1.4611  1.6817 -3.2330
  174SAPI  C31319808   6.063   4.088   8.570  0.4940  0.1993 -0.3207
  174SAPI  H13X19809   6.134   4.173   8.570 -1.0723  1.5899 -1.7145
  174SAPI  H13Y19810   5.968   4.142   8.551  0.2629 -1.0012 -2.9256
  174SAPI  C31419811   6.097   3.998   8.450  0.1511  0.9197  0.1299
  174SAPI  H14X19812   6.012   3.931   8.424  0.8005  0.5666 -1.1837
  174SAPI  H14Y19813   6.192   3.945   8.476  0.7607  1.1402 -1.5233
  174SAPI  C31519814   6.119   4.076   8.320 -0.1956  0.2630  0.3791
  174SAPI  H15X19815   6.222   4.116   8.327 -0.3647  0.8246 -0.1462
  174SAPI  H15Y19816   6.060   4.171   8.322 -1.2698 -0.3818  0.3747
  174SAPI  C31619817   6.092   3.986   8.196 -0.7250  0.0315 -0.4124
  174SAPI  H16X19818   5.991   3.940   8.200 -0.5412 -0.5698 -1.9760
  174SAPI  H16Y19819   6.178   3.915   8.192  1.6671  2.4713  2.3915
  174SAPI  C31719820   6.084   4.064   8.066  0.3648 -0.0864 -0.4125
  174SAPI  H17X19821   6.183   4.107   8.041 -0.4090  3.3374  1.5873
  174SAPI  H17Y19822   6.015   4.151   8.076  0.7066  0.3209 -1.5354
  174SAPI  C31819823   6.046   3.981   7.949  0.6041 -0.0999  0.3414
  174SAPI  H18X19824   6.093   3.882   7.965 -0.5451 -0.7048  0.0960
  174SAPI  H18Y19825   6.081   4.019   7.851  1.2263 -0.0945  0.5623
  174SAPI  H18Z19826   5.935   3.976   7.944  0.6930 -2.2467 -0.6606
  175SAPI   C1219827   2.724   6.020   5.982 -0.2023 -0.0745  0.4791
  175SAPI    H219828   2.813   5.987   6.040  0.7293  1.2468 -0.1373
  175SAPI    O219829   2.609   5.950   6.032 -0.6032  0.1689  0.3653
  175SAPI   HO219830   2.607   5.877   5.969 -1.1216 -0.5230  1.1710
  175SAPI   C1319831   2.723   6.174   6.018 -0.1796 -0.0366  0.1890
  175SAPI    H319832   2.817   6.205   5.968 -0.7872  1.4282 -0.1007
  175SAPI    O319833   2.730   6.212   6.159 -0.6984 -0.2568  0.6297
  175SAPI   HO319834   2.651   6.184   6.206 -2.3197  0.0430 -1.7676
  175SAPI   C1419835   2.612   6.260   5.950 -0.1148 -0.8186  0.0199
  175SAPI    H419836   2.514   6.228   5.993 -1.2816 -1.1232 -2.6325
  175SAPI    O419837   2.631   6.402   5.957 -0.4086  0.4398 -0.3701
  175SAPI   HO419838   2.721   6.421   5.930 -0.1515  0.1257  0.2371
  175SAPI   C1519839   2.582   6.208   5.803  0.0475 -0.2742 -0.4763
  175SAPI    H519840   2.658   6.272   5.753 -0.0878 -0.7293 -1.2746
  175SAPI    O519841   2.451   6.256   5.759  0.2420 -0.4472  0.7760
  175SAPI   HO519842   2.387   6.241   5.829 -1.5124 -0.6050 -0.7529
  175SAPI   C1619843   2.612   6.068   5.763 -0.3752  0.5683 -0.6354
  175SAPI    H619844   2.528   5.997   5.777  1.6614 -2.4555 -2.4112
  175SAPI    O619845   2.636   6.063   5.622 -0.0672  0.5684  0.0431
  175SAPI   HO619846   2.726   6.046   5.592 -0.8916  1.7187 -3.6115
  175SAPI   C1119847   2.736   6.001   5.835  0.2486  0.0120  0.3001
  175SAPI    H119848   2.821   6.051   5.783 -1.4175  0.7745 -1.8332
  175SAPI     P19849   2.873   5.776   5.807  0.1292  0.1307  0.0677
  175SAPI   O1319850   2.940   5.808   5.680  0.0534  0.4672 -0.1229
  175SAPI   O1419851   2.839   5.633   5.827 -0.2581 -0.5153 -0.0352
  175SAPI   O1219852   2.731   5.861   5.815  0.1882 -0.4244 -0.4729
  175SAPI   O1119853   2.952   5.811   5.934 -0.8970  0.5144  0.1756
  175SAPI    C119854   3.001   5.713   6.033 -0.1417 -0.6266 -0.4756
  175SAPI    HA19855   3.007   5.612   5.986 -2.9818 -1.0055 -0.1995
  175SAPI    HB19856   3.102   5.745   6.065 -2.2698  3.3359  3.2070
  175SAPI    C219857   2.910   5.708   6.157  0.5180  0.2120 -0.5425
  175SAPI    HS19858   2.808   5.684   6.119  0.2432  1.5722 -0.7354
  175SAPI   O2119859   2.932   5.834   6.223 -0.1273  0.4810  0.1807
  175SAPI   C2119860   2.832   5.865   6.314 -0.0850 -0.0791  0.3326
  175SAPI   O2219861   2.727   5.805   6.318  0.1358  0.3841  0.0659
  175SAPI   C2219862   2.887   5.975   6.409  0.0035  0.4654 -0.2904
  175SAPI   H2R19863   2.922   6.064   6.352 -3.3105  1.4843 -0.9794
  175SAPI   H2S19864   2.797   6.007   6.465  0.1203 -0.5613  0.5156
  175SAPI    C319865   2.935   5.588   6.256 -0.5923  0.2777  0.1142
  175SAPI    HX19866   3.036   5.590   6.302 -1.6504 -0.8394  2.7052
  175SAPI    HY19867   2.931   5.489   6.205 -0.5625  0.5822 -0.4846
  175SAPI   O3119868   2.858   5.583   6.376  0.3148  0.0760  0.2949
  175SAPI   C3119869   2.741   5.520   6.359  0.0029  0.1754  0.3766
  175SAPI   O3219870   2.708   5.454   6.265  0.1848 -0.1808  0.5634
  175SAPI   C3219871   2.650   5.548   6.483 -0.4658  0.2420  0.5802
  175SAPI   H2X19872   2.555   5.599   6.455 -1.2673 -1.2393  0.4975
  175SAPI   H2Y19873   2.716   5.606   6.550  0.2126 -1.1415  1.1525
  175SAPI   C2319874   2.995   5.920   6.509 -0.8572  0.3679  0.2867
  175SAPI   H3R19875   3.049   6.007   6.552  0.3745 -0.1699 -0.1106
  175SAPI   H3S19876   3.064   5.871   6.437 -2.1728 -0.5863 -0.3569
  175SAPI   C2419877   2.950   5.827   6.624 -0.0684  0.0716  0.6370
  175SAPI   H4R19878   3.038   5.777   6.670 -0.2533 -1.5067 -0.6652
  175SAPI   H4S19879   2.884   5.748   6.582 -1.2447  0.1320  2.2527
  175SAPI   C2519880   2.864   5.902   6.726  0.1981 -0.1073 -0.9314
  175SAPI   H5R19881   2.765   5.940   6.700  0.2842  1.1388  0.4119
  175SAPI   C2619882   2.890   5.936   6.853 -0.2390  0.3215  0.3664
  175SAPI   H6R19883   2.815   5.994   6.908 -0.8334 -0.0028 -0.0945
  175SAPI   C2719884   3.015   5.903   6.937  0.2582  0.6160 -0.1198
  175SAPI   H7R19885   3.011   5.980   7.018 -1.5447  2.6662 -2.0275
  175SAPI   H7S19886   3.107   5.921   6.877 -1.2317  2.3603 -2.0553
  175SAPI   C2819887   3.018   5.767   6.994  0.0741 -0.0457 -0.1617
  175SAPI   H8R19888   2.996   5.691   6.917 -2.5879 -0.9933  1.3882
  175SAPI   C2919889   3.048   5.734   7.122 -0.0776 -0.2127 -0.4417
  175SAPI   H9R19890   3.051   5.631   7.160  3.8868 -0.6879 -1.6048
  175SAPI  C21019891   3.061   5.825   7.239 -0.6380 -0.1860  0.4986
  175SAPI  H10R19892   3.027   5.925   7.205 -1.3997 -0.4416  0.4846
  175SAPI  H10S19893   3.166   5.821   7.275 -0.2917  0.9659 -0.3086
  175SAPI  C21119894   2.970   5.790   7.354  0.3815  0.2776  0.4370
  175SAPI  H11R19895   2.894   5.712   7.337 -1.0324  1.8268 -0.5801
  175SAPI  C21219896   2.975   5.833   7.478 -0.4084  0.0513  0.7550
  175SAPI  H12R19897   2.908   5.791   7.555 -1.6944 -0.6576 -0.6782
  175SAPI  C21319898   3.076   5.935   7.522 -0.4739 -0.3487  0.3425
  175SAPI  H13R19899   3.134   5.976   7.437 -2.5953 -0.5547 -1.2818
  175SAPI  H13S19900   3.155   5.905   7.595  0.0995  2.2063  0.8909
  175SAPI  C21419901   3.004   6.056   7.584 -0.3079  0.5839 -0.3752
  175SAPI  H14R19902   2.998   6.145   7.518 -0.3890  0.3734 -0.6553
  175SAPI  C21519903   2.957   6.053   7.706  0.0759 -0.4408 -0.6533
  175SAPI  H15R19904   2.918   6.148   7.746  1.5289 -0.2362  0.3417
  175SAPI  C21619905   2.952   5.951   7.815  0.3377  1.2126  0.3026
  175SAPI  H16R19906   2.961   5.844   7.785  3.1688  1.1703  1.0189
  175SAPI  H16S19907   2.848   5.958   7.854 -0.4824  1.1444 -1.7492
  175SAPI  C21719908   3.043   5.979   7.930 -0.1878 -1.7921  0.8091
  175SAPI  H17R19909   3.044   6.081   7.973  0.8119 -1.5850  0.3150
  175SAPI  H17S19910   3.150   5.960   7.907  0.2919  2.0040 -0.8029
  175SAPI  C21819911   2.999   5.881   8.037 -0.0296  0.5824  0.0292
  175SAPI  H18R19912   3.001   5.780   7.990 -1.4277 -0.2553  1.6353
  175SAPI  H18S19913   2.897   5.919   8.059  0.4663  3.0778 -1.5699
  175SAPI  C21919914   3.090   5.876   8.165  0.6034  0.6112 -0.0390
  175SAPI  H19R19915   3.198   5.854   8.151  0.6540  1.2320 -0.6951
  175SAPI  H19S19916   3.060   5.796   8.236 -1.0205  0.2826 -1.0447
  175SAPI  C22019917   3.093   6.011   8.240 -0.0589  0.1610 -0.1677
  175SAPI  H20R19918   2.998   6.059   8.269 -1.0650  0.4006 -3.4304
  175SAPI  H20S19919   3.148   6.096   8.195  0.5443  0.5849  1.3261
  175SAPI  H20T19920   3.151   5.990   8.332 -0.1538  0.6978  0.0161
  175SAPI   C3319921   2.611   5.414   6.546 -0.1180  0.6367 -0.3984
  175SAPI   H3X19922   2.699   5.350   6.570 -1.2719 -0.9198 -0.1205
  175SAPI   H3Y19923   2.547   5.349   6.482  1.2944 -0.8797 -0.3361
  175SAPI   C3419924   2.539   5.439   6.678 -0.6811  0.0002 -0.0563
  175SAPI   H4X19925   2.482   5.348   6.708  0.1969 -0.8650 -0.9329
  175SAPI   H4Y19926   2.458   5.514   6.662 -1.3033 -0.8177 -0.8408
  175SAPI   C3519927   2.639   5.474   6.785  0.5131 -0.2401  0.1636
  175SAPI   H5X19928   2.708   5.560   6.769  2.6328 -1.9987 -0.7240
  175SAPI   H5Y19929   2.709   5.391   6.807  0.7533 -0.2340 -0.5337
  175SAPI   C3619930   2.560   5.484   6.923  0.6947  0.1724 -0.0112
  175SAPI   H6X19931   2.527   5.384   6.959 -1.3917  1.0859  0.7178
  175SAPI   H6Y19932   2.475   5.553   6.906  0.9149  0.8633  1.4778
  175SAPI   C3719933   2.639   5.552   7.031 -0.3201  0.2299 -0.0969
  175SAPI   H7X19934   2.677   5.651   6.997 -2.1457  1.6831  1.8210
  175SAPI   H7Y19935   2.724   5.491   7.069 -2.4145 -2.8941 -0.0757
  175SAPI   C3819936   2.542   5.582   7.142 -0.0018  0.9115  0.2085
  175SAPI   H8X19937   2.504   5.487   7.185  0.7629  0.6540  0.3317
  175SAPI   H8Y19938   2.453   5.641   7.112 -0.8806 -0.6126 -0.2826
  175SAPI   C3919939   2.612   5.651   7.262 -0.1103  0.0329  0.8197
  175SAPI   H9X19940   2.672   5.736   7.221  0.0962 -0.1034  0.8364
  175SAPI   H9Y19941   2.687   5.576   7.295 -1.0292 -0.8629  0.8772
  175SAPI  C31019942   2.520   5.702   7.370 -0.1206 -0.5423 -0.5309
  175SAPI  H10X19943   2.454   5.616   7.396  1.9866 -1.3511  2.9118
  175SAPI  H10Y19944   2.457   5.781   7.323 -0.4490 -0.3197  0.2528
  175SAPI  C31119945   2.589   5.755   7.500  0.9969 -0.8216  0.6274
  175SAPI  H11X19946   2.654   5.843   7.482  1.9556 -0.7953  3.6319
  175SAPI  H11Y19947   2.649   5.668   7.534 -0.0637 -2.7434 -2.0695
  175SAPI  C31219948   2.489   5.792   7.609  0.4753 -0.0963 -0.1662
  175SAPI  H12X19949   2.424   5.706   7.636  0.7145 -0.1223  0.3326
  175SAPI  H12Y19950   2.429   5.866   7.552  1.7144  0.0612 -1.3089
  175SAPI  C31319951   2.555   5.865   7.733 -0.7343  0.2117 -0.4385
  175SAPI  H13X19952   2.605   5.958   7.695 -1.8061  0.4572 -1.3044
  175SAPI  H13Y19953   2.642   5.804   7.764 -1.7277 -1.0959 -0.1421
  175SAPI  C31419954   2.454   5.899   7.849 -0.2285 -0.0847  0.1298
  175SAPI  H14X19955   2.365   5.943   7.799  0.3719  2.3101  1.0376
  175SAPI  H14Y19956   2.501   5.969   7.923  0.6267 -0.8253  0.3075
  175SAPI  C31519957   2.418   5.770   7.926 -0.3956  0.9624 -0.1183
  175SAPI  H15X19958   2.499   5.740   7.995 -0.4016  3.2874  0.9876
  175SAPI  H15Y19959   2.405   5.695   7.845 -0.7661 -1.3406  1.9788
  175SAPI  C31619960   2.299   5.781   8.025  0.1294  0.4048  0.4267
  175SAPI  H16X19961   2.202   5.798   7.974  0.2778  1.4761  0.4772
  175SAPI  H16Y19962   2.321   5.869   8.089  0.7101  0.4236  0.2086
  175SAPI  C31719963   2.290   5.658   8.122  0.7613 -0.3871  0.6911
  175SAPI  H17X19964   2.212   5.671   8.200  0.0036  0.9222 -0.2449
  175SAPI  H17Y19965   2.387   5.646   8.175  0.5184 -1.1263  0.9801
  175SAPI  C31819966   2.258   5.532   8.051 -0.1799 -0.0941  0.4895
  175SAPI  H18X19967   2.190   5.574   7.974 -0.0221  1.9101  1.3869
  175SAPI  H18Y19968   2.218   5.448   8.112  0.0200 -1.9789 -1.8043
  175SAPI  H18Z19969   2.341   5.498   7.985 -0.1436  2.0722 -0.6499
  176SAPI   C1219970   2.854   3.174   5.922  0.0153  0.3078  0.5843
  176SAPI    H219971   2.841   3.065   5.938 -2.3672  0.2169 -1.3334
  176SAPI    O219972   2.982   3.203   5.856  0.1515 -0.2854  0.0170
  176SAPI   HO219973   3.063   3.188   5.906  1.1877 -0.2306 -1.5722
  176SAPI   C1319974   2.730   3.215   5.839 -0.3027 -0.2091  0.1284
  176SAPI    H319975   2.637   3.196   5.896 -0.3920  0.5326  0.2383
  176SAPI    O319976   2.730   3.136   5.719 -0.2627  0.4157  0.4852
  176SAPI   HO319977   2.672   3.060   5.734 -2.7485  1.6714 -1.7909
  176SAPI   C1419978   2.732   3.359   5.800 -0.0138  0.5757 -0.6854
  176SAPI    H419979   2.823   3.375   5.737  0.5763 -1.4432 -0.4243
  176SAPI    O419980   2.614   3.388   5.728  0.1488  0.3263  0.4619
  176SAPI   HO419981   2.541   3.341   5.768 -0.3161  0.5041 -0.1558
  176SAPI   C1519982   2.750   3.446   5.921 -0.7426 -0.4198 -0.3006
  176SAPI    H519983   2.647   3.455   5.962 -1.1059 -1.2493 -0.9953
  176SAPI    O519984   2.787   3.581   5.885 -1.0890 -0.8354  0.1965
  176SAPI   HO519985   2.875   3.573   5.848 -0.5011 -1.3980  1.6301
  176SAPI   C1619986   2.829   3.393   6.041 -0.1525 -0.5268  0.6557
  176SAPI    H619987   2.928   3.439   6.023 -0.7493  0.8345  0.6518
  176SAPI    O619988   2.788   3.443   6.160  0.1167 -0.3314  0.0617
  176SAPI   HO619989   2.866   3.450   6.214 -0.3639  1.9630  0.5583
  176SAPI   C1119990   2.856   3.244   6.052  0.1861 -0.5107 -0.4781
  176SAPI    H119991   2.757   3.207   6.088  1.3565 -5.7111 -1.6821
  176SAPI     P19992   2.959   3.073   6.246 -0.5160 -0.3606  0.0172
  176SAPI   O1319993   3.097   3.057   6.290  0.0670 -0.4032 -0.1757
  176SAPI   O1419994   2.899   2.960   6.176  0.0206 -0.0661  0.2175
  176SAPI   O1219995   2.958   3.203   6.143 -0.5175 -0.1182  0.4311
  176SAPI   O1119996   2.870   3.120   6.372  0.4308  0.5705  0.0529
  176SAPI    C119997   2.892   3.243   6.437  0.4239  0.0956 -0.2711
  176SAPI    HA19998   2.977   3.294   6.387  0.0105  0.8831 -0.1770
  176SAPI    HB19999   2.803   3.304   6.414 -0.7904 -1.1244  1.0198
  176SAPI    C220000   2.911   3.233   6.593 -0.0463 -0.0566 -0.3658
  176SAPI    HS20001   2.941   3.335   6.626 -2.0204  0.8010 -1.0387
  176SAPI   O2120002   3.007   3.122   6.623 -0.2043  0.3415  0.4545
  176SAPI   C2120003   3.130   3.150   6.579 -0.0512 -0.1876 -0.1906
  176SAPI   O2220004   3.167   3.261   6.544 -0.3615  0.6402 -0.2610
  176SAPI   C2220005   3.211   3.017   6.578  0.7097  0.5038 -0.3547
  176SAPI   H2R20006   3.195   2.954   6.668  1.0843  1.4834  0.4233
  176SAPI   H2S20007   3.176   2.951   6.496  0.7411  0.9037 -0.6891
  176SAPI    C320008   2.776   3.188   6.658 -0.2718 -0.3902 -0.5606
  176SAPI    HX20009   2.750   3.091   6.611  0.3707 -0.3675 -0.9690
  176SAPI    HY20010   2.698   3.265   6.639  0.1422  0.3970  0.7886
  176SAPI   O3120011   2.786   3.168   6.803 -0.4405  0.4231 -0.6145
  176SAPI   C3120012   2.764   3.267   6.880  0.5701  0.0426  0.8821
  176SAPI   O3220013   2.733   3.384   6.844  0.6066  0.2101 -0.4153
  176SAPI   C3220014   2.764   3.214   7.020 -0.6250 -0.1506 -0.7836
  176SAPI   H2X20015   2.825   3.120   7.023  1.7423  1.2825 -1.0185
  176SAPI   H2Y20016   2.661   3.196   7.057 -1.0111  3.0004 -0.0508
  176SAPI   C2320017   3.366   3.039   6.555 -0.1581  0.2417 -0.5002
  176SAPI   H3R20018   3.375   3.114   6.473  1.9831 -0.7900 -1.2868
  176SAPI   H3S20019   3.409   2.945   6.514  0.1546 -0.1257  0.6576
  176SAPI   C2420020   3.445   3.069   6.687 -0.4397  0.2967  0.2590
  176SAPI   H4R20021   3.555   3.074   6.672 -0.0191  0.1328  2.7789
  176SAPI   H4S20022   3.442   2.991   6.766  0.0873 -0.2972 -0.2935
  176SAPI   C2520023   3.401   3.198   6.751  0.8281  0.0545 -0.8304
  176SAPI   H5R20024   3.352   3.273   6.688 -0.0537  0.8091  0.6915
  176SAPI   C2620025   3.422   3.241   6.876  0.1120 -0.0941 -0.1401
  176SAPI   H6R20026   3.380   3.334   6.916  0.8080  0.0968  0.1730
  176SAPI   C2720027   3.507   3.174   6.974 -0.1084  0.1752  0.1267
  176SAPI   H7R20028   3.559   3.252   7.033 -0.3974  0.8270 -0.4611
  176SAPI   H7S20029   3.593   3.127   6.921  0.0472  0.2306  0.3309
  176SAPI   C2820030   3.408   3.084   7.050  0.3016  0.5194  0.5512
  176SAPI   H8R20031   3.377   2.987   7.010  0.7479  0.3064  0.7080
  176SAPI   C2920032   3.375   3.107   7.178 -0.6223 -0.9263 -0.7812
  176SAPI   H9R20033   3.314   3.037   7.237  1.1243 -0.8676  1.2147
  176SAPI  C21020034   3.416   3.225   7.262 -0.8440  0.4588 -0.1803
  176SAPI  H10R20035   3.519   3.253   7.233 -0.7709 -0.2753 -0.6661
  176SAPI  H10S20036   3.420   3.196   7.370 -3.2070 -0.7353 -0.3333
  176SAPI  C21120037   3.329   3.348   7.241 -0.1536 -0.4283 -0.4566
  176SAPI  H11R20038   3.273   3.361   7.147 -1.3253  0.0161  0.2761
  176SAPI  C21220039   3.305   3.441   7.338 -0.3637  0.2685  0.3135
  176SAPI  H12R20040   3.230   3.519   7.318  0.3213  0.5650 -1.2326
  176SAPI  C21320041   3.365   3.451   7.478  0.3282  0.3380 -0.2862
  176SAPI  H13R20042   3.375   3.347   7.516 -0.2593 -0.1905 -1.5246
  176SAPI  H13S20043   3.290   3.508   7.536 -1.4634 -0.8937 -1.2643
  176SAPI  C21420044   3.497   3.514   7.469  0.1901  0.4844  0.7329
  176SAPI  H14R20045   3.572   3.451   7.419 -0.9369 -0.4021  0.1125
  176SAPI  C21520046   3.533   3.626   7.536 -0.5501 -0.0740  0.2286
  176SAPI  H15R20047   3.638   3.657   7.541 -0.8990  1.0965  0.7577
  176SAPI  C21620048   3.447   3.716   7.605 -0.4508 -1.0416 -0.5188
  176SAPI  H16R20049   3.377   3.657   7.668  1.5296 -0.4471  2.4291
  176SAPI  H16S20050   3.391   3.781   7.534  1.3220 -1.6670 -2.5784
  176SAPI  C21720051   3.545   3.794   7.700  0.3344  0.4808  0.2921
  176SAPI  H17R20052   3.631   3.842   7.649 -0.0125 -0.4476 -1.2308
  176SAPI  H17S20053   3.590   3.713   7.761  0.4278 -0.4591 -0.9809
  176SAPI  C21820054   3.470   3.893   7.790  0.5334 -0.0210 -1.0647
  176SAPI  H18R20055   3.382   3.846   7.839  1.6189 -0.3642  0.6806
  176SAPI  H18S20056   3.423   3.969   7.725 -0.3586  1.6019  1.3112
  176SAPI  C21920057   3.560   3.954   7.893 -0.0504 -0.2815  0.5217
  176SAPI  H19R20058   3.646   3.994   7.836  0.4147 -0.4222  1.1153
  176SAPI  H19S20059   3.592   3.880   7.969  0.9554 -2.3151 -1.7668
  176SAPI  C22020060   3.496   4.077   7.961  0.2579 -0.0236  0.4832
  176SAPI  H20R20061   3.557   4.115   8.045 -3.0117  1.5047  2.3842
  176SAPI  H20S20062   3.392   4.051   7.991 -0.2178 -0.4621 -1.3993
  176SAPI  H20T20063   3.474   4.157   7.887 -1.5453  1.7691  2.8035
  176SAPI   C3320064   2.826   3.321   7.113 -0.1647 -0.2941  0.4777
  176SAPI   H3X20065   2.788   3.422   7.086  0.1539 -0.2063  0.3599
  176SAPI   H3Y20066   2.936   3.328   7.102  0.3319 -3.4422  2.1573
  176SAPI   C3420067   2.802   3.285   7.259 -0.3576 -0.3977 -0.4586
  176SAPI   H4X20068   2.839   3.183   7.281 -1.2110 -0.3497  1.3142
  176SAPI   H4Y20069   2.694   3.294   7.284  0.0555  0.1344  1.2613
  176SAPI   C3520070   2.873   3.390   7.344  0.1885  0.7963  0.4406
  176SAPI   H5X20071   2.816   3.486   7.343 -0.1390  0.6428 -2.0540
  176SAPI   H5Y20072   2.973   3.413   7.303  0.2538  2.1396  1.2792
  176SAPI   C3620073   2.920   3.341   7.486  0.4703 -0.8359  0.7477
  176SAPI   H6X20074   3.020   3.382   7.512  0.7845 -1.1179  0.0130
  176SAPI   H6Y20075   2.937   3.232   7.472  0.6302 -0.7081 -0.0549
  176SAPI   C3720076   2.830   3.368   7.603 -0.3432  0.4414 -0.1232
  176SAPI   H7X20077   2.729   3.324   7.591 -0.7680  1.6891 -1.3648
  176SAPI   H7Y20078   2.823   3.477   7.626  1.9142  0.5387  0.4034
  176SAPI   C3820079   2.879   3.291   7.731  0.7261  0.4710  0.5744
  176SAPI   H8X20080   2.882   3.186   7.695  0.0320  0.5305  0.3184
  176SAPI   H8Y20081   2.799   3.299   7.808  1.5408 -0.4939  1.5522
  176SAPI   C3920082   3.012   3.338   7.789 -0.9777  0.4848  0.6911
  176SAPI   H9X20083   3.091   3.348   7.711 -2.2946  0.6344 -0.6682
  176SAPI   H9Y20084   3.050   3.257   7.855 -2.9227 -1.0958 -0.0175
  176SAPI  C31020085   2.985   3.471   7.869 -0.8356  0.0189 -1.0952
  176SAPI  H10X20086   2.916   3.449   7.953 -2.1091 -1.1992 -2.3904
  176SAPI  H10Y20087   2.940   3.535   7.791  1.1876  0.7095 -1.7662
  176SAPI  C31120088   3.110   3.529   7.936  0.1106 -0.0215  0.5922
  176SAPI  H11X20089   3.193   3.536   7.862 -0.8267 -0.9124 -0.5769
  176SAPI  H11Y20090   3.143   3.449   8.006  2.5804  0.0632 -0.4002
  176SAPI  C31220091   3.087   3.666   8.008 -0.4704 -0.4762 -1.0275
  176SAPI  H12X20092   2.985   3.687   8.046  0.2322  2.6958 -0.6258
  176SAPI  H12Y20093   3.109   3.740   7.928  0.3883  0.6101  0.1813
  176SAPI  C31320094   3.186   3.676   8.135  0.0748  0.2779 -0.7396
  176SAPI  H13X20095   3.285   3.643   8.096  0.2963 -0.3389  0.3257
  176SAPI  H13Y20096   3.151   3.616   8.221 -1.4234 -0.6761 -1.9628
  176SAPI  C31420097   3.189   3.819   8.176  0.5808 -0.1627 -0.7863
  176SAPI  H14X20098   3.085   3.856   8.193  2.4975  6.1338 -0.0484
  176SAPI  H14Y20099   3.232   3.882   8.095  1.1647 -0.7573 -0.9371
  176SAPI  C31520100   3.283   3.843   8.300 -0.7275  0.2531  0.3468
  176SAPI  H15X20101   3.384   3.803   8.277 -1.0613 -0.3723 -0.0691
  176SAPI  H15Y20102   3.245   3.786   8.387  1.2404 -2.1209 -0.2298
  176SAPI  C31620103   3.293   3.991   8.328  0.1193  0.4741  0.3082
  176SAPI  H16X20104   3.199   4.041   8.358  0.0020  0.5788 -0.2248
  176SAPI  H16Y20105   3.333   4.036   8.235  0.5144  1.4347  0.9299
  176SAPI  C31720106   3.400   4.041   8.426  0.1473  0.1248 -0.8424
  176SAPI  H17X20107   3.501   4.014   8.390  0.1898 -1.0519  0.0994
  176SAPI  H17Y20108   3.372   3.997   8.524  0.3657 -0.5235 -1.0688
  176SAPI  C31820109   3.377   4.197   8.440 -0.0257  0.2910 -0.2426
  176SAPI  H18X20110   3.355   4.245   8.342 -0.5593 -1.5286 -1.0641
  176SAPI  H18Y20111   3.468   4.243   8.483  0.7598 -1.7121  0.3534
  176SAPI  H18Z20112   3.303   4.220   8.520  0.3181  0.2489  0.0896
  177SLPC     N20113   1.462   5.427  10.841 -0.0349  0.0694 -0.6944
  177SLPC   C1320114   1.464   5.572  10.853  0.3145  0.3846 -0.0195
  177SLPC  H13A20115   1.452   5.600  10.956  0.3192 -0.0831  0.1118
  177SLPC  H13B20116   1.556   5.622  10.828 -0.6046  1.6354 -1.0551
  177SLPC  H13C20117   1.373   5.605  10.805 -0.4955 -3.4805 -1.5210
  177SLPC   C1420118   1.561   5.360  10.935 -0.2644  0.4455 -0.3095
  177SLPC  H14A20119   1.663   5.363  10.901  1.0984 -1.3363  3.1003
  177SLPC  H14B20120   1.573   5.399  11.035  1.3887  1.6263 -0.9374
  177SLPC  H14C20121   1.536   5.255  10.945 -1.4690  0.8505  1.3676
  177SLPC   C1520122   1.490   5.394  10.694  0.0144  0.7366  0.3927
  177SLPC  H15A20123   1.579   5.446  10.660 -1.9809  3.5896 -0.9469
  177SLPC  H15B20124   1.502   5.288  10.679 -0.3167  0.7210  0.2079
  177SLPC  H15C20125   1.405   5.428  10.635  0.8842  0.8323 -0.8460
  177SLPC   C1220126   1.321   5.377  10.881  0.1696 -0.0657  0.2754
  177SLPC  H12A20127   1.295   5.424  10.975  1.1409  1.9427 -0.4134
  177SLPC  H12B20128   1.313   5.270  10.895 -0.5242 -0.2593 -1.4424
  177SLPC   C1120129   1.206   5.411  10.783 -0.5315  0.1133 -0.5009
  177SLPC  H11A20130   1.110   5.388  10.833  0.5933  1.8890  2.7778
  177SLPC  H11B20131   1.210   5.341  10.697  0.1676  0.1094 -0.4734
  177SLPC     P20132   1.138   5.584  10.599  0.2085  0.4623 -0.1088
  177SLPC   O1320133   1.006   5.515  10.577 -0.3366  0.6261  0.3627
  177SLPC   O1420134   1.145   5.734  10.587  0.0642  0.5610 -0.1905
  177SLPC   O1220135   1.202   5.548  10.739 -0.3122  0.1529 -0.6246
  177SLPC   O1120136   1.241   5.528  10.492  0.0572 -0.4025 -0.1544
  177SLPC    C120137   1.373   5.589  10.491  0.3773 -0.6850  0.4927
  177SLPC    HA20138   1.413   5.634  10.585  1.1615  0.6794 -0.4620
  177SLPC    HB20139   1.448   5.515  10.455  1.1785  0.9300 -1.3095
  177SLPC    C220140   1.387   5.706  10.388 -0.4555  0.8561  1.1346
  177SLPC    HS20141   1.349   5.801  10.431  0.7893  1.8460  0.1413
  177SLPC   O2120142   1.333   5.672  10.258 -0.3754  0.0609  0.0880
  177SLPC   C2120143   1.261   5.771  10.209 -0.7041 -0.0755  0.9388
  177SLPC   O2220144   1.238   5.879  10.252 -0.5602 -0.0045 -0.1289
  177SLPC   C2220145   1.198   5.716  10.081  0.1001  0.6200  0.0408
  177SLPC   H2R20146   1.284   5.699  10.013  1.2503 -2.9250  2.1155
  177SLPC   H2S20147   1.159   5.614  10.102  1.1047 -0.1036 -1.4535
  177SLPC    C320148   1.538   5.740  10.369 -0.2791 -0.1975 -0.1560
  177SLPC    HX20149   1.585   5.642  10.346 -0.5445 -0.3774  0.0673
  177SLPC    HY20150   1.584   5.766  10.467  1.0197  0.1026 -0.8231
  177SLPC   O3120151   1.564   5.834  10.264  0.2782 -0.2012 -0.2830
  177SLPC   C3120152   1.548   5.963  10.304 -0.8290 -0.4903 -0.4033
  177SLPC   O3220153   1.500   5.994  10.413  0.2526  0.0258  0.7316
  177SLPC   C3220154   1.593   6.056  10.195  0.2628 -0.0858  0.3220
  177SLPC   H2X20155   1.687   6.110  10.220  0.8823 -1.4234  0.9887
  177SLPC   H2Y20156   1.511   6.130  10.180 -1.4119 -2.0698 -0.8562
  177SLPC   C2320157   1.092   5.821  10.030 -0.1083 -0.0074  0.7673
  177SLPC   H3R20158   1.142   5.920  10.024  0.4800 -0.2355  1.6450
  177SLPC   H3S20159   1.012   5.833  10.107  0.7814  2.1235  1.4465
  177SLPC   C2420160   1.038   5.800   9.891  0.5438 -0.9673  0.0719
  177SLPC   H4R20161   0.981   5.706   9.882  0.7177 -1.1265  0.6038
  177SLPC   H4S20162   1.127   5.789   9.825 -1.2440 -1.8543 -2.3209
  177SLPC   C2520163   0.957   5.914   9.833  0.0487 -0.2073  0.3264
  177SLPC   H5R20164   1.034   5.990   9.809  1.3757 -1.8455 -0.8426
  177SLPC   H5S20165   0.884   5.961   9.903  1.4923  0.3587  1.5004
  177SLPC   C2620166   0.893   5.878   9.700 -0.2111  0.2242 -0.4789
  177SLPC   H6R20167   0.859   5.964   9.639 -0.0531  0.2327 -0.5551
  177SLPC   H6S20168   0.808   5.812   9.731  0.2393 -0.0557  0.1899
  177SLPC   C2720169   0.993   5.807   9.606  0.0734 -0.4954 -0.4304
  177SLPC   H7R20170   1.047   5.724   9.657 -1.7686 -1.4067  0.1218
  177SLPC   H7S20171   1.071   5.881   9.576  1.0218 -1.2711  0.0400
  177SLPC   C2820172   0.926   5.765   9.475 -0.0981 -0.2168  0.1358
  177SLPC   H8R20173   0.868   5.847   9.426  0.2911 -1.3232 -2.3140
  177SLPC   H8S20174   0.857   5.687   9.515  2.1649 -2.6066 -0.4089
  177SLPC   C2920175   1.025   5.698   9.379 -0.7426  0.8016 -0.5536
  177SLPC   H9R20176   1.021   5.588   9.387 -1.9959  0.9072  0.5800
  177SLPC  C21020177   1.077   5.756   9.265  0.9253  0.3345 -0.2536
  177SLPC  H10R20178   1.163   5.705   9.219  1.1048  0.5758 -0.1854
  177SLPC  C21120179   1.058   5.899   9.218 -0.3084 -0.4305 -0.4971
  177SLPC  H11R20180   1.041   5.959   9.310  0.6157 -0.7220 -0.1283
  177SLPC  H11S20181   1.154   5.932   9.172  0.3829 -1.3746  0.2378
  177SLPC  C21220182   0.939   5.907   9.131  0.5484  1.4133 -0.0621
  177SLPC  H12R20183   0.843   5.914   9.184 -0.4177  0.1733 -1.5514
  177SLPC  C21320184   0.933   5.911   8.993 -0.2278 -0.1437 -0.5167
  177SLPC  H13R20185   0.839   5.914   8.936 -0.5454 -1.0264 -0.0645
  177SLPC  C21420186   1.054   5.917   8.899 -0.4534  0.1080  0.0279
  177SLPC  H14R20187   1.146   5.933   8.959  0.1479  1.7634 -1.2450
  177SLPC  H14S20188   1.049   6.005   8.831  2.5221 -1.0543 -1.9361
  177SLPC  C21520189   1.071   5.800   8.794  0.8083  0.7471  0.2075
  177SLPC  H15R20190   1.104   5.703   8.837 -1.4945 -0.0093  0.4233
  177SLPC  H15S20191   1.142   5.827   8.712 -0.8715 -0.2113 -1.6412
  177SLPC  C21620192   0.949   5.762   8.718  1.0023 -0.1240  0.5066
  177SLPC  H16R20193   0.906   5.857   8.681  1.1311 -0.9281 -1.9452
  177SLPC  H16S20194   0.876   5.705   8.779 -0.1024 -0.0810 -0.7308
  177SLPC  C21720195   0.972   5.659   8.597  0.4264 -0.3930 -0.1297
  177SLPC  H17R20196   1.063   5.686   8.538  0.1029 -0.0622 -0.4775
  177SLPC  H17S20197   0.887   5.685   8.530 -1.4961  0.7432  2.5686
  177SLPC  C21820198   0.978   5.510   8.641  0.0281 -0.0552 -0.4595
  177SLPC  H18R20199   1.043   5.495   8.730 -0.5478  1.3343  0.2172
  177SLPC  H18S20200   1.016   5.447   8.558 -1.2281 -0.5112 -0.7015
  177SLPC  H18T20201   0.878   5.479   8.676  0.3933 -1.3333 -0.5002
  177SLPC   C3320202   1.634   6.004  10.057 -0.5279 -0.5248 -0.4396
  177SLPC   H3X20203   1.727   5.944  10.056 -1.4429 -2.0043 -1.0287
  177SLPC   H3Y20204   1.660   6.088   9.990 -0.1015 -0.6552 -0.4369
  177SLPC   C3420205   1.527   5.931   9.975  0.2470 -0.4695  0.2052
  177SLPC   H4X20206   1.437   5.995   9.961 -0.6412 -1.9995 -1.5229
  177SLPC   H4Y20207   1.496   5.837  10.025  0.6690 -0.7848 -0.1216
  177SLPC   C3520208   1.565   5.890   9.835 -0.3045  0.1822  0.3536
  177SLPC   H5X20209   1.640   5.808   9.844  0.8672  0.9070 -1.9637
  177SLPC   H5Y20210   1.616   5.978   9.790  1.2861  0.4360  2.5198
  177SLPC   C3620211   1.440   5.840   9.758  0.2708 -0.2198 -0.0742
  177SLPC   H6X20212   1.351   5.907   9.766 -0.3088 -0.6973 -1.9221
  177SLPC   H6Y20213   1.418   5.743   9.806  3.0104  0.0364  1.9562
  177SLPC   C3720214   1.475   5.828   9.607 -0.0544 -0.0163 -1.1990
  177SLPC   H7X20215   1.566   5.767   9.587  0.1551  0.6102 -2.2313
  177SLPC   H7Y20216   1.498   5.929   9.566  0.1734  1.1719  1.6058
  177SLPC   C3820217   1.368   5.754   9.523 -0.2791  0.0927 -0.2973
  177SLPC   H8X20218   1.280   5.818   9.503 -0.7328 -0.4371 -0.0310
  177SLPC   H8Y20219   1.334   5.671   9.588  1.7973 -1.8395 -1.4965
  177SLPC   C3920220   1.422   5.691   9.395  0.8900  0.0453 -0.2306
  177SLPC   H9X20221   1.340   5.628   9.354 -0.6410 -0.8304  3.6938
  177SLPC   H9Y20222   1.505   5.626   9.430  0.9353  0.1073 -0.2215
  177SLPC  C31020223   1.463   5.798   9.290  0.5295  0.1760  0.1398
  177SLPC  H10X20224   1.572   5.819   9.290  0.4390  0.6580 -0.1310
  177SLPC  H10Y20225   1.404   5.891   9.303  1.8869  1.2795 -1.1692
  177SLPC  C31120226   1.444   5.747   9.143 -0.4371  0.0430  0.1489
  177SLPC  H11X20227   1.335   5.733   9.133 -0.5103 -0.2158  1.2362
  177SLPC  H11Y20228   1.500   5.652   9.135  0.7619  0.7863 -0.6357
  177SLPC  C31220229   1.498   5.853   9.038 -0.5913  0.6253  0.3809
  177SLPC  H12X20230   1.607   5.855   9.061 -0.3230  0.5502 -0.8466
  177SLPC  H12Y20231   1.462   5.956   9.063 -0.1190  0.4747  1.7877
  177SLPC  C31320232   1.470   5.800   8.895  0.3459 -0.0652  0.4460
  177SLPC  H13X20233   1.361   5.780   8.902 -0.0879  1.2032 -1.8069
  177SLPC  H13Y20234   1.520   5.702   8.879 -2.0494 -1.1001 -1.2479
  177SLPC  C31420235   1.484   5.893   8.775 -0.4541 -0.0177 -0.6647
  177SLPC  H14X20236   1.589   5.931   8.776 -0.8042  0.9848  0.1463
  177SLPC  H14Y20237   1.416   5.980   8.786 -0.8555 -0.2635 -1.1868
  177SLPC  C31520238   1.445   5.816   8.647  0.1014 -0.5719 -0.0384
  177SLPC  H15X20239   1.342   5.773   8.648 -0.1255 -0.1634 -1.9282
  177SLPC  H15Y20240   1.502   5.723   8.666 -1.7842 -1.3129  2.6561
  177SLPC  C31620241   1.459   5.899   8.519 -0.2623 -0.2059 -0.2094
  177SLPC  H16X20242   1.559   5.946   8.518 -1.1596  1.8233  0.4237
  177SLPC  H16Y20243   1.394   5.989   8.525 -0.3655 -0.3182  0.4496
  177SLPC  C31720244   1.423   5.833   8.387  0.3002 -0.3972  0.0569
  177SLPC  H17X20245   1.316   5.804   8.401 -1.0775  2.9187 -2.2506
  177SLPC  H17Y20246   1.486   5.744   8.367  1.8093  0.8334 -0.7820
  177SLPC  C31820247   1.427   5.921   8.256  0.2233  0.3191  0.7204
  177SLPC  H18X20248   1.391   5.863   8.169  0.0739  1.1007  0.2477
  177SLPC  H18Y20249   1.527   5.969   8.243 -0.3500  1.5091  0.5396
  177SLPC  H18Z20250   1.363   6.012   8.260 -1.6615 -0.9688  0.7909
  178SLPC     N20251   3.064   6.416  11.163 -0.7194  0.2105 -0.5559
  178SLPC   C1320252   3.041   6.555  11.209 -0.5154 -0.9073 -0.0794
  178SLPC  H13A20253   3.056   6.568  11.315  0.2461 -1.7407 -0.0739
  178SLPC  H13B20254   3.110   6.612  11.148 -0.1640 -3.2410 -2.0164
  178SLPC  H13C20255   2.944   6.597  11.184 -0.6350  0.0220  1.7854
  178SLPC   C1420256   2.939   6.330  11.184  0.2439 -0.5108 -0.5269
  178SLPC  H14A20257   2.853   6.364  11.128 -1.1605 -2.5223  0.2950
  178SLPC  H14B20258   2.953   6.225  11.162  1.7610 -0.3369 -0.5133
  178SLPC  H14C20259   2.921   6.329  11.290  0.6227  1.4610 -0.4166
  178SLPC   C1520260   3.178   6.341  11.234  0.1018  0.0893 -0.6795
  178SLPC  H15A20261   3.182   6.236  11.211 -0.7819 -0.0727 -0.1463
  178SLPC  H15B20262   3.276   6.380  11.210 -1.3269  3.8514 -1.1819
  178SLPC  H15C20263   3.170   6.341  11.342 -1.7844  0.8364 -0.7850
  178SLPC   C1220264   3.097   6.417  11.014  0.1574 -0.2362 -0.0715
  178SLPC  H12A20265   3.019   6.470  10.961  0.8356  2.2821  1.2485
  178SLPC  H12B20266   3.085   6.313  10.988 -2.6999 -1.1488  3.8733
  178SLPC   C1120267   3.226   6.495  10.963 -0.3753  0.2129 -0.0770
  178SLPC  H11A20268   3.229   6.477  10.853 -1.6236  2.2760 -0.5015
  178SLPC  H11B20269   3.316   6.459  11.017 -0.5105  1.8936  1.3647
  178SLPC     P20270   3.187   6.738  10.896 -0.1310 -0.3641  0.3458
  178SLPC   O1320271   3.040   6.741  10.864  0.6774 -0.6762  0.1459
  178SLPC   O1420272   3.238   6.862  10.959  0.0161 -0.0445  1.1161
  178SLPC   O1220273   3.212   6.629  11.002  0.2111  0.4142 -0.0553
  178SLPC   O1120274   3.261   6.706  10.765 -0.5189 -0.2713  0.2570
  178SLPC    C120275   3.216   6.779  10.652 -0.4439 -0.2185  0.1278
  178SLPC    HA20276   3.226   6.714  10.562  0.6130  0.6030 -0.3692
  178SLPC    HB20277   3.109   6.808  10.658 -0.0374  1.7934 -1.2638
  178SLPC    C220278   3.289   6.915  10.636  0.2449  0.9357 -0.3787
  178SLPC    HS20279   3.280   6.964  10.736 -3.3157 -1.4796  0.6547
  178SLPC   O2120280   3.213   6.982  10.526  0.1544  0.3562 -0.1614
  178SLPC   C2120281   3.225   7.119  10.521 -0.5859  0.2748  0.3869
  178SLPC   O2220282   3.297   7.177  10.595 -0.0821  0.1179  0.5200
  178SLPC   C2220283   3.153   7.179  10.404 -0.7672  0.5690 -0.5843
  178SLPC   H2R20284   3.047   7.183  10.437 -1.6531  3.1080 -3.3384
  178SLPC   H2S20285   3.182   7.285  10.389  2.4742 -0.0260  0.7525
  178SLPC    C320286   3.439   6.899  10.595 -0.5099  0.1949 -0.0950
  178SLPC    HX20287   3.483   6.868  10.692  0.9905  0.5649 -0.6164
  178SLPC    HY20288   3.467   7.006  10.577 -0.6263  0.4435  1.1283
  178SLPC   O3120289   3.468   6.810  10.490  0.2676 -0.3769  0.4616
  178SLPC   C3120290   3.494   6.866  10.368 -0.5899  0.1275  0.2084
  178SLPC   O3220291   3.483   6.980  10.331 -0.4237  0.3144 -0.0320
  178SLPC   C3220292   3.535   6.741  10.281  0.3537 -0.1271  0.8035
  178SLPC   H2X20293   3.452   6.667  10.285 -1.7377  1.9653 -0.9627
  178SLPC   H2Y20294   3.630   6.699  10.322 -0.2783 -0.8340  1.5769
  178SLPC   C2320295   3.169   7.104  10.270  0.4274  0.5574 -0.1570
  178SLPC   H3R20296   3.155   6.994  10.276  0.5096  0.3732 -2.3647
  178SLPC   H3S20297   3.274   7.102  10.236  0.5845  0.1146  0.3534
  178SLPC   C2420298   3.116   7.185  10.151 -0.0653  0.0983 -0.2458
  178SLPC   H4R20299   3.162   7.286  10.152  1.3976 -0.5423  0.4137
  178SLPC   H4S20300   3.006   7.187  10.168  0.0010 -1.5234  0.6332
  178SLPC   C2520301   3.140   7.110  10.015  0.4661 -0.5089 -0.3357
  178SLPC   H5R20302   3.070   7.024  10.026  2.2293 -2.1542 -1.2772
  178SLPC   H5S20303   3.242   7.066  10.017  0.5295 -0.3370  1.1137
  178SLPC   C2620304   3.111   7.208   9.902 -0.3793 -0.3616  0.7537
  178SLPC   H6R20305   3.192   7.280   9.880 -1.7658  1.3131  0.8673
  178SLPC   H6S20306   3.024   7.269   9.935 -1.1555 -1.6375  1.1298
  178SLPC   C2720307   3.098   7.134   9.768 -0.6661  0.3454  0.9764
  178SLPC   H7R20308   3.033   7.045   9.783 -1.3928  0.8777  0.9911
  178SLPC   H7S20309   3.201   7.124   9.728 -1.3998  0.6224 -1.0968
  178SLPC   C2820310   3.017   7.203   9.658  0.6690 -0.9221  0.3261
  178SLPC   H8R20311   2.917   7.218   9.705  0.5636 -1.5180  0.3056
  178SLPC   H8S20312   2.994   7.138   9.571  0.9336 -0.9479  0.2758
  178SLPC   C2920313   3.077   7.331   9.609 -1.2533 -0.2960 -0.2766
  178SLPC   H9R20314   3.066   7.415   9.679 -0.3478 -1.4369  1.2954
  178SLPC  C21020315   3.115   7.351   9.479 -0.1491 -0.0995  0.1847
  178SLPC  H10R20316   3.148   7.454   9.460  1.0726 -0.3472  0.8611
  178SLPC  C21120317   3.131   7.250   9.367  0.2775  0.2991  0.4775
  178SLPC  H11R20318   3.065   7.162   9.378  0.4469 -0.2405 -2.0650
  178SLPC  H11S20319   3.233   7.208   9.361 -0.1545 -0.6738 -0.5689
  178SLPC  C21220320   3.093   7.315   9.239  0.6107  0.2223  0.3945
  178SLPC  H12R20321   3.035   7.409   9.241  0.5864  0.2321 -0.3970
  178SLPC  C21320322   3.124   7.268   9.112 -0.2934  0.0170  0.0001
  178SLPC  H13R20323   3.107   7.337   9.028 -0.4662 -1.8333 -1.5579
  178SLPC  C21420324   3.204   7.147   9.077  0.0557 -0.0232  0.5424
  178SLPC  H14R20325   3.256   7.097   9.162  0.0731  0.2691  0.7034
  178SLPC  H14S20326   3.282   7.191   9.012  0.1921  0.1311  0.8076
  178SLPC  C21520327   3.129   7.038   8.992 -0.2728 -0.1976  0.0516
  178SLPC  H15R20328   3.058   7.065   8.911 -0.6819  0.7828  0.7183
  178SLPC  H15S20329   3.056   6.979   9.052  2.5652 -2.4242  1.5863
  178SLPC  C21620330   3.231   6.935   8.934 -0.0117  0.8190  0.2760
  178SLPC  H16R20331   3.294   6.903   9.019 -0.0081 -0.2602 -0.1155
  178SLPC  H16S20332   3.301   6.977   8.858 -0.1398 -0.7596 -0.7710
  178SLPC  C21720333   3.171   6.804   8.871 -0.0634 -0.5495  0.0524
  178SLPC  H17R20334   3.100   6.766   8.948 -1.0814  0.0417 -0.5620
  178SLPC  H17S20335   3.247   6.724   8.861 -1.7769 -2.0301 -2.1627
  178SLPC  C21820336   3.091   6.838   8.748 -0.9008 -0.2567  0.5462
  178SLPC  H18R20337   3.137   6.910   8.676 -1.4338 -0.3483  0.1055
  178SLPC  H18S20338   3.000   6.892   8.782  1.3394  2.8312  2.1714
  178SLPC  H18T20339   3.054   6.746   8.699 -0.6793 -0.5472  0.9237
  178SLPC   C3320340   3.558   6.765  10.129  0.0144 -0.3162 -1.5016
  178SLPC   H3X20341   3.652   6.821  10.115  0.3934 -1.1860 -2.6053
  178SLPC   H3Y20342   3.476   6.829  10.090 -0.2355  0.8511  0.8038
  178SLPC   C3420343   3.571   6.632  10.050 -0.3464  0.5218 -0.5132
  178SLPC   H4X20344   3.476   6.575  10.063 -0.0656  0.2024  0.1957
  178SLPC   H4Y20345   3.656   6.580  10.099 -0.0462  1.2083 -0.2932
  178SLPC   C3520346   3.590   6.648   9.903 -0.2381  0.8286 -0.1134
  178SLPC   H5X20347   3.519   6.722   9.861  1.4502  1.8262 -1.3634
  178SLPC   H5Y20348   3.579   6.547   9.858 -1.5864 -0.6608  3.2271
  178SLPC   C3620349   3.732   6.689   9.860 -0.0600  0.3508  0.1990
  178SLPC   H6X20350   3.813   6.651   9.926  1.1200  1.4743 -0.5455
  178SLPC   H6Y20351   3.729   6.801   9.858 -1.6449  0.3314  0.0955
  178SLPC   C3720352   3.761   6.656   9.713 -0.9268 -0.4531  0.6002
  178SLPC   H7X20353   3.741   6.549   9.692 -0.9591 -0.2892 -0.2690
  178SLPC   H7Y20354   3.867   6.678   9.688 -1.2910  2.5346  1.3012
  178SLPC   C3820355   3.697   6.740   9.597  0.8617  0.1231  0.0977
  178SLPC   H8X20356   3.730   6.845   9.613  0.3916  0.1050  1.3195
  178SLPC   H8Y20357   3.586   6.739   9.603  0.8953 -0.5721  0.7203
  178SLPC   C3920358   3.731   6.699   9.452  0.7834  0.3087 -0.0268
  178SLPC   H9X20359   3.689   6.597   9.440  0.6189  0.3795 -0.0524
  178SLPC   H9Y20360   3.842   6.694   9.448  0.7699 -1.8784  1.0980
  178SLPC  C31020361   3.663   6.797   9.357 -0.5046  0.0510  0.5325
  178SLPC  H10X20362   3.694   6.901   9.380  0.1874  0.0473 -0.3616
  178SLPC  H10Y20363   3.553   6.783   9.361 -0.5891  0.8011  1.0713
  178SLPC  C31120364   3.712   6.778   9.212 -0.4147  0.1337 -0.5481
  178SLPC  H11X20365   3.683   6.676   9.177  2.3903 -0.9460  0.0176
  178SLPC  H11Y20366   3.822   6.769   9.224 -0.5739 -0.3220  0.8066
  178SLPC  C31220367   3.695   6.886   9.103  0.7357 -0.9724  0.1919
  178SLPC  H12X20368   3.738   6.983   9.134  0.7411 -0.4347 -1.3979
  178SLPC  H12Y20369   3.588   6.901   9.078  1.2234 -0.5600 -1.8932
  178SLPC  C31320370   3.767   6.856   8.971  0.3910  0.1071  0.3939
  178SLPC  H13X20371   3.736   6.758   8.928 -1.8647  0.3993  1.2273
  178SLPC  H13Y20372   3.874   6.855   9.004  0.5238  1.2701  0.0304
  178SLPC  C31420373   3.766   6.967   8.862 -0.3129 -0.1576  1.0268
  178SLPC  H14X20374   3.863   6.961   8.808 -1.4590 -1.5589 -1.0026
  178SLPC  H14Y20375   3.751   7.069   8.905 -2.7435  0.5846 -1.2930
  178SLPC  C31520376   3.652   6.945   8.759  0.6700  0.1282  0.1855
  178SLPC  H15X20377   3.675   6.857   8.695  0.1651 -0.6601  1.0583
  178SLPC  H15Y20378   3.548   6.928   8.795  0.0299  1.7753 -0.7451
  178SLPC  C31620379   3.635   7.059   8.662 -0.2688 -0.0525  0.5693
  178SLPC  H16X20380   3.727   7.094   8.610 -3.1941  1.7112 -4.0237
  178SLPC  H16Y20381   3.611   7.151   8.720  1.3649  0.7957 -0.0261
  178SLPC  C31720382   3.551   7.040   8.541  0.4240  0.0011 -0.0617
  178SLPC  H17X20383   3.586   6.942   8.501  1.6723  0.5416 -0.3324
  178SLPC  H17Y20384   3.587   7.118   8.471 -0.9307  0.6912 -0.0013
  178SLPC  C31820385   3.404   7.035   8.571  0.1724 -0.3087 -0.7881
  178SLPC  H18X20386   3.354   7.043   8.472  2.0145  0.0762 -1.7250
  178SLPC  H18Y20387   3.374   7.107   8.651 -0.2791 -1.2380 -0.1018
  178SLPC  H18Z20388   3.387   6.940   8.627  2.4210 -1.1498 -1.4182
  179SLPC     N20389   5.299   2.761  10.240  0.3247  0.0624 -0.4504
  179SLPC   C1320390   5.161   2.716  10.198 -0.0626  0.4458  0.2432
  179SLPC  H13A20391   5.092   2.694  10.278 -0.0998  1.5044  0.5064
  179SLPC  H13B20392   5.108   2.790  10.141 -0.0091  1.0475  0.9594
  179SLPC  H13C20393   5.163   2.628  10.136 -0.8439 -0.9560  2.0883
  179SLPC   C1420394   5.290   2.890  10.313 -0.0056 -0.5234  0.7751
  179SLPC  H14A20395   5.267   2.867  10.417  0.5778 -1.6788  0.6561
  179SLPC  H14B20396   5.385   2.940  10.304 -0.1899 -0.4374 -0.8768
  179SLPC  H14C20397   5.222   2.969  10.284  2.3783  0.9146 -1.2358
  179SLPC   C1520398   5.394   2.781  10.130 -0.0348 -0.7918  0.2874
  179SLPC  H15A20399   5.356   2.863  10.070  3.2518 -0.0601 -1.0242
  179SLPC  H15B20400   5.494   2.806  10.162  0.0781 -1.4393  0.4389
  179SLPC  H15C20401   5.402   2.700  10.060  1.0609  0.6097 -1.2905
  179SLPC   C1220402   5.359   2.652  10.332 -0.1680 -0.2036 -0.9425
  179SLPC  H12A20403   5.290   2.647  10.415 -0.6221 -0.1543 -1.3097
  179SLPC  H12B20404   5.451   2.694  10.370 -0.1661 -1.3526  0.3959
  179SLPC   C1120405   5.389   2.514  10.276  0.5526  1.4733  0.2338
  179SLPC  H11A20406   5.458   2.450  10.335 -0.5940  0.9968  1.1107
  179SLPC  H11B20407   5.429   2.531  10.174 -0.6253  4.1759  0.1235
  179SLPC     P20408   5.196   2.360  10.374  0.1448  0.5721  0.0905
  179SLPC   O1320409   5.215   2.222  10.339 -0.2334  0.9577 -0.0964
  179SLPC   O1420410   5.237   2.411  10.512  0.2612 -0.3063 -0.1479
  179SLPC   O1220411   5.256   2.452  10.258 -0.1217 -0.3570 -0.1287
  179SLPC   O1120412   5.044   2.396  10.364 -0.1763  0.1185 -0.4128
  179SLPC    C120413   4.940   2.296  10.381  0.2545 -0.0139  0.8366
  179SLPC    HA20414   4.980   2.212  10.441 -4.1105 -1.3124  2.3610
  179SLPC    HB20415   4.855   2.336  10.442 -2.4268 -1.6275 -1.5774
  179SLPC    C220416   4.867   2.256  10.241  0.1084  1.0521 -0.2564
  179SLPC    HS20417   4.778   2.202  10.279 -0.5712  0.0106 -3.1027
  179SLPC   O2120418   4.947   2.179  10.151 -0.4136 -0.2963 -0.3978
  179SLPC   C2120419   4.979   2.062  10.186  0.3460 -0.5555  0.7932
  179SLPC   O2220420   4.958   2.008  10.294 -0.2688 -0.4774  0.1943
  179SLPC   C2220421   5.074   2.010  10.083  0.2692  0.8705  0.0567
  179SLPC   H2R20422   5.138   2.094  10.048 -1.0224  1.2862 -1.4196
  179SLPC   H2S20423   5.144   1.949  10.144 -0.3653 -0.0700 -0.1376
  179SLPC    C320424   4.836   2.382  10.160 -0.3270 -0.1715  0.5345
  179SLPC    HX20425   4.926   2.447  10.154 -0.7296  0.3585  0.2033
  179SLPC    HY20426   4.778   2.458  10.217  2.6410  2.2574  0.5791
  179SLPC   O3120427   4.780   2.346  10.031  0.5259  0.1500  0.4020
  179SLPC   C3120428   4.857   2.318   9.926  0.1456  0.1858  0.3531
  179SLPC   O3220429   4.980   2.326   9.918  0.0674  1.0063  0.6912
  179SLPC   C3220430   4.761   2.267   9.813 -0.1033  0.1896  0.0840
  179SLPC   H2X20431   4.706   2.360   9.789  0.8364  1.0166  1.0289
  179SLPC   H2Y20432   4.691   2.184   9.835 -0.0041 -0.2256 -1.0898
  179SLPC   C2320433   5.001   1.949   9.969 -0.2982 -0.3795 -0.3394
  179SLPC   H3R20434   4.924   2.023   9.938  1.9788  1.9335 -0.8957
  179SLPC   H3S20435   4.956   1.854  10.004  3.5507 -2.0092  0.7676
  179SLPC   C2420436   5.094   1.927   9.848 -0.1457  0.1270 -0.9186
  179SLPC   H4R20437   5.181   1.874   9.892 -1.7787 -1.4408  0.6061
  179SLPC   H4S20438   5.124   2.030   9.820  1.2069 -0.1441 -0.5142
  179SLPC   C2520439   5.024   1.840   9.747  0.4418 -0.3299 -0.5917
  179SLPC   H5R20440   4.935   1.892   9.706  0.6548  0.2641 -0.3279
  179SLPC   H5S20441   4.993   1.747   9.798  1.8980 -0.6564 -0.2425
  179SLPC   C2620442   5.121   1.791   9.637  0.2057  0.0867  0.0681
  179SLPC   H6R20443   5.203   1.747   9.697  1.3144  2.6101  0.5178
  179SLPC   H6S20444   5.161   1.882   9.587  0.3784  0.0883  0.2111
  179SLPC   C2720445   5.047   1.697   9.545  0.5705  0.9601  0.3993
  179SLPC   H7R20446   4.945   1.724   9.510 -0.2000 -1.2877  0.7751
  179SLPC   H7S20447   5.026   1.607   9.606 -1.8264  0.2051 -1.3480
  179SLPC   C2820448   5.133   1.641   9.425  0.5497  0.0898 -0.1984
  179SLPC   H8R20449   5.069   1.560   9.384 -1.5707  0.8518  1.4107
  179SLPC   H8S20450   5.222   1.595   9.473  2.1909  0.4854 -2.6291
  179SLPC   C2920451   5.154   1.748   9.320  0.5398 -0.4321  0.6813
  179SLPC   H9R20452   5.230   1.822   9.349  0.7411 -0.4310  0.1506
  179SLPC  C21020453   5.115   1.751   9.190  0.1541 -0.1306  0.0376
  179SLPC  H10R20454   5.139   1.835   9.123  1.1892 -1.5978 -1.5257
  179SLPC  C21120455   5.020   1.647   9.128 -0.4345  0.5583 -0.0720
  179SLPC  H11R20456   5.045   1.544   9.161  1.1907  2.1385  4.5717
  179SLPC  H11S20457   5.021   1.653   9.017  0.8645 -2.8336 -0.3566
  179SLPC  C21220458   4.876   1.676   9.177  0.6644 -0.0189 -0.7959
  179SLPC  H12R20459   4.861   1.656   9.284  0.4861 -1.2279 -1.0307
  179SLPC  C21320460   4.764   1.696   9.102 -0.4480  0.2002  0.1257
  179SLPC  H13R20461   4.674   1.730   9.155 -1.5810 -1.8080 -0.4066
  179SLPC  C21420462   4.761   1.724   8.958 -0.1921 -0.5670 -0.7636
  179SLPC  H14R20463   4.865   1.747   8.924  0.3932 -2.2845 -0.2429
  179SLPC  H14S20464   4.697   1.813   8.940  1.1081  0.5359 -0.1061
  179SLPC  C21520465   4.696   1.609   8.881 -0.1590 -0.6764 -0.3445
  179SLPC  H15R20466   4.602   1.574   8.928  0.1342  0.3591  1.0815
  179SLPC  H15S20467   4.765   1.523   8.891  0.5346  0.0195  0.9674
  179SLPC  C21620468   4.666   1.641   8.734  0.2231 -0.4738 -0.5841
  179SLPC  H16R20469   4.751   1.681   8.673 -0.8148 -0.0126 -1.7713
  179SLPC  H16S20470   4.604   1.733   8.743  3.3681  1.8623 -0.8854
  179SLPC  C21720471   4.597   1.528   8.656  0.7830  0.6126 -0.2237
  179SLPC  H17R20472   4.666   1.441   8.647 -0.7586 -0.8001  0.9634
  179SLPC  H17S20473   4.586   1.560   8.551  0.1329 -0.0822 -0.3763
  179SLPC  C21820474   4.462   1.482   8.699  0.0493  0.4165  0.2358
  179SLPC  H18R20475   4.375   1.526   8.645 -1.5772 -1.4344  1.1860
  179SLPC  H18S20476   4.448   1.495   8.809  3.0425 -1.1587  0.8934
  179SLPC  H18T20477   4.444   1.376   8.669 -1.1683  0.5923  0.2683
  179SLPC   C3320478   4.844   2.230   9.687  0.3567 -0.0880 -0.2512
  179SLPC   H3X20479   4.908   2.143   9.716  0.3245  0.1734  0.6197
  179SLPC   H3Y20480   4.913   2.316   9.671  1.5347 -0.5209  2.0045
  179SLPC   C3420481   4.757   2.194   9.569 -0.3814 -0.3916 -0.4335
  179SLPC   H4X20482   4.712   2.286   9.526 -1.0659 -0.6798 -0.3533
  179SLPC   H4Y20483   4.678   2.125   9.605 -1.7134  0.5244 -1.4821
  179SLPC   C3520484   4.819   2.115   9.459  0.4844 -0.3515  0.0515
  179SLPC   H5X20485   4.853   2.014   9.491 -0.9786 -0.9614 -0.2664
  179SLPC   H5Y20486   4.904   2.178   9.425  0.8906 -0.1477  1.4210
  179SLPC   C3620487   4.738   2.110   9.325 -0.5788  0.5818 -0.3374
  179SLPC   H6X20488   4.628   2.101   9.337 -0.5750  1.4563  0.4940
  179SLPC   H6Y20489   4.781   2.031   9.260  1.3073  1.6281 -0.4446
  179SLPC   C3720490   4.757   2.245   9.249  0.1608  0.0662 -0.0583
  179SLPC   H7X20491   4.865   2.242   9.224 -0.0953 -0.5512 -1.1622
  179SLPC   H7Y20492   4.739   2.321   9.329  1.8572 -1.3581  1.7621
  179SLPC   C3820493   4.675   2.271   9.125 -0.9588 -0.0476 -0.2261
  179SLPC   H8X20494   4.694   2.373   9.086  1.4471  0.2167  1.4444
  179SLPC   H8Y20495   4.567   2.263   9.148 -0.3709 -1.5099  2.3916
  179SLPC   C3920496   4.722   2.168   9.023  0.2366  0.7997 -0.6322
  179SLPC   H9X20497   4.692   2.066   9.054 -0.3166  1.4220  0.9649
  179SLPC   H9Y20498   4.833   2.174   9.016  0.5085 -1.6262  0.5919
  179SLPC  C31020499   4.670   2.197   8.886 -0.1178  0.4530 -0.1581
  179SLPC  H10X20500   4.716   2.286   8.837  0.2713 -0.0040 -0.6431
  179SLPC  H10Y20501   4.561   2.220   8.887 -0.0685  0.7017 -0.3437
  179SLPC  C31120502   4.693   2.089   8.781 -0.4581  0.6797  0.7357
  179SLPC  H11X20503   4.629   2.109   8.692 -1.3681  0.9564  1.4263
  179SLPC  H11Y20504   4.663   1.988   8.814  0.1079 -0.2279 -1.3724
  179SLPC  C31220505   4.844   2.085   8.743  0.1753  0.3734  0.0755
  179SLPC  H12X20506   4.909   2.090   8.833 -0.1890  1.4860  0.2965
  179SLPC  H12Y20507   4.872   2.180   8.691  1.6100  0.5766  1.1430
  179SLPC  C31320508   4.865   1.965   8.649 -0.3904 -0.0524  0.7644
  179SLPC  H13X20509   4.809   1.983   8.555  1.5241  0.1498 -0.3948
  179SLPC  H13Y20510   4.817   1.876   8.695 -0.5610 -2.4138 -3.4704
  179SLPC  C31420511   5.011   1.941   8.607  0.0405  0.2127 -0.0012
  179SLPC  H14X20512   5.058   2.034   8.569 -0.6761 -0.3109 -2.2953
  179SLPC  H14Y20513   5.018   1.874   8.519 -0.1838  0.1435  0.0322
  179SLPC  C31520514   5.097   1.895   8.728  0.3023  0.2670  0.1629
  179SLPC  H15X20515   5.054   1.813   8.788  0.4448 -0.6352 -0.9196
  179SLPC  H15Y20516   5.116   1.977   8.800  1.5912 -0.7211  1.0115
  179SLPC  C31620517   5.232   1.832   8.679  0.3584  0.3099 -0.2843
  179SLPC  H16X20518   5.277   1.915   8.620 -0.6490  1.0592 -0.0172
  179SLPC  H16Y20519   5.195   1.752   8.613  1.0614  0.5392 -0.9754
  179SLPC  C31720520   5.329   1.798   8.787 -0.5344 -0.3115 -0.3477
  179SLPC  H17X20521   5.295   1.708   8.843 -1.6976 -0.5308 -1.3702
  179SLPC  H17Y20522   5.335   1.886   8.854 -2.7842 -0.9620  0.8314
  179SLPC  C31820523   5.468   1.762   8.724  0.3143 -0.1841  1.1415
  179SLPC  H18X20524   5.515   1.859   8.698 -2.1798  0.7421 -0.2642
  179SLPC  H18Y20525   5.457   1.701   8.632  2.4644  1.7966 -0.5469
  179SLPC  H18Z20526   5.532   1.713   8.800  2.5415  1.7777  0.6605
  180SLPC     N20527   5.324   0.806  10.957  0.0342  0.1475 -0.3678
  180SLPC   C1320528   5.430   0.765  10.863  0.0548  0.2118  0.0168
  180SLPC  H13A20529   5.437   0.657  10.856 -0.6351  0.1071  0.7321
  180SLPC  H13B20530   5.414   0.796  10.761  0.0149  0.6108  0.1422
  180SLPC  H13C20531   5.526   0.805  10.892  1.7593 -2.6832 -1.2312
  180SLPC   C1420532   5.289   0.951  10.933  0.0220  0.2116 -0.0275
  180SLPC  H14A20533   5.238   0.976  10.841 -0.3267  0.6240  0.2771
  180SLPC  H14B20534   5.234   0.997  11.014 -0.3229  1.0087 -0.7104
  180SLPC  H14C20535   5.383   1.004  10.929  1.0695 -1.6135 -2.8434
  180SLPC   C1520536   5.392   0.805  11.094 -0.4201 -0.5823  0.2696
  180SLPC  H15A20537   5.444   0.712  11.112 -1.3377 -0.9186  1.2759
  180SLPC  H15B20538   5.468   0.882  11.099  0.1621 -1.1179 -0.2364
  180SLPC  H15C20539   5.325   0.818  11.178  2.5246 -0.0828  2.7409
  180SLPC   C1220540   5.198   0.725  10.952  0.3218  0.0287  0.7392
  180SLPC  H12A20541   5.135   0.780  11.021  0.6938  1.9831 -0.4159
  180SLPC  H12B20542   5.216   0.631  11.002  0.4879  0.2493  1.0960
  180SLPC   C1120543   5.127   0.697  10.813 -0.5332 -0.8356  0.2144
  180SLPC  H11A20544   5.110   0.797  10.768 -0.5436 -0.4103  1.1531
  180SLPC  H11B20545   5.031   0.650  10.843 -1.6348  1.7056  0.9199
  180SLPC     P20546   5.187   0.472  10.683 -0.4924 -0.0029 -0.3321
  180SLPC   O1320547   5.314   0.416  10.623  0.2403 -0.4633  0.4324
  180SLPC   O1420548   5.136   0.394  10.798 -0.4526  0.5297 -0.1050
  180SLPC   O1220549   5.212   0.630  10.724 -0.2057 -0.4943  0.1337
  180SLPC   O1120550   5.074   0.477  10.566  0.3025 -0.2754 -0.8013
  180SLPC    C120551   5.001   0.599  10.544 -0.7044  0.0737 -0.0882
  180SLPC    HA20552   4.936   0.631  10.628 -0.1743  0.4479  0.1870
  180SLPC    HB20553   5.066   0.686  10.518 -3.1068  1.1358 -3.1898
  180SLPC    C220554   4.890   0.594  10.436  0.3231  0.8289  0.6272
  180SLPC    HS20555   4.825   0.507  10.460 -0.3990  0.8828 -0.9648
  180SLPC   O2120556   4.949   0.584  10.307  0.0686  0.1866  0.7697
  180SLPC   C2120557   4.979   0.457  10.274  0.8330  0.0094 -0.6705
  180SLPC   O2220558   4.937   0.357  10.328 -0.5050 -0.1724 -0.1557
  180SLPC   C2220559   5.067   0.470  10.153 -0.2337  0.4474  0.0477
  180SLPC   H2R20560   5.118   0.569  10.147 -0.4668  0.5574 -0.1190
  180SLPC   H2S20561   5.148   0.398  10.178 -0.5983 -0.3855 -1.0707
  180SLPC    C320562   4.796   0.717  10.437  0.0439  0.0190  0.4096
  180SLPC    HX20563   4.750   0.733  10.537 -1.5900  0.0662 -0.3057
  180SLPC    HY20564   4.717   0.689  10.364  1.0249 -1.1221 -0.2394
  180SLPC   O3120565   4.860   0.835  10.390 -0.3752  0.0732  0.0557
  180SLPC   C3120566   4.776   0.927  10.343 -0.1891  0.0177 -0.0726
  180SLPC   O3220567   4.659   0.923  10.363 -0.1020  0.5784 -0.3313
  180SLPC   C3220568   4.844   1.038  10.269 -0.2268 -0.4009 -0.1853
  180SLPC   H2X20569   4.950   1.007  10.254  0.4505  1.5699  0.2488
  180SLPC   H2Y20570   4.843   1.129  10.331  2.5739  0.7940 -1.7158
  180SLPC   C2320571   4.997   0.442  10.019 -0.5252  0.2674  0.4662
  180SLPC   H3R20572   4.918   0.516   9.994  0.3033  0.1960 -2.7644
  180SLPC   H3S20573   4.944   0.344  10.024  0.9620 -0.5263  1.5985
  180SLPC   C2420574   5.101   0.432   9.911  0.1376  0.3263  0.2225
  180SLPC   H4R20575   5.142   0.329   9.919 -2.6249 -0.8868 -0.1604
  180SLPC   H4S20576   5.181   0.508   9.925 -0.4789  0.8332  1.0408
  180SLPC   C2520577   5.035   0.442   9.775  0.2415  0.1212  0.0568
  180SLPC   H5R20578   5.013   0.550   9.760  0.0698  0.0686 -0.0779
  180SLPC   H5S20579   4.932   0.400   9.783 -0.7792  2.2204 -1.1083
  180SLPC   C2620580   5.110   0.366   9.659 -0.8859  0.6097  0.1228
  180SLPC   H6R20581   5.107   0.256   9.670  0.0815  0.5595 -0.0902
  180SLPC   H6S20582   5.214   0.404   9.660 -0.4711 -0.5001  0.6318
  180SLPC   C2720583   5.042   0.403   9.524  0.1003 -0.6262  0.0292
  180SLPC   H7R20584   5.012   0.510   9.513  0.8027 -0.4509 -0.2398
  180SLPC   H7S20585   4.940   0.358   9.519 -0.3866  0.5067 -0.6062
  180SLPC   C2820586   5.121   0.379   9.396 -0.9063  1.0717 -0.0367
  180SLPC   H8R20587   5.120   0.270   9.376  0.5209  0.5766  2.1691
  180SLPC   H8S20588   5.228   0.400   9.416 -0.0393 -3.2480  0.7784
  180SLPC   C2920589   5.063   0.454   9.281  1.0518  0.3458 -0.3720
  180SLPC   H9R20590   4.956   0.467   9.261  0.7264 -1.5020  0.0606
  180SLPC  C21020591   5.142   0.514   9.188 -0.3052 -0.2944  0.0638
  180SLPC  H10R20592   5.089   0.545   9.096  1.3450 -1.8911 -1.5248
  180SLPC  C21120593   5.291   0.504   9.188  0.4200 -0.5319 -0.7295
  180SLPC  H11R20594   5.344   0.536   9.281  1.8184  0.2950 -1.7779
  180SLPC  H11S20595   5.315   0.591   9.124 -2.5825  0.2512 -0.9391
  180SLPC  C21220596   5.352   0.372   9.146  0.3679  0.3343  1.4890
  180SLPC  H12R20597   5.329   0.288   9.214  2.0074  0.0925  1.7661
  180SLPC  C21320598   5.426   0.345   9.032 -0.2905  0.1934 -0.5614
  180SLPC  H13R20599   5.470   0.245   9.025 -1.3172 -0.3766  0.6052
  180SLPC  C21420600   5.473   0.443   8.932 -0.4051 -0.4515  0.8699
  180SLPC  H14R20601   5.583   0.441   8.916 -0.5762  2.1388 -1.2472
  180SLPC  H14S20602   5.460   0.545   8.975  1.2589  0.1813 -0.0381
  180SLPC  C21520603   5.396   0.429   8.797  1.2318 -0.4876 -0.5202
  180SLPC  H15R20604   5.291   0.463   8.812  1.4991 -0.5591  1.9617
  180SLPC  H15S20605   5.380   0.326   8.759 -2.2923  0.0199 -0.7163
  180SLPC  C21620606   5.440   0.527   8.683 -0.0574 -0.5882 -0.0247
  180SLPC  H16R20607   5.543   0.490   8.664 -0.8821 -3.3017  0.2534
  180SLPC  H16S20608   5.454   0.628   8.725  0.9536 -0.5238 -0.4832
  180SLPC  C21720609   5.340   0.518   8.566 -0.0644  0.9297  0.0733
  180SLPC  H17R20610   5.255   0.583   8.594 -0.0185  0.9900  0.0717
  180SLPC  H17S20611   5.296   0.416   8.569  2.3664 -0.2939 -1.7459
  180SLPC  C21820612   5.394   0.553   8.428 -0.2109 -0.7525 -0.1442
  180SLPC  H18R20613   5.369   0.660   8.409 -2.4876 -1.2537 -0.2178
  180SLPC  H18S20614   5.354   0.490   8.346 -1.1512  0.6578 -0.8206
  180SLPC  H18T20615   5.504   0.537   8.439 -0.3674 -0.7409  1.7543
  180SLPC   C3320616   4.775   1.054  10.132  0.3377 -0.8470 -0.3962
  180SLPC   H3X20617   4.774   0.961  10.072 -2.7273 -2.3128  1.6839
  180SLPC   H3Y20618   4.845   1.121  10.078  1.6542 -2.5224 -0.8590
  180SLPC   C3420619   4.638   1.123  10.120 -0.3099  0.1199  0.0123
  180SLPC   H4X20620   4.642   1.231  10.146 -1.2073  1.0345 -3.1735
  180SLPC   H4Y20621   4.562   1.074  10.185 -1.8801  0.2078 -1.6717
  180SLPC   C3520622   4.582   1.116   9.975 -0.1043  0.0887 -0.5496
  180SLPC   H5X20623   4.650   1.174   9.908 -1.1069  1.7486 -0.1744
  180SLPC   H5Y20624   4.487   1.171   9.982 -0.0814 -0.0558  1.2883
  180SLPC   C3620625   4.567   0.978   9.905  0.1725  0.3107  0.8180
  180SLPC   H6X20626   4.530   0.901   9.976  1.0294 -0.5847  0.3123
  180SLPC   H6Y20627   4.668   0.946   9.873  0.2835 -1.3163  2.6031
  180SLPC   C3720628   4.472   0.984   9.781  0.0903  0.6030  0.3404
  180SLPC   H7X20629   4.376   1.007   9.832 -2.0099 -2.6961 -1.7229
  180SLPC   H7Y20630   4.481   0.881   9.741  0.0924  0.4022  0.8479
  180SLPC   C3820631   4.516   1.087   9.675  0.2612 -0.0433  0.2485
  180SLPC   H8X20632   4.625   1.076   9.655  0.1196 -1.3837  0.0799
  180SLPC   H8Y20633   4.502   1.189   9.716 -1.0139  0.0262 -0.3191
  180SLPC   C3920634   4.436   1.084   9.545 -0.0924  0.4873  0.4034
  180SLPC   H9X20635   4.453   0.988   9.491 -1.6536  0.4881 -0.1417
  180SLPC   H9Y20636   4.466   1.170   9.481 -0.8895 -0.9351 -1.9864
  180SLPC  C31020637   4.287   1.103   9.575  0.1410 -0.6943  0.4117
  180SLPC  H10X20638   4.249   1.023   9.642  0.4993 -0.5900  0.7432
  180SLPC  H10Y20639   4.235   1.100   9.477  1.5330 -1.3080 -0.3356
  180SLPC  C31120640   4.251   1.242   9.625 -0.0593 -0.6114  0.5210
  180SLPC  H11X20641   4.320   1.317   9.579 -1.0305  0.6492  1.0358
  180SLPC  H11Y20642   4.268   1.248   9.735 -0.0208 -2.0500  0.6000
  180SLPC  C31220643   4.102   1.280   9.609 -0.4550  0.8204 -0.1235
  180SLPC  H12X20644   4.074   1.275   9.502  0.3491 -2.1941 -0.2955
  180SLPC  H12Y20645   4.089   1.381   9.652 -0.2531  0.0445  1.8899
  180SLPC  C31320646   3.998   1.185   9.679 -0.0246  0.0135 -0.4515
  180SLPC  H13X20647   3.997   1.093   9.617 -1.9813 -0.0691 -0.3476
  180SLPC  H13Y20648   3.896   1.227   9.666 -0.2147 -0.2872  0.0289
  180SLPC  C31420649   4.030   1.136   9.822 -0.4565  0.2617 -0.2303
  180SLPC  H14X20650   4.139   1.115   9.829 -0.4826  0.2897  0.2752
  180SLPC  H14Y20651   3.962   1.060   9.867 -2.2693  2.5223  1.0884
  180SLPC  C31520652   4.024   1.248   9.916 -0.5018  0.3770 -1.4948
  180SLPC  H15X20653   3.919   1.282   9.922 -0.3872  0.5851 -0.3651
  180SLPC  H15Y20654   4.087   1.338   9.900 -0.7755  1.0093  0.6406
  180SLPC  C31620655   4.054   1.209  10.065 -0.2239 -0.2526  0.3988
  180SLPC  H16X20656   3.969   1.148  10.101 -0.8283  0.0078 -0.5406
  180SLPC  H16Y20657   4.040   1.295  10.134 -0.9728 -0.5198  0.5866
  180SLPC  C31720658   4.187   1.148  10.089 -0.8416 -0.2157 -0.3701
  180SLPC  H17X20659   4.269   1.217  10.057 -1.2526  1.5130  2.0480
  180SLPC  H17Y20660   4.208   1.054  10.032 -1.3060 -2.8833  3.4621
  180SLPC  C31820661   4.207   1.122  10.236 -0.0952  0.5499  0.2220
  180SLPC  H18X20662   4.123   1.063  10.281  0.3609 -1.2158 -1.1331
  180SLPC  H18Y20663   4.222   1.219  10.288  1.5814  1.1167 -1.2281
  180SLPC  H18Z20664   4.303   1.070  10.257 -0.1407  0.2012 -0.4136
  181SLPC     N20665   1.763   4.948  10.464  0.1587  0.1025  0.6037
  181SLPC   C1320666   1.893   4.881  10.451 -0.1932  0.0842 -0.2266
  181SLPC  H13A20667   1.982   4.942  10.448  2.5751 -3.5539  0.7278
  181SLPC  H13B20668   1.912   4.824  10.540  1.3580  0.8111 -0.0620
  181SLPC  H13C20669   1.904   4.830  10.356 -2.2467  2.3888 -1.8475
  181SLPC   C1420670   1.774   5.044  10.582  0.3265  0.2394 -0.0340
  181SLPC  H14A20671   1.834   5.131  10.557  1.6661 -1.0860 -1.6207
  181SLPC  H14B20672   1.671   5.068  10.603 -0.2274 -1.9164 -0.1065
  181SLPC  H14C20673   1.816   4.994  10.668  1.1447  0.9392 -0.0103
  181SLPC   C1520674   1.657   4.849  10.499 -0.8507 -0.2439  0.0897
  181SLPC  H15A20675   1.672   4.808  10.598 -0.4576 -0.3478 -0.0099
  181SLPC  H15B20676   1.562   4.900  10.502 -1.3942 -1.1651 -0.8267
  181SLPC  H15C20677   1.647   4.770  10.426 -0.9944  0.9082 -1.1572
  181SLPC   C1220678   1.728   5.027  10.338  0.0482  0.0082 -0.6740
  181SLPC  H12A20679   1.637   5.080  10.365  1.4238  1.8837  0.6109
  181SLPC  H12B20680   1.709   4.958  10.258  0.1160  0.3240 -0.9635
  181SLPC   C1120681   1.823   5.126  10.285  0.2423  0.1615  0.0750
  181SLPC  H11A20682   1.801   5.148  10.178 -0.9986 -0.7245  0.1294
  181SLPC  H11B20683   1.924   5.080  10.278 -0.9710 -2.5536 -1.0339
  181SLPC     P20684   1.711   5.352  10.388  0.1651  0.0908 -0.0624
  181SLPC   O1320685   1.585   5.290  10.329 -0.2360  0.2803 -0.0001
  181SLPC   O1420686   1.722   5.380  10.532  0.6406 -0.1624  0.1932
  181SLPC   O1220687   1.831   5.249  10.363  0.4699  0.3806 -0.0761
  181SLPC   O1120688   1.770   5.484  10.313 -0.2999 -0.3146  0.0199
  181SLPC    C120689   1.864   5.476  10.204 -0.2931 -0.2973 -0.5536
  181SLPC    HA20690   1.924   5.569  10.208 -0.6374 -0.1053  1.2128
  181SLPC    HB20691   1.947   5.404  10.216 -0.8486 -1.2064 -1.9035
  181SLPC    C220692   1.783   5.459  10.075 -0.4661  0.0093 -0.5840
  181SLPC    HS20693   1.699   5.392  10.103  0.2466  0.0261  1.7989
  181SLPC   O2120694   1.878   5.388   9.990 -0.0266  0.6152  0.1342
  181SLPC   C2120695   1.839   5.284   9.916  0.0377 -0.6620  0.1983
  181SLPC   O2220696   1.731   5.229   9.935  0.3551  0.0518  0.2966
  181SLPC   C2220697   1.942   5.273   9.808  0.4471 -0.0232  0.1148
  181SLPC   H2R20698   1.959   5.368   9.754  3.4218  0.4483  1.6388
  181SLPC   H2S20699   2.040   5.245   9.854  0.4554  0.1217  0.1853
  181SLPC    C320700   1.725   5.586  10.007  0.4085  0.0045 -0.3482
  181SLPC    HX20701   1.812   5.653   9.991 -0.5274  1.0225 -1.2791
  181SLPC    HY20702   1.663   5.614  10.095  1.4390 -1.5538  0.9334
  181SLPC   O3120703   1.656   5.549   9.884  0.5822 -0.0885 -0.5858
  181SLPC   C3120704   1.548   5.475   9.896  0.3053  0.1794  0.8000
  181SLPC   O3220705   1.496   5.453  10.005 -0.0119 -0.4640  0.7813
  181SLPC   C3220706   1.498   5.425   9.757  0.8149  0.6308  0.1440
  181SLPC   H2X20707   1.584   5.388   9.697 -1.0952 -4.1092 -0.1426
  181SLPC   H2Y20708   1.449   5.513   9.709  1.5778  0.1905 -1.5328
  181SLPC   C2320709   1.911   5.159   9.710 -0.0623  0.0508  1.1261
  181SLPC   H3R20710   1.878   5.068   9.765  1.7218 -0.4672  1.4159
  181SLPC   H3S20711   2.002   5.139   9.649 -2.4127 -1.0570 -2.3187
  181SLPC   C2420712   1.806   5.192   9.611  0.7628  0.2840  0.0633
  181SLPC   H4R20713   1.705   5.207   9.654  0.2078 -1.1858 -0.6489
  181SLPC   H4S20714   1.787   5.102   9.549 -2.0914 -0.3956  1.7542
  181SLPC   C2520715   1.834   5.308   9.514 -0.5759  1.0342  0.0956
  181SLPC   H5R20716   1.942   5.306   9.487 -0.3728  1.3537  0.8351
  181SLPC   H5S20717   1.816   5.410   9.555 -0.0341  1.2206 -0.1167
  181SLPC   C2620718   1.747   5.303   9.379  0.8592 -0.3317  0.1225
  181SLPC   H6R20719   1.638   5.292   9.396  0.7834 -0.3448 -0.3478
  181SLPC   H6S20720   1.783   5.213   9.325 -0.4974  0.0594 -1.5101
  181SLPC   C2720721   1.769   5.441   9.304 -0.8836 -0.1211 -0.6841
  181SLPC   H7R20722   1.876   5.472   9.296 -0.4236 -1.5167 -0.2293
  181SLPC   H7S20723   1.723   5.521   9.366 -1.8661  0.1117 -1.6910
  181SLPC   C2820724   1.704   5.452   9.168  1.1285 -0.2981 -0.2621
  181SLPC   H8R20725   1.694   5.557   9.134  0.4476  0.6717  2.6528
  181SLPC   H8S20726   1.598   5.423   9.181  0.8401  0.1107 -1.6081
  181SLPC   C2920727   1.779   5.367   9.073 -0.4638 -0.1554  0.1274
  181SLPC   H9R20728   1.780   5.260   9.096  0.5744 -0.3697 -0.8123
  181SLPC  C21020729   1.820   5.402   8.952 -0.5685 -0.3190  0.3348
  181SLPC  H10R20730   1.870   5.321   8.898 -1.0494 -0.8322  0.6571
  181SLPC  C21120731   1.826   5.546   8.895  0.0917 -0.1924  0.0020
  181SLPC  H11R20732   1.831   5.624   8.974 -0.9446  1.0388 -1.0807
  181SLPC  H11S20733   1.736   5.576   8.836  2.9131  3.0273 -3.1316
  181SLPC  C21220734   1.948   5.570   8.811 -0.0314  0.0763  0.1508
  181SLPC  H12R20735   2.042   5.547   8.865  0.1597  1.1213  0.3046
  181SLPC  C21320736   1.962   5.631   8.690  0.3580  0.2042  0.5170
  181SLPC  H13R20737   2.062   5.640   8.646 -0.3147  0.9637 -0.9064
  181SLPC  C21420738   1.843   5.685   8.610 -0.2233  0.9523  0.1532
  181SLPC  H14R20739   1.830   5.793   8.631 -2.1048  0.9099 -0.6258
  181SLPC  H14S20740   1.745   5.637   8.631  0.9643 -0.8896  1.9321
  181SLPC  C21520741   1.875   5.683   8.464  0.2609  0.1072  0.2950
  181SLPC  H15R20742   1.779   5.699   8.410 -0.6466 -1.4737  1.3431
  181SLPC  H15S20743   1.910   5.585   8.426 -1.0424 -0.8287  1.3790
  181SLPC  C21620744   1.964   5.797   8.412 -0.1286  0.3864  0.5263
  181SLPC  H16R20745   2.062   5.790   8.463 -0.6771 -0.5160  1.5126
  181SLPC  H16S20746   1.915   5.894   8.435  0.6201  0.3892  2.2898
  181SLPC  C21720747   1.988   5.790   8.262  0.0077  0.3351 -0.0032
  181SLPC  H17R20748   1.990   5.683   8.236  1.0450  0.1342  0.8149
  181SLPC  H17S20749   2.085   5.839   8.235 -0.2863  0.0586 -1.6241
  181SLPC  C21820750   1.872   5.858   8.183 -0.0752 -0.5453  0.7535
  181SLPC  H18R20751   1.873   5.969   8.189  1.2501 -0.5607  1.2635
  181SLPC  H18S20752   1.773   5.825   8.221  0.2026 -1.7172  0.4920
  181SLPC  H18T20753   1.871   5.833   8.075 -0.5768  0.9719  0.3862
  181SLPC   C3320754   1.391   5.314   9.771  0.3104  0.5166  0.2366
  181SLPC   H3X20755   1.326   5.327   9.860 -0.8526  2.8582 -0.8586
  181SLPC   H3Y20756   1.440   5.215   9.781 -2.5041 -0.8834  1.3878
  181SLPC   C3420757   1.292   5.313   9.656  0.2838 -0.4579 -0.4708
  181SLPC   H4X20758   1.257   5.417   9.644  4.8990  1.6435  1.7008
  181SLPC   H4Y20759   1.205   5.248   9.680  0.6448 -0.3883  1.1714
  181SLPC   C3520760   1.350   5.270   9.526 -0.8190  0.7174 -0.0595
  181SLPC   H5X20761   1.369   5.161   9.534  0.6189  0.9556  0.0686
  181SLPC   H5Y20762   1.448   5.320   9.514 -0.0165 -1.0506 -1.1452
  181SLPC   C3620763   1.263   5.311   9.406  0.3375  0.2113 -0.5903
  181SLPC   H6X20764   1.242   5.420   9.412  0.3194  0.1295  1.7596
  181SLPC   H6Y20765   1.163   5.263   9.413  0.7132 -0.3586  2.8842
  181SLPC   C3720766   1.337   5.284   9.272  0.1309 -0.3620 -0.5803
  181SLPC   H7X20767   1.298   5.185   9.241 -0.3596 -1.0622  2.0700
  181SLPC   H7Y20768   1.448   5.284   9.285  0.2979  2.1314 -1.4168
  181SLPC   C3820769   1.295   5.384   9.161 -0.0935  0.3736 -0.1080
  181SLPC   H8X20770   1.351   5.479   9.179  1.4277 -0.3241 -0.9473
  181SLPC   H8Y20771   1.185   5.399   9.169  0.0038  0.6385  0.8603
  181SLPC   C3920772   1.325   5.322   9.023  0.0132 -0.4653 -0.1702
  181SLPC   H9X20773   1.260   5.233   9.005  0.2603 -0.4003 -1.4987
  181SLPC   H9Y20774   1.434   5.302   9.021  0.3955  1.4467 -0.7073
  181SLPC  C31020775   1.309   5.419   8.904  0.7074 -0.8164  0.6143
  181SLPC  H10X20776   1.265   5.513   8.942  0.0208 -1.6541  1.9578
  181SLPC  H10Y20777   1.235   5.377   8.832  2.3052  0.2119 -1.7473
  181SLPC  C31120778   1.436   5.437   8.816  0.5861  0.3701  0.1414
  181SLPC  H11X20779   1.534   5.456   8.866  2.5907 -0.7746 -3.0122
  181SLPC  H11Y20780   1.401   5.519   8.750 -2.3481  0.3029  1.4901
  181SLPC  C31220781   1.452   5.310   8.725 -0.0523 -0.6018 -0.0885
  181SLPC  H12X20782   1.368   5.291   8.655  0.1109 -0.4822 -0.3169
  181SLPC  H12Y20783   1.456   5.225   8.798 -0.1125 -1.1068 -0.6681
  181SLPC  C31320784   1.587   5.297   8.659 -0.3277  0.1675  0.4900
  181SLPC  H13X20785   1.593   5.196   8.615  0.2974 -0.0440  1.0506
  181SLPC  H13Y20786   1.658   5.294   8.745 -1.1714 -1.7332  1.1636
  181SLPC  C31420787   1.627   5.406   8.563 -0.3806  0.1641  0.9076
  181SLPC  H14X20788   1.735   5.426   8.582  0.3413 -1.4331 -1.0931
  181SLPC  H14Y20789   1.557   5.492   8.564 -1.3604 -0.3996 -2.7158
  181SLPC  C31520790   1.617   5.355   8.421 -0.0060  0.1707 -0.0051
  181SLPC  H15X20791   1.657   5.252   8.419 -0.8770 -0.1717 -1.3267
  181SLPC  H15Y20792   1.687   5.414   8.359 -0.3926  1.4316  0.7156
  181SLPC  C31620793   1.485   5.356   8.353 -0.2463  0.4700 -0.8493
  181SLPC  H16X20794   1.459   5.460   8.326  1.2798  1.7342  2.1735
  181SLPC  H16Y20795   1.412   5.333   8.433  1.6966  1.0679  1.1922
  181SLPC  C31720796   1.476   5.262   8.236 -0.6742  0.0099  0.4671
  181SLPC  H17X20797   1.566   5.275   8.173 -0.7941 -0.4210  0.2035
  181SLPC  H17Y20798   1.384   5.295   8.182 -0.4130  1.8822  1.1149
  181SLPC  C31820799   1.468   5.114   8.270  0.6669 -0.1193  0.1134
  181SLPC  H18X20800   1.553   5.078   8.332 -0.2515 -1.1645  0.8055
  181SLPC  H18Y20801   1.476   5.049   8.180  2.6535 -0.1311  0.2634
  181SLPC  H18Z20802   1.373   5.095   8.325  0.2966 -1.2163 -0.8387
  182SLPC     N20803   0.361   5.341  10.403  0.0931  0.4153 -0.3477
  182SLPC   C1320804   0.390   5.470  10.331  0.2295  0.0614  0.6019
  182SLPC  H13A20805   0.486   5.517  10.347  0.4316  0.1396 -0.7277
  182SLPC  H13B20806   0.371   5.463  10.225  0.5388 -0.3215  0.5662
  182SLPC  H13C20807   0.320   5.539  10.376  0.8541  0.4670  0.9867
  182SLPC   C1420808   0.408   5.341  10.548 -0.2848 -0.2522  0.2892
  182SLPC  H14A20809   0.339   5.402  10.603 -1.4264 -1.2511  0.0230
  182SLPC  H14B20810   0.402   5.239  10.582 -2.0289 -0.2701  0.0246
  182SLPC  H14C20811   0.502   5.392  10.553  0.4494 -1.6196  1.1605
  182SLPC   C1520812   0.443   5.238  10.326  0.4766  0.4187 -0.3775
  182SLPC  H15A20813   0.456   5.145  10.379  0.3593 -1.6037 -3.6373
  182SLPC  H15B20814   0.401   5.220  10.228 -0.8714  0.1332  0.2383
  182SLPC  H15C20815   0.542   5.279  10.313  0.4091  1.4904  2.0744
  182SLPC   C1220816   0.208   5.310  10.388 -0.1125 -0.0320  0.0749
  182SLPC  H12A20817   0.208   5.202  10.391 -0.1708 -0.0129  1.0097
  182SLPC  H12B20818   0.191   5.335  10.285  1.2432  0.0375 -0.1489
  182SLPC   C1120819   0.112   5.375  10.485 -0.0153 -0.0507  0.1120
  182SLPC  H11A20820   0.118   5.341  10.591 -0.9878  0.3929  0.3186
  182SLPC  H11B20821   0.010   5.346  10.452 -0.2910  1.5504 -0.4960
  182SLPC     P20822   0.026   5.610  10.398  0.1024 -0.2163  0.0472
  182SLPC   O1320823  -0.110   5.572  10.434 -0.3114 -0.1743  0.5245
  182SLPC   O1420824   0.059   5.749  10.411 -0.2829  0.2328 -0.0156
  182SLPC   O1220825   0.121   5.520  10.482 -0.5859  0.1962 -0.0787
  182SLPC   O1120826   0.059   5.576  10.246 -0.2619  0.1537  0.2065
  182SLPC    C120827   0.139   5.664  10.167 -0.2582 -0.0897 -0.4084
  182SLPC    HA20828   0.209   5.723  10.231 -2.3136  1.5433  0.4398
  182SLPC    HB20829   0.192   5.604  10.090  0.8520 -1.0089  1.0232
  182SLPC    C220830   0.048   5.779  10.106 -0.1920 -0.5280  0.4785
  182SLPC    HS20831  -0.029   5.821  10.175  1.5070  0.9143  1.5971
  182SLPC   O2120832  -0.001   5.715   9.992 -0.2441  0.2823 -0.1101
  182SLPC   C2120833  -0.106   5.636   9.999  0.5526  0.1220  0.4705
  182SLPC   O2220834  -0.183   5.631  10.097  0.0498  0.4451 -0.1032
  182SLPC   C2220835  -0.123   5.568   9.864  0.1786 -0.3314  0.0302
  182SLPC   H2R20836  -0.093   5.645   9.790 -0.9369  0.7518  0.6759
  182SLPC   H2S20837  -0.047   5.487   9.854  1.2965  0.7542 -0.5970
  182SLPC    C320838   0.128   5.902  10.066  0.0953 -0.8832 -0.5466
  182SLPC    HX20839   0.171   5.932  10.164  0.1888 -0.6605 -0.6524
  182SLPC    HY20840   0.047   5.965  10.024  0.5740 -0.4918 -0.9124
  182SLPC   O3120841   0.230   5.875   9.968  0.0067 -0.2801 -0.0037
  182SLPC   C3120842   0.261   5.990   9.898 -0.1021 -0.5846  0.1611
  182SLPC   O3220843   0.214   6.101   9.926 -0.9962  0.1117 -0.0059
  182SLPC   C3220844   0.363   5.961   9.792  0.7322 -0.2579  0.2449
  182SLPC   H2X20845   0.323   5.889   9.717 -3.3471 -0.3041  2.2071
  182SLPC   H2Y20846   0.451   5.909   9.835  0.7422 -0.0976  0.4206
  182SLPC   C2320847  -0.266   5.516   9.852  0.0338  0.7729 -0.6014
  182SLPC   H3R20848  -0.350   5.582   9.881 -0.0949  1.1189 -1.7202
  182SLPC   H3S20849  -0.275   5.435   9.928 -3.2537  0.5783 -1.0621
  182SLPC   C2420850  -0.315   5.464   9.714 -0.2859  0.4137 -0.1102
  182SLPC   H4R20851  -0.418   5.423   9.721 -0.1648 -0.3413 -2.0854
  182SLPC   H4S20852  -0.259   5.374   9.679 -0.3599 -0.2895  1.4894
  182SLPC   C2520853  -0.297   5.569   9.605 -0.4170 -0.2626  0.0107
  182SLPC   H5R20854  -0.192   5.593   9.579 -0.6344  1.9344  0.9286
  182SLPC   H5S20855  -0.337   5.668   9.638  0.5216  0.0423  0.2679
  182SLPC   C2620856  -0.379   5.534   9.476  0.1400  0.3265  1.0691
  182SLPC   H6R20857  -0.370   5.616   9.401 -2.2063  1.4827  1.9472
  182SLPC   H6S20858  -0.485   5.521   9.509 -0.9456 -0.5967 -2.3962
  182SLPC   C2720859  -0.337   5.405   9.408 -0.3533  0.5454  1.1636
  182SLPC   H7R20860  -0.376   5.314   9.457  2.5413 -1.2870  0.2902
  182SLPC   H7S20861  -0.226   5.401   9.410 -0.2193  0.0549 -1.9464
  182SLPC   C2820862  -0.364   5.410   9.254  0.1791  0.1159  0.6197
  182SLPC   H8R20863  -0.321   5.509   9.228 -0.6394  0.6072  1.0753
  182SLPC   H8S20864  -0.475   5.409   9.249  0.0630 -2.0542  2.2967
  182SLPC   C2920865  -0.310   5.287   9.188  0.1169 -0.1673  0.1749
  182SLPC   H9R20866  -0.331   5.193   9.240  2.3634 -0.4373  0.7180
  182SLPC  C21020867  -0.247   5.285   9.071 -0.5218  0.2229  0.3881
  182SLPC  H10R20868  -0.192   5.195   9.037  1.2009  1.2492  0.3295
  182SLPC  C21120869  -0.223   5.408   8.988  0.0214  0.2552  0.3365
  182SLPC  H11R20870  -0.160   5.480   9.046  0.5342 -1.4282  1.9724
  182SLPC  H11S20871  -0.320   5.461   8.981  0.0675  0.4549  1.0897
  182SLPC  C21220872  -0.168   5.380   8.850 -0.6542  0.0329 -0.6382
  182SLPC  H12R20873  -0.100   5.293   8.847  2.8571  2.5591 -1.3557
  182SLPC  C21320874  -0.199   5.454   8.742 -0.0007  0.2663 -0.0214
  182SLPC  H13R20875  -0.144   5.429   8.650  2.0190 -1.2283  1.4913
  182SLPC  C21420876  -0.293   5.570   8.735 -0.5189 -0.1351 -0.3564
  182SLPC  H14R20877  -0.250   5.648   8.668 -0.7895 -1.4149 -2.0769
  182SLPC  H14S20878  -0.304   5.619   8.834  5.6851 -0.1701  0.7391
  182SLPC  C21520879  -0.431   5.538   8.685 -0.5219  0.4409  0.0614
  182SLPC  H15R20880  -0.482   5.491   8.772 -2.5172  0.7824 -0.8788
  182SLPC  H15S20881  -0.433   5.475   8.593 -0.5150  1.3941 -0.6092
  182SLPC  C21620882  -0.519   5.658   8.644 -0.3128  0.4419 -1.3241
  182SLPC  H16R20883  -0.488   5.705   8.548 -0.4735  1.0120 -1.0978
  182SLPC  H16S20884  -0.495   5.740   8.715 -0.1195  1.2910 -2.3523
  182SLPC  C21720885  -0.673   5.637   8.638  0.6319 -0.3028  0.1723
  182SLPC  H17R20886  -0.716   5.590   8.728 -0.5840 -1.1640 -0.8161
  182SLPC  H17S20887  -0.685   5.556   8.562 -0.0265  0.3889 -0.4902
  182SLPC  C21820888  -0.761   5.759   8.588 -0.1630  0.6492  0.1623
  182SLPC  H18R20889  -0.733   5.789   8.485  0.0153 -2.2980 -0.7514
  182SLPC  H18S20890  -0.754   5.839   8.665 -1.9705 -0.3498  1.4390
  182SLPC  H18T20891  -0.870   5.740   8.591 -0.1627  0.7302  0.8571
  182SLPC   C3320892   0.424   6.093   9.721 -0.7218 -0.3368  0.3979
  182SLPC   H3X20893   0.467   6.158   9.800 -1.4239  0.0587  0.4612
  182SLPC   H3Y20894   0.349   6.156   9.669  1.3577  1.4756 -0.5411
  182SLPC   C3420895   0.532   6.059   9.611 -0.0715  0.8494 -0.4156
  182SLPC   H4X20896   0.614   6.019   9.674 -1.6272 -1.7008  0.0952
  182SLPC   H4Y20897   0.563   6.155   9.563  2.3549 -0.2490 -1.1854
  182SLPC   C3520898   0.496   5.963   9.504  1.0978  0.6967  0.2652
  182SLPC   H5X20899   0.489   5.861   9.547  0.3030  0.0761 -1.2367
  182SLPC   H5Y20900   0.568   5.957   9.420 -0.4085  2.3873 -1.2357
  182SLPC   C3620901   0.361   5.999   9.436  1.2284 -0.0474 -0.3592
  182SLPC   H6X20902   0.279   5.998   9.511 -2.8933 -0.5370 -4.4443
  182SLPC   H6Y20903   0.335   5.913   9.371 -1.8248  0.1916  0.3831
  182SLPC   C3720904   0.351   6.135   9.363  0.0642 -0.1553 -0.8114
  182SLPC   H7X20905   0.366   6.219   9.434 -0.4351 -0.7960  0.0734
  182SLPC   H7Y20906   0.251   6.139   9.315  0.1200  0.8530 -0.8545
  182SLPC   C3820907   0.455   6.154   9.255  0.2283 -0.3802 -0.3332
  182SLPC   H8X20908   0.557   6.138   9.295  1.0852  0.8109 -1.9093
  182SLPC   H8Y20909   0.457   6.260   9.223  1.8291 -0.3403 -0.1914
  182SLPC   C3920910   0.440   6.074   9.131  0.2438  0.6505  0.0663
  182SLPC   H9X20911   0.339   6.100   9.093 -0.3682 -1.0618  0.4704
  182SLPC   H9Y20912   0.453   5.966   9.152  1.0135  0.6710 -0.2480
  182SLPC  C31020913   0.547   6.110   9.029 -0.0878  0.4725  0.1982
  182SLPC  H10X20914   0.648   6.069   9.050 -1.2843 -1.4487  2.8025
  182SLPC  H10Y20915   0.551   6.221   9.037 -0.2153  0.3526  2.4692
  182SLPC  C31120916   0.499   6.067   8.889 -0.6665 -0.5227 -0.6557
  182SLPC  H11X20917   0.407   6.125   8.870 -0.7511  0.0505  1.3772
  182SLPC  H11Y20918   0.475   5.960   8.906 -0.7095 -0.0834  2.5120
  182SLPC  C31220919   0.597   6.090   8.773 -0.9459 -0.0617  0.1566
  182SLPC  H12X20920   0.698   6.048   8.790 -1.3319 -1.2720 -0.3962
  182SLPC  H12Y20921   0.613   6.200   8.773 -1.0670 -0.0430  0.1736
  182SLPC  C31320922   0.550   6.054   8.632 -0.5291  0.6068  0.0414
  182SLPC  H13X20923   0.439   6.051   8.635 -0.5573 -2.5620 -0.6966
  182SLPC  H13Y20924   0.576   5.947   8.623  0.1468  0.7730 -0.0007
  182SLPC  C31420925   0.610   6.135   8.516  0.0193  0.1505  0.0934
  182SLPC  H14X20926   0.719   6.156   8.522 -0.0131  0.8314 -1.3258
  182SLPC  H14Y20927   0.562   6.235   8.515 -0.7499 -0.2032  0.5016
  182SLPC  C31520928   0.586   6.062   8.387  0.0041 -0.2659  0.0490
  182SLPC  H15X20929   0.481   6.037   8.362  0.3515  1.6148 -4.0561
  182SLPC  H15Y20930   0.649   5.971   8.389  0.4070  0.0041 -0.2288
  182SLPC  C31620931   0.640   6.156   8.266 -0.5754 -0.8231 -0.9306
  182SLPC  H16X20932   0.650   6.086   8.181 -2.2704  1.4744 -3.1816
  182SLPC  H16Y20933   0.745   6.190   8.278 -1.5506  1.5137  3.3925
  182SLPC  C31720934   0.542   6.262   8.207  0.4347  0.3057 -0.0632
  182SLPC  H17X20935   0.545   6.361   8.257 -1.4977  0.6872 -0.5957
  182SLPC  H17Y20936   0.448   6.216   8.246  0.5559  0.8391  0.8616
  182SLPC  C31820937   0.555   6.268   8.056  0.7922  0.3955 -0.3521
  182SLPC  H18X20938   0.498   6.348   8.004  1.8596  0.4101 -1.5588
  182SLPC  H18Y20939   0.529   6.175   8.001  0.6856  1.6161 -2.4729
  182SLPC  H18Z20940   0.661   6.293   8.034 -0.0832  2.5274 -2.6042
  183SLPC     N20941   1.065   6.619  11.108 -0.4918  0.0772  0.1758
  183SLPC   C1320942   1.167   6.638  11.217  0.3428  0.5492  0.0754
  183SLPC  H13A20943   1.139   6.728  11.271  1.2753  1.4482 -0.8786
  183SLPC  H13B20944   1.162   6.552  11.281 -0.4439 -0.3230 -1.1180
  183SLPC  H13C20945   1.265   6.648  11.173 -0.5523  2.1580 -1.7647
  183SLPC   C1420946   0.924   6.632  11.152 -0.5087 -0.1278  0.3250
  183SLPC  H14A20947   0.900   6.565  11.233  1.0214  0.5703  1.4109
  183SLPC  H14B20948   0.895   6.734  11.176 -0.1192 -0.3595  1.9308
  183SLPC  H14C20949   0.864   6.597  11.070  0.7639  0.4630 -0.8909
  183SLPC   C1520950   1.085   6.477  11.065 -0.1714 -0.0382  0.4479
  183SLPC  H15A20951   1.019   6.460  10.982 -1.4989  2.5044  0.8942
  183SLPC  H15B20952   1.184   6.449  11.032 -1.0590 -1.7671 -0.9181
  183SLPC  H15C20953   1.050   6.412  11.144 -3.6040 -0.4022 -1.2073
  183SLPC   C1220954   1.090   6.711  10.991  0.5557  0.2373  0.5437
  183SLPC  H12A20955   1.054   6.807  11.024  0.8182  0.8587 -0.8936
  183SLPC  H12B20956   1.024   6.672  10.915  0.0419 -1.2689  1.7054
  183SLPC   C1120957   1.235   6.717  10.929  0.8508 -0.0247 -0.2320
  183SLPC  H11A20958   1.304   6.741  11.013  1.0775  0.8088 -0.6443
  183SLPC  H11B20959   1.228   6.802  10.857  2.4579  1.2803  1.0549
  183SLPC     P20960   1.239   6.539  10.730  0.1275  0.3847  0.3898
  183SLPC   O1320961   1.355   6.473  10.667  0.4909  0.1076 -0.1974
  183SLPC   O1420962   1.116   6.458  10.731 -0.0315  0.2565  0.1652
  183SLPC   O1220963   1.277   6.590  10.869  0.5694 -0.5193  0.1327
  183SLPC   O1120964   1.207   6.664  10.643 -0.4412 -0.3289  0.0927
  183SLPC    C120965   1.265   6.687  10.513 -0.2306  0.0822  0.3092
  183SLPC    HA20966   1.252   6.793  10.484  0.3468 -0.1716 -0.9442
  183SLPC    HB20967   1.375   6.670  10.510  0.1894  2.5979 -1.2098
  183SLPC    C220968   1.201   6.590  10.413  0.6280  0.0137 -0.9771
  183SLPC    HS20969   1.198   6.487  10.456 -1.0731  0.5574  0.3143
  183SLPC   O2120970   1.266   6.603  10.287 -0.1260 -0.1083  0.0247
  183SLPC   C2120971   1.359   6.515  10.266  0.3750 -0.2968  0.5342
  183SLPC   O2220972   1.388   6.421  10.334 -0.7577 -0.4361 -0.0064
  183SLPC   C2220973   1.426   6.552  10.130  0.3044 -0.5136  0.1155
  183SLPC   H2R20974   1.352   6.538  10.048 -0.0567  0.6548  0.2165
  183SLPC   H2S20975   1.441   6.661  10.145 -0.1792 -0.7685  2.9325
  183SLPC    C320976   1.047   6.627  10.395  0.2166  0.0717 -0.3341
  183SLPC    HX20977   1.042   6.735  10.369 -1.0828 -0.3420 -2.0159
  183SLPC    HY20978   1.014   6.605  10.498  2.0900 -2.8160 -0.2409
  183SLPC   O3120979   0.981   6.538  10.303 -0.4174  0.1384 -0.5939
  183SLPC   C3120980   0.883   6.589  10.230 -0.5576 -0.4205  0.5361
  183SLPC   O3220981   0.860   6.710  10.225  0.3694 -0.4472  0.4328
  183SLPC   C3220982   0.812   6.497  10.129 -0.3668  0.3097 -0.0723
  183SLPC   H2X20983   0.702   6.512  10.136 -0.6785 -0.6585 -2.2295
  183SLPC   H2Y20984   0.834   6.391  10.156  0.5906 -0.8340 -4.5375
  183SLPC   C2320985   1.568   6.484  10.114 -0.5304 -0.0548  0.2639
  183SLPC   H3R20986   1.561   6.378  10.082  0.6531 -0.3363  0.8951
  183SLPC   H3S20987   1.614   6.483  10.216 -1.6460  2.0852  0.8518
  183SLPC   C2420988   1.661   6.557  10.016  0.0660  0.1711  0.4218
  183SLPC   H4R20989   1.754   6.497  10.010  1.4026  2.0045  1.7674
  183SLPC   H4S20990   1.697   6.652  10.060 -0.5228  0.0848  1.1034
  183SLPC   C2520991   1.605   6.589   9.876 -0.0133 -0.1016 -0.2142
  183SLPC   H5R20992   1.505   6.635   9.887  0.1242  0.1068  0.1980
  183SLPC   H5S20993   1.599   6.493   9.821 -0.1227  1.1804 -2.6119
  183SLPC   C2620994   1.712   6.671   9.799 -0.1371 -0.3874  0.5249
  183SLPC   H6R20995   1.796   6.600   9.784  1.3502  1.2927  0.6543
  183SLPC   H6S20996   1.746   6.755   9.863  1.5758 -0.0775 -0.7230
  183SLPC   C2720997   1.642   6.719   9.667 -0.1951  0.7121 -0.4172
  183SLPC   H7R20998   1.550   6.772   9.699  0.8294  1.8567  0.7281
  183SLPC   H7S20999   1.602   6.639   9.601  1.9113  1.2580 -2.5076
  183SLPC   C2821000   1.730   6.814   9.584 -0.5490  0.5840  0.1470
  183SLPC   H8R21001   1.801   6.878   9.641  0.7521  0.0116 -0.7746
  183SLPC   H8S21002   1.661   6.877   9.524 -1.8622  0.3516  1.3565
  183SLPC   C2921003   1.819   6.726   9.499  0.1138 -0.5615 -0.5363
  183SLPC   H9R21004   1.898   6.670   9.551 -1.4416 -0.9954  1.4771
  183SLPC  C21021005   1.800   6.688   9.373  0.0022 -0.5240  0.3309
  183SLPC  H10R21006   1.876   6.636   9.313 -0.8295 -2.8137  1.1379
  183SLPC  C21121007   1.687   6.741   9.288 -0.2537  0.2807 -0.0763
  183SLPC  H11R21008   1.638   6.832   9.326 -0.3911  0.5959 -0.9888
  183SLPC  H11S21009   1.609   6.666   9.314 -1.2312  1.0125 -0.8293
  183SLPC  C21221010   1.715   6.751   9.143  0.0366  0.4237 -0.3522
  183SLPC  H12R21011   1.643   6.697   9.080  0.6349 -1.1118  0.2504
  183SLPC  C21321012   1.812   6.813   9.075 -0.3646 -0.1041 -0.2234
  183SLPC  H13R21013   1.815   6.812   8.965  3.2228 -0.2350 -0.2565
  183SLPC  C21421014   1.920   6.899   9.135 -0.0382 -0.3832 -0.1953
  183SLPC  H14R21015   1.888   6.936   9.235 -1.5947  0.1777 -0.8707
  183SLPC  H14S21016   1.939   6.995   9.083  0.6344  0.3315  1.2923
  183SLPC  C21521017   2.063   6.837   9.140 -0.3153 -0.8672  0.8455
  183SLPC  H15R21018   2.124   6.859   9.050 -0.6335  0.8487  1.0261
  183SLPC  H15S21019   2.051   6.726   9.144  1.3697 -1.0926  0.4844
  183SLPC  C21621020   2.144   6.880   9.265  0.7798 -0.1389  0.2313
  183SLPC  H16R21021   2.077   6.872   9.353 -0.2930 -1.5523 -0.6707
  183SLPC  H16S21022   2.177   6.986   9.255 -0.2515  0.0183 -2.4821
  183SLPC  C21721023   2.283   6.816   9.272 -0.4718  0.3892 -0.3786
  183SLPC  H17R21024   2.343   6.817   9.179 -0.3820 -0.3961 -0.3373
  183SLPC  H17S21025   2.262   6.708   9.290  1.5231 -0.2330 -1.5494
  183SLPC  C21821026   2.371   6.885   9.377 -0.1810  0.2373  0.3652
  183SLPC  H18R21027   2.370   6.994   9.358  0.9352  0.2909  0.5639
  183SLPC  H18S21028   2.477   6.854   9.365 -0.1183  1.1838 -2.0140
  183SLPC  H18T21029   2.331   6.873   9.480  1.2005  0.3674  0.9344
  183SLPC   C3321030   0.862   6.523   9.987  0.2466 -0.2750  0.1081
  183SLPC   H3X21031   0.963   6.483   9.964  0.1604  0.7229 -2.2493
  183SLPC   H3Y21032   0.872   6.633   9.974  3.4333 -0.1708  2.2714
  183SLPC   C3421033   0.757   6.470   9.891  0.6790  0.3278  0.0173
  183SLPC   H4X21034   0.659   6.513   9.918 -0.5379 -1.3423 -1.5071
  183SLPC   H4Y21035   0.754   6.361   9.907 -0.9608 -0.1924 -3.0329
  183SLPC   C3521036   0.791   6.492   9.745  0.0175  0.0103  0.1247
  183SLPC   H5X21037   0.840   6.591   9.746  3.9060 -1.7001 -0.9925
  183SLPC   H5Y21038   0.702   6.494   9.678 -0.1786 -0.2584  0.3765
  183SLPC   C3621039   0.896   6.387   9.701 -0.1174 -0.6146 -0.1045
  183SLPC   H6X21040   0.847   6.287   9.708 -0.2695 -0.5396 -0.0985
  183SLPC   H6Y21041   0.986   6.389   9.766  2.0925 -1.3645 -2.9200
  183SLPC   C3721042   0.935   6.395   9.560 -0.2544 -0.4035  0.2050
  183SLPC   H7X21043   1.038   6.363   9.535 -0.6225 -0.0293 -1.9879
  183SLPC   H7Y21044   0.936   6.505   9.540  0.8999 -0.5452 -0.5766
  183SLPC   C3821045   0.836   6.351   9.455  0.2487  0.1153  0.0929
  183SLPC   H8X21046   0.740   6.405   9.469 -0.1022 -0.6947  0.9019
  183SLPC   H8Y21047   0.810   6.245   9.474 -1.3636  0.7439  1.6916
  183SLPC   C3921048   0.885   6.377   9.310 -0.0251 -0.0156  0.1666
  183SLPC   H9X21049   0.961   6.304   9.275  0.0573  0.2001 -0.1051
  183SLPC   H9Y21050   0.947   6.469   9.309 -1.2520  0.8416 -0.0078
  183SLPC  C31021051   0.769   6.380   9.213  0.5271  0.1592  0.2055
  183SLPC  H10X21052   0.694   6.457   9.243  1.1629  2.1393 -2.8157
  183SLPC  H10Y21053   0.722   6.279   9.210 -1.7397  1.1475 -2.5211
  183SLPC  C31121054   0.817   6.406   9.071  0.0913  0.3474  0.1850
  183SLPC  H11X21055   0.856   6.311   9.030 -0.2294  0.5263 -0.5481
  183SLPC  H11Y21056   0.898   6.482   9.077  0.4211  0.0242 -0.1337
  183SLPC  C31221057   0.704   6.478   8.988  0.3471  0.5218 -0.9985
  183SLPC  H12X21058   0.657   6.568   9.034 -1.2750  0.8549 -3.1503
  183SLPC  H12Y21059   0.619   6.407   8.977  0.7402  0.0459 -1.0122
  183SLPC  C31321060   0.748   6.525   8.851  1.1337  0.5208  0.3440
  183SLPC  H13X21061   0.752   6.448   8.771  1.1733  2.5692 -1.7370
  183SLPC  H13Y21062   0.845   6.579   8.852  1.1634  0.4780  1.8462
  183SLPC  C31421063   0.636   6.624   8.796  0.3598  0.9924  0.2592
  183SLPC  H14X21064   0.589   6.669   8.885 -0.9898 -1.3483  0.8167
  183SLPC  H14Y21065   0.564   6.562   8.739  1.7030  1.7499 -2.4403
  183SLPC  C31521066   0.701   6.727   8.709 -0.2706  0.7107  0.5394
  183SLPC  H15X21067   0.619   6.764   8.644  1.4290  2.2629 -0.8454
  183SLPC  H15Y21068   0.780   6.688   8.642 -1.4354 -2.2235  0.7558
  183SLPC  C31621069   0.739   6.851   8.776  0.2397  0.3176 -0.3202
  183SLPC  H16X21070   0.817   6.834   8.853  0.3380 -0.8153 -0.6535
  183SLPC  H16Y21071   0.648   6.902   8.817 -1.0360  0.0516 -2.6527
  183SLPC  C31721072   0.795   6.967   8.686  0.1469 -0.0544 -0.1267
  183SLPC  H17X21073   0.887   6.932   8.636 -0.2006  0.6072 -1.2760
  183SLPC  H17Y21074   0.812   7.053   8.755  0.1894 -0.1255 -0.0471
  183SLPC  C31821075   0.695   7.025   8.579  0.3125  0.3488  0.2027
  183SLPC  H18X21076   0.589   7.001   8.602  0.0939  0.7031 -0.4076
  183SLPC  H18Y21077   0.709   6.986   8.476  0.3099  1.2694 -0.1554
  183SLPC  H18Z21078   0.706   7.135   8.578  0.9482  0.2862  0.0289
  184SLPC     N21079   3.676   5.799  11.068 -0.2342 -0.2971  0.9550
  184SLPC   C1321080   3.653   5.658  11.113 -0.2429  0.8782  0.0583
  184SLPC  H13A21081   3.722   5.634  11.192  1.1301  0.2387 -1.2610
  184SLPC  H13B21082   3.556   5.629  11.149 -0.6250  1.5159 -0.4296
  184SLPC  H13C21083   3.676   5.595  11.028 -1.2641  0.7644 -0.1434
  184SLPC   C1421084   3.820   5.817  11.036 -0.4458 -0.3273  0.3119
  184SLPC  H14A21085   3.834   5.909  10.980  0.6631  0.4065  1.7015
  184SLPC  H14B21086   3.886   5.828  11.121  1.0208 -3.1148 -0.3579
  184SLPC  H14C21087   3.855   5.735  10.975  0.6523  2.6062 -3.4733
  184SLPC   C1521088   3.640   5.897  11.174 -0.4740 -0.1159 -0.3102
  184SLPC  H15A21089   3.702   5.878  11.261 -0.2985 -2.2023 -0.8202
  184SLPC  H15B21090   3.659   5.998  11.141 -0.1302 -0.5128 -1.3694
  184SLPC  H15C21091   3.540   5.881  11.209  0.3357 -0.2804  2.0845
  184SLPC   C1221092   3.588   5.829  10.946 -0.5006  0.6021  0.0146
  184SLPC  H12A21093   3.488   5.799  10.972 -0.1915 -0.0335  0.5155
  184SLPC  H12B21094   3.615   5.762  10.866 -1.2852 -0.8936  0.9587
  184SLPC   C1121095   3.597   5.970  10.892 -0.0718 -0.0996  0.5841
  184SLPC  H11A21096   3.574   6.047  10.968  2.2441  1.0712  0.1904
  184SLPC  H11B21097   3.518   5.982  10.814  3.2212  2.8615 -2.6991
  184SLPC     P21098   3.764   5.942  10.687 -0.1962 -0.2885  0.2137
  184SLPC   O1321099   3.910   5.928  10.680 -0.2576 -0.2693 -0.1499
  184SLPC   O1421100   3.682   5.825  10.670 -0.1573  0.2542  0.4655
  184SLPC   O1221101   3.717   6.006  10.821 -0.2822 -0.3422 -0.0663
  184SLPC   O1121102   3.719   6.045  10.581 -0.2361  0.0583  0.4337
  184SLPC    C121103   3.708   6.187  10.600 -0.1906 -0.2148  0.5884
  184SLPC    HA21104   3.622   6.218  10.663  0.9556 -1.5423  2.9296
  184SLPC    HB21105   3.806   6.227  10.633 -0.2618 -0.4145  1.0462
  184SLPC    C221106   3.692   6.254  10.461  0.3796  0.2524  0.4559
  184SLPC    HS21107   3.691   6.364  10.476 -0.0278  0.2057  0.8179
  184SLPC   O2121108   3.570   6.207  10.396 -0.1890  0.3018 -0.4887
  184SLPC   C2121109   3.455   6.259  10.427 -0.1940 -0.2321 -0.1879
  184SLPC   O2221110   3.436   6.337  10.525  0.1766  0.5245  0.0087
  184SLPC   C2221111   3.345   6.201  10.341 -0.6195  0.1886  0.1465
  184SLPC   H2R21112   3.395   6.191  10.242  0.8093 -0.5144  0.9152
  184SLPC   H2S21113   3.326   6.095  10.367  1.0371 -0.1593 -0.0038
  184SLPC    C321114   3.813   6.227  10.367 -0.4661  0.1601  0.0380
  184SLPC    HX21115   3.817   6.121  10.335 -0.4003  0.3725 -0.6803
  184SLPC    HY21116   3.904   6.242  10.429  0.1342 -0.9252 -0.5556
  184SLPC   O3121117   3.805   6.322  10.258  0.4975 -0.0331  0.6397
  184SLPC   C3121118   3.889   6.295  10.161 -0.4196  0.1475 -0.6656
  184SLPC   O3221119   3.984   6.220  10.164 -0.4139 -0.1877  0.2570
  184SLPC   C3221120   3.857   6.378  10.039 -0.1696  0.6673  0.0788
  184SLPC   H2X21121   3.900   6.480  10.049  0.9225  0.1994  0.3033
  184SLPC   H2Y21122   3.746   6.384  10.041 -0.2339  0.2132 -0.9826
  184SLPC   C2321123   3.215   6.277  10.335  0.3384  0.1093 -0.5493
  184SLPC   H3R21124   3.166   6.276  10.435  1.9359 -0.8864  0.2606
  184SLPC   H3S21125   3.162   6.237  10.245 -0.9391  1.2719 -0.3446
  184SLPC   C2421126   3.235   6.426  10.309  0.7594 -0.8208  0.2795
  184SLPC   H4R21127   3.318   6.435  10.236 -0.4628  3.5930 -0.8756
  184SLPC   H4S21128   3.272   6.476  10.401  0.3879 -1.8698  1.0189
  184SLPC   C2521129   3.116   6.496  10.247 -0.0393  0.1637 -0.0102
  184SLPC   H5R21130   3.057   6.544  10.328 -0.2589 -1.5856  0.9149
  184SLPC   H5S21131   3.051   6.423  10.194  1.9464 -2.6624  1.2136
  184SLPC   C2621132   3.140   6.598  10.132  0.0398 -0.1904 -0.9137
  184SLPC   H6R21133   3.226   6.659  10.167 -0.0260 -0.7381  0.2968
  184SLPC   H6S21134   3.042   6.647  10.111  0.0227  0.9135  1.4164
  184SLPC   C2721135   3.191   6.546   9.995 -0.4472 -0.0344 -0.2705
  184SLPC   H7R21136   3.121   6.481   9.939 -2.3647  2.2314 -0.6382
  184SLPC   H7S21137   3.265   6.465  10.016  1.2901  0.5352 -3.5687
  184SLPC   C2821138   3.263   6.660   9.906  0.4499  0.3401  0.3965
  184SLPC   H8R21139   3.322   6.606   9.829 -1.7432 -1.9400  0.1943
  184SLPC   H8S21140   3.327   6.723   9.971  2.3240 -0.3822 -0.6539
  184SLPC   C2921141   3.162   6.749   9.845  0.5269  0.1251  0.0830
  184SLPC   H9R21142   3.087   6.790   9.914 -1.0683 -0.1853 -1.3977
  184SLPC  C21021143   3.165   6.794   9.714  0.1399  0.0144 -0.7670
  184SLPC  H10R21144   3.077   6.851   9.679 -0.5666 -0.7699 -0.2792
  184SLPC  C21121145   3.265   6.748   9.603  0.3851 -0.2835  0.0168
  184SLPC  H11R21146   3.267   6.638   9.595 -0.7997 -0.5269  2.2436
  184SLPC  H11S21147   3.372   6.770   9.627  1.0365 -2.7053 -0.4896
  184SLPC  C21221148   3.236   6.821   9.473  0.6264  0.3464 -0.3902
  184SLPC  H12R21149   3.265   6.927   9.472  0.1699  0.4806 -1.8022
  184SLPC  C21321150   3.162   6.765   9.373 -0.1107  0.0292 -1.3468
  184SLPC  H13R21151   3.133   6.821   9.283 -0.7835  0.9014 -0.6074
  184SLPC  C21421152   3.112   6.623   9.378  0.4117  0.0715  0.0060
  184SLPC  H14R21153   3.003   6.620   9.356  0.4470  1.0486 -0.3419
  184SLPC  H14S21154   3.112   6.583   9.481  0.5244  1.5527  0.6048
  184SLPC  C21521155   3.186   6.521   9.285  0.3892  0.3133  0.3321
  184SLPC  H15R21156   3.176   6.420   9.331 -0.0719 -0.0962 -0.6419
  184SLPC  H15S21157   3.291   6.552   9.264  0.3777 -0.2026 -0.5526
  184SLPC  C21621158   3.114   6.514   9.148  0.2339 -0.3283 -0.5794
  184SLPC  H16R21159   3.100   6.619   9.114  0.3979 -0.6342 -1.6190
  184SLPC  H16S21160   3.021   6.461   9.176  1.5778 -3.7593 -2.0181
  184SLPC  C21721161   3.189   6.436   9.044 -0.3193 -0.1357 -1.1969
  184SLPC  H17R21162   3.221   6.340   9.090  1.1613  1.4225  1.2082
  184SLPC  H17S21163   3.283   6.491   9.021 -0.0964  0.5311  1.1281
  184SLPC  C21821164   3.106   6.416   8.924  0.5190  0.3281 -0.2009
  184SLPC  H18R21165   3.148   6.354   8.842 -2.2518  1.2320 -2.4339
  184SLPC  H18S21166   3.072   6.515   8.887 -0.4435  0.6666  1.4602
  184SLPC  H18T21167   3.009   6.367   8.948 -1.6621  4.4517  0.3987
  184SLPC   C3321168   3.898   6.318   9.902  0.4976 -1.0815 -0.8394
  184SLPC   H3X21169   4.003   6.286   9.917  0.0974 -1.2108  2.4138
  184SLPC   H3Y21170   3.909   6.401   9.828 -1.2642 -0.6240 -0.6409
  184SLPC   C3421171   3.806   6.207   9.845  0.1091 -0.1028 -0.3678
  184SLPC   H4X21172   3.700   6.232   9.865  0.6183  0.5444  1.7344
  184SLPC   H4Y21173   3.819   6.119   9.911 -0.1608  0.5770  0.5981
  184SLPC   C3521174   3.853   6.166   9.702  0.8964 -1.7491  0.2539
  184SLPC   H5X21175   3.788   6.079   9.676 -1.9959 -0.3406  2.2413
  184SLPC   H5Y21176   3.959   6.134   9.702  0.6866 -2.5615 -1.3665
  184SLPC   C3621177   3.812   6.270   9.592 -0.3823 -0.1814 -0.0362
  184SLPC   H6X21178   3.876   6.358   9.614 -1.5698  0.4543  1.0734
  184SLPC   H6Y21179   3.706   6.297   9.614 -1.1040 -2.0596 -0.9736
  184SLPC   C3721180   3.817   6.230   9.445 -0.4395 -0.6301  0.7562
  184SLPC   H7X21181   3.763   6.133   9.438 -1.1298 -0.4565  2.7871
  184SLPC   H7Y21182   3.926   6.221   9.426 -0.5071 -0.2080  0.1540
  184SLPC   C3821183   3.758   6.339   9.348 -0.4829 -0.0087 -0.1225
  184SLPC   H8X21184   3.837   6.418   9.350  0.2674 -0.7089 -0.8859
  184SLPC   H8Y21185   3.664   6.380   9.389  0.2215 -0.1352  1.7277
  184SLPC   C3921186   3.725   6.303   9.207 -0.6914  0.0484 -0.0580
  184SLPC   H9X21187   3.808   6.243   9.164 -1.8719 -1.4136 -0.3960
  184SLPC   H9Y21188   3.722   6.400   9.153 -1.7885 -0.8228 -1.6497
  184SLPC  C31021189   3.598   6.231   9.189  0.0706 -0.1158  0.4022
  184SLPC  H10X21190   3.516   6.269   9.254 -1.5291 -2.1896 -0.2645
  184SLPC  H10Y21191   3.621   6.127   9.223  0.2483  0.3569  1.7876
  184SLPC  C31121192   3.543   6.221   9.044  0.1124  0.2394  0.1279
  184SLPC  H11X21193   3.632   6.204   8.979 -0.0978  2.8395 -0.9504
  184SLPC  H11Y21194   3.495   6.313   9.004  2.6426  1.6013  0.0577
  184SLPC  C31221195   3.452   6.099   9.022 -0.6991 -0.3043 -0.2341
  184SLPC  H12X21196   3.352   6.117   9.067  0.0213  0.6651  1.0619
  184SLPC  H12Y21197   3.501   6.009   9.064  1.7560  0.7387 -0.7119
  184SLPC  C31321198   3.433   6.068   8.871 -0.4251  0.3203 -0.3226
  184SLPC  H13X21199   3.534   6.070   8.825 -0.6013  1.0431 -0.6808
  184SLPC  H13Y21200   3.367   6.140   8.818 -0.8600  0.7836  0.8230
  184SLPC  C31421201   3.380   5.925   8.855  0.4717 -0.2748 -0.2431
  184SLPC  H14X21202   3.276   5.918   8.893 -0.0266 -0.2231 -1.5452
  184SLPC  H14Y21203   3.441   5.860   8.921 -0.1052  0.4661  1.0679
  184SLPC  C31521204   3.356   5.883   8.709  0.4538 -0.1607  0.2263
  184SLPC  H15X21205   3.457   5.892   8.665  0.6092  1.4727  0.8491
  184SLPC  H15Y21206   3.290   5.950   8.649 -0.7230 -2.6157 -1.3726
  184SLPC  C31621207   3.306   5.741   8.702 -0.2431  0.2985  0.1246
  184SLPC  H16X21208   3.349   5.671   8.776 -0.1080 -0.0423 -0.2805
  184SLPC  H16Y21209   3.333   5.693   8.606 -2.9143  0.0363 -0.5803
  184SLPC  C31721210   3.154   5.738   8.721  0.2765 -0.0836  0.7291
  184SLPC  H17X21211   3.130   5.791   8.816 -1.2359  0.5853  0.0143
  184SLPC  H17Y21212   3.129   5.633   8.750 -0.5741 -0.4325 -1.1120
  184SLPC  C31821213   3.072   5.804   8.607  0.0208  0.3311  0.8556
  184SLPC  H18X21214   2.965   5.801   8.634 -0.5917  2.0519 -1.0762
  184SLPC  H18Y21215   3.082   5.742   8.516  0.7657  1.1651  0.3409
  184SLPC  H18Z21216   3.102   5.910   8.588 -2.6673  1.2599  1.3432
  185SLPC     N21217   3.580   4.666   5.657  0.4255 -0.0511  0.1880
  185SLPC   C1321218   3.614   4.605   5.521  0.0018 -0.3082  0.2299
  185SLPC  H13A21219   3.681   4.674   5.472 -3.2771  3.4440  0.5147
  185SLPC  H13B21220   3.659   4.507   5.533  0.1749 -0.6111 -2.2163
  185SLPC  H13C21221   3.530   4.610   5.453 -0.4303 -0.8514  0.7152
  185SLPC   C1421222   3.504   4.577   5.737 -0.2762  0.0662  0.3158
  185SLPC  H14A21223   3.507   4.624   5.834  1.7298  1.1704 -0.2133
  185SLPC  H14B21224   3.403   4.558   5.702  0.0560  0.1709 -0.7297
  185SLPC  H14C21225   3.554   4.482   5.744 -0.8191 -0.2943 -0.4751
  185SLPC   C1521226   3.500   4.788   5.643  0.1112 -0.6804  0.0971
  185SLPC  H15A21227   3.404   4.766   5.599  1.4889  0.2161 -3.6907
  185SLPC  H15B21228   3.474   4.832   5.738  2.8797  2.0564 -0.2484
  185SLPC  H15C21229   3.546   4.862   5.580 -1.4439  1.5816  1.4663
  185SLPC   C1221230   3.712   4.704   5.726  0.5703  0.2667 -0.2527
  185SLPC  H12A21231   3.756   4.785   5.670 -1.4615  1.2086 -0.5723
  185SLPC  H12B21232   3.783   4.623   5.723 -1.0193 -1.2043  0.2388
  185SLPC   C1121233   3.710   4.741   5.876 -0.1030  0.1252 -0.1812
  185SLPC  H11A21234   3.632   4.820   5.887 -1.2436 -0.9203 -0.6190
  185SLPC  H11B21235   3.814   4.773   5.901  0.3349 -2.4272  1.6090
  185SLPC     P21236   3.767   4.501   5.970 -0.8972 -0.0363  0.5413
  185SLPC   O1321237   3.687   4.380   5.948  0.4137  0.2533  0.3276
  185SLPC   O1421238   3.888   4.515   5.881  0.1758 -0.5288 -0.1713
  185SLPC   O1221239   3.676   4.635   5.962 -0.3206 -0.0379  0.1502
  185SLPC   O1121240   3.814   4.492   6.118 -0.4334 -0.2132 -0.2251
  185SLPC    C121241   3.856   4.611   6.187  0.6883 -0.2555 -0.5602
  185SLPC    HA21242   3.960   4.627   6.152  0.1326  2.4753 -1.1607
  185SLPC    HB21243   3.805   4.703   6.150 -0.2037  0.2348  1.7132
  185SLPC    C221244   3.832   4.592   6.338 -0.3489  0.6286 -0.0445
  185SLPC    HS21245   3.898   4.667   6.388  1.5746  1.6186 -3.7143
  185SLPC   O2121246   3.863   4.455   6.383  0.1240  0.1339 -0.4015
  185SLPC   C2121247   3.990   4.433   6.408 -0.3972 -0.0550  1.2429
  185SLPC   O2221248   4.079   4.493   6.343 -0.4454  0.1488 -0.1243
  185SLPC   C2221249   4.012   4.334   6.509  0.2114  0.0663  0.3021
  185SLPC   H2R21250   3.918   4.297   6.558  0.2908 -1.0344 -0.3370
  185SLPC   H2S21251   4.072   4.252   6.464 -0.5010 -0.4969  0.3438
  185SLPC    C321252   3.692   4.643   6.377  0.3569  0.4241  0.0025
  185SLPC    HX21253   3.619   4.582   6.320  0.2046  2.1087 -1.6850
  185SLPC    HY21254   3.683   4.749   6.345  0.2296  0.9050  1.5386
  185SLPC   O3121255   3.667   4.629   6.514  0.1405 -0.0592 -0.4255
  185SLPC   C3121256   3.619   4.513   6.563  0.2706 -0.1268  0.0309
  185SLPC   O3221257   3.597   4.413   6.497 -0.8789  0.1585 -0.0730
  185SLPC   C3221258   3.595   4.523   6.709 -0.7717  0.9741 -0.2173
  185SLPC   H2X21259   3.514   4.595   6.731 -2.5812 -1.2937  1.0265
  185SLPC   H2Y21260   3.686   4.565   6.757 -1.8737  0.1289  2.8781
  185SLPC   C2321261   4.095   4.393   6.628 -0.5656  0.3049  0.1849
  185SLPC   H3R21262   4.177   4.459   6.591 -0.1701  0.4750  1.3381
  185SLPC   H3S21263   4.135   4.304   6.681 -0.0078  0.5427  0.1730
  185SLPC   C2421264   4.018   4.478   6.740  0.4113 -0.0232  0.3178
  185SLPC   H4R21265   3.931   4.414   6.768  1.0359 -0.8100  0.4994
  185SLPC   H4S21266   3.983   4.580   6.716 -1.1862 -0.6911 -0.3126
  185SLPC   C2521267   4.105   4.496   6.864 -0.1520 -0.0383  0.4999
  185SLPC   H5R21268   4.197   4.549   6.831 -0.3516 -0.6508 -1.1126
  185SLPC   H5S21269   4.137   4.402   6.913 -1.6318  0.4651  2.5904
  185SLPC   C2621270   4.051   4.569   6.981 -0.2297 -0.2137 -0.3196
  185SLPC   H6R21271   3.993   4.490   7.033  0.5673 -0.2033  0.6218
  185SLPC   H6S21272   3.983   4.646   6.938  0.8223  0.3279 -1.0310
  185SLPC   C2721273   4.154   4.623   7.074 -0.3279 -0.4168 -0.5008
  185SLPC   H7R21274   4.241   4.654   7.014  1.1644 -2.6358  0.3875
  185SLPC   H7S21275   4.184   4.537   7.137  0.4680  0.6375  0.6122
  185SLPC   C2821276   4.106   4.737   7.166 -0.2061  0.4006 -0.3326
  185SLPC   H8R21277   4.020   4.705   7.228  0.0897 -1.7012 -0.9390
  185SLPC   H8S21278   4.059   4.813   7.100  0.2305  1.0258  0.0655
  185SLPC   C2921279   4.211   4.794   7.257  0.0032 -0.5235  0.1068
  185SLPC   H9R21280   4.281   4.856   7.199 -0.5943 -1.0852 -1.2311
  185SLPC  C21021281   4.238   4.770   7.389 -0.2156 -0.6816 -0.3348
  185SLPC  H10R21282   4.326   4.824   7.428 -0.8191  0.3294 -0.3364
  185SLPC  C21121283   4.162   4.683   7.491 -0.2944 -0.2259 -0.5802
  185SLPC  H11R21284   4.217   4.589   7.517  0.7121  0.9760  1.9611
  185SLPC  H11S21285   4.068   4.644   7.445 -0.7072 -1.9014  1.4859
  185SLPC  C21221286   4.119   4.749   7.619 -0.1437 -0.0679 -0.0432
  185SLPC  H12R21287   4.017   4.791   7.616 -0.2901 -0.1980  2.0853
  185SLPC  C21321288   4.183   4.749   7.738 -0.7604  0.5234  0.2828
  185SLPC  H13R21289   4.144   4.815   7.816  0.6111  2.4126 -0.5455
  185SLPC  C21421290   4.325   4.696   7.764  0.0775 -0.0899 -0.0380
  185SLPC  H14R21291   4.390   4.786   7.764  1.2919 -0.9199 -1.9405
  185SLPC  H14S21292   4.360   4.635   7.678 -0.9770 -0.0786 -0.4835
  185SLPC  C21521293   4.348   4.620   7.894 -0.0820 -0.2961 -0.0234
  185SLPC  H15R21294   4.280   4.534   7.908 -1.0765  0.4779 -0.0115
  185SLPC  H15S21295   4.329   4.686   7.982 -0.6507 -0.7608  0.2082
  185SLPC  C21621296   4.502   4.592   7.904  0.2596 -0.0934  0.2148
  185SLPC  H16R21297   4.562   4.682   7.881 -0.1008 -0.3075 -1.7231
  185SLPC  H16S21298   4.532   4.518   7.826  2.7261  1.7227 -0.6908
  185SLPC  C21721299   4.539   4.529   8.033 -0.4585  0.3712 -1.0278
  185SLPC  H17R21300   4.494   4.429   8.050  2.5400 -0.5680  2.7535
  185SLPC  H17S21301   4.505   4.591   8.118 -0.1743 -0.3733 -0.3653
  185SLPC  C21821302   4.696   4.500   8.024 -0.1715 -0.6159 -0.6858
  185SLPC  H18R21303   4.727   4.439   7.937 -0.4416  1.1958 -2.1014
  185SLPC  H18S21304   4.735   4.457   8.119 -0.4569  0.7442  0.0751
  185SLPC  H18T21305   4.746   4.599   8.016  0.4546 -0.9724 -1.2569
  185SLPC   C3321306   3.566   4.380   6.766 -0.4345 -0.1655  0.4549
  185SLPC   H3X21307   3.653   4.314   6.745 -0.8130 -0.1154 -1.5289
  185SLPC   H3Y21308   3.483   4.318   6.725  1.8792 -2.8208 -0.5661
  185SLPC   C3421309   3.543   4.394   6.919 -0.6795 -0.2068  0.0303
  185SLPC   H4X21310   3.544   4.294   6.968 -0.3723 -0.8231 -1.1925
  185SLPC   H4Y21311   3.450   4.454   6.933  0.2138  1.2160  0.0944
  185SLPC   C3521312   3.661   4.469   6.985  0.3425  0.0341 -0.3484
  185SLPC   H5X21313   3.670   4.575   6.954  0.3473  0.7994  2.0524
  185SLPC   H5Y21314   3.758   4.418   6.967 -0.0948 -1.4230  1.1419
  185SLPC   C3621315   3.648   4.459   7.137  0.4266  0.9860 -0.3695
  185SLPC   H6X21316   3.684   4.360   7.173 -3.8729 -0.2331  1.2864
  185SLPC   H6Y21317   3.546   4.463   7.182  0.8565  1.8341  0.5420
  185SLPC   C3721318   3.711   4.570   7.214 -0.1531  0.0045  0.0750
  185SLPC   H7X21319   3.673   4.667   7.174 -0.3261  0.1345  0.5491
  185SLPC   H7Y21320   3.821   4.558   7.205 -0.0761 -0.0726  1.0327
  185SLPC   C3821321   3.693   4.578   7.370  0.9058  0.1760  0.1413
  185SLPC   H8X21322   3.738   4.488   7.417 -1.7046  0.1247  2.8432
  185SLPC   H8Y21323   3.583   4.570   7.384  1.0053  0.6925  1.2568
  185SLPC   C3921324   3.743   4.705   7.428  0.1896 -0.6788 -0.3255
  185SLPC   H9X21325   3.686   4.776   7.364  0.3053  1.9174  2.2518
  185SLPC   H9Y21326   3.851   4.714   7.405  0.0724 -0.2355 -0.7119
  185SLPC  C31021327   3.679   4.730   7.573 -0.2514 -0.2931  0.9800
  185SLPC  H10X21328   3.735   4.668   7.646 -3.8485 -2.3288  2.2216
  185SLPC  H10Y21329   3.572   4.702   7.573 -0.0488 -1.3724 -1.3917
  185SLPC  C31121330   3.705   4.880   7.604  0.2219 -0.4768  0.1574
  185SLPC  H11X21331   3.633   4.938   7.543 -0.9395 -1.9360  0.0811
  185SLPC  H11Y21332   3.803   4.915   7.565  0.0473  0.2853  0.3883
  185SLPC  C31221333   3.703   4.922   7.750 -0.0263  0.7987  0.3642
  185SLPC  H12X21334   3.599   4.925   7.788 -0.0756 -0.6629  0.4123
  185SLPC  H12Y21335   3.740   5.026   7.765  0.8752  0.6674 -0.7975
  185SLPC  C31321336   3.786   4.829   7.848  0.3530  0.0536  0.8944
  185SLPC  H13X21337   3.878   4.792   7.799 -0.5746 -1.2921  0.1132
  185SLPC  H13Y21338   3.722   4.739   7.859  0.0305  0.4252  2.2035
  185SLPC  C31421339   3.826   4.882   7.984  0.0638  0.7897  0.5391
  185SLPC  H14X21340   3.738   4.935   8.027 -0.2074  0.6813  0.1223
  185SLPC  H14Y21341   3.911   4.954   7.988 -0.9666  1.9928  1.9813
  185SLPC  C31521342   3.866   4.771   8.081  0.3539 -0.5664 -0.5167
  185SLPC  H15X21343   3.955   4.720   8.037  0.4035 -0.6698 -0.2970
  185SLPC  H15Y21344   3.783   4.699   8.088  0.0135 -0.0971  0.5496
  185SLPC  C31621345   3.905   4.821   8.223  0.2399 -0.3348  0.6899
  185SLPC  H16X21346   3.815   4.849   8.281 -0.3708  1.1777 -0.8809
  185SLPC  H16Y21347   3.956   4.919   8.209  3.4789 -2.0379 -0.4015
  185SLPC  C31721348   4.003   4.733   8.308  0.1398 -0.2892  0.2683
  185SLPC  H17X21349   4.079   4.684   8.243 -0.1342  0.4467 -0.6293
  185SLPC  H17Y21350   3.944   4.645   8.341 -0.0623  0.1210  1.0107
  185SLPC  C31821351   4.064   4.808   8.426 -0.4923  0.1172  0.4539
  185SLPC  H18X21352   3.993   4.836   8.507  1.7974  0.3433  2.4991
  185SLPC  H18Y21353   4.096   4.909   8.394 -0.1972 -0.1734 -0.1902
  185SLPC  H18Z21354   4.139   4.740   8.472  0.2368  0.0350 -0.7967
  186SLPC     N21355   4.197   5.723   5.645 -0.3330 -0.5005  0.5508
  186SLPC   C1321356   4.289   5.604   5.611  0.1413 -0.5345  0.3195
  186SLPC  H13A21357   4.238   5.515   5.645 -0.1007 -0.7215 -0.5049
  186SLPC  H13B21358   4.311   5.615   5.506 -0.5590  2.4757  0.4026
  186SLPC  H13C21359   4.377   5.603   5.673  2.0682  0.4275 -2.2558
  186SLPC   C1421360   4.060   5.715   5.581  0.6692  0.2914 -0.5151
  186SLPC  H14A21361   4.061   5.674   5.481 -1.4697  1.4814 -1.0816
  186SLPC  H14B21362   3.987   5.667   5.644  2.9579  1.2120  3.1497
  186SLPC  H14C21363   4.021   5.815   5.568  0.0935  0.0779 -0.4172
  186SLPC   C1521364   4.258   5.855   5.605  0.1408 -0.0606 -0.3660
  186SLPC  H15A21365   4.343   5.861   5.671  0.0315  0.0706 -0.2386
  186SLPC  H15B21366   4.293   5.865   5.503 -1.1032  0.1426 -0.7958
  186SLPC  H15C21367   4.200   5.944   5.624  1.4547  0.7410  0.0156
  186SLPC   C1221368   4.184   5.720   5.794 -0.1320  0.0036  0.0153
  186SLPC  H12A21369   4.128   5.631   5.820  0.6836  0.0749  2.1743
  186SLPC  H12B21370   4.121   5.801   5.829  1.0729  0.0633  2.2012
  186SLPC   C1121371   4.304   5.721   5.891  0.0762 -0.1496  0.0384
  186SLPC  H11A21372   4.368   5.632   5.871  1.3669  0.4563  1.3140
  186SLPC  H11B21373   4.272   5.707   5.996  0.3377 -1.8110 -0.0750
  186SLPC     P21374   4.363   5.974   5.925 -0.2918  0.1577  0.6367
  186SLPC   O1321375   4.475   6.053   5.875 -1.0533  0.4940  0.2586
  186SLPC   O1421376   4.228   6.023   5.890  0.0574 -0.0201  0.0202
  186SLPC   O1221377   4.388   5.836   5.858 -0.6106 -0.3115  0.2565
  186SLPC   O1121378   4.380   5.934   6.071 -0.0653 -0.3652 -0.6240
  186SLPC    C121379   4.501   5.872   6.118 -0.4851 -0.9973  0.0231
  186SLPC    HA21380   4.537   5.798   6.043 -2.4310  0.5277 -2.5647
  186SLPC    HB21381   4.585   5.944   6.115 -1.2944  0.1318  2.0927
  186SLPC    C221382   4.482   5.792   6.254  0.3347 -0.3224 -1.1005
  186SLPC    HS21383   4.385   5.738   6.256  0.5290 -0.6630 -0.9265
  186SLPC   O2121384   4.494   5.883   6.368 -0.0198  0.0418  0.7649
  186SLPC   C2121385   4.410   5.859   6.471  0.2262 -0.2275  0.1660
  186SLPC   O2221386   4.318   5.780   6.472 -0.2660  0.1695  0.1497
  186SLPC   C2221387   4.454   5.952   6.587 -0.0538 -0.4344 -0.1474
  186SLPC   H2R21388   4.563   5.945   6.604 -0.1952 -1.3446  0.4289
  186SLPC   H2S21389   4.422   6.055   6.558  0.2368 -0.0418  0.8550
  186SLPC    C321390   4.596   5.686   6.266 -0.1225 -0.1344  0.4897
  186SLPC    HX21391   4.700   5.715   6.241 -0.6863  0.4693 -1.2758
  186SLPC    HY21392   4.584   5.611   6.184  1.5847 -1.9429  1.7921
  186SLPC   O3121393   4.589   5.612   6.399 -0.6077  0.7650 -0.1460
  186SLPC   C3121394   4.498   5.522   6.403  0.1707  0.2158 -0.1998
  186SLPC   O3221395   4.425   5.498   6.304  0.5427 -0.8798 -0.4958
  186SLPC   C3221396   4.481   5.454   6.539 -0.0876  0.1505  0.0907
  186SLPC   H2X21397   4.581   5.417   6.568 -0.7817 -0.0202  2.5499
  186SLPC   H2Y21398   4.410   5.370   6.525  0.2478 -0.2836  0.8995
  186SLPC   C2321399   4.372   5.920   6.715 -1.0166  0.1402 -1.6372
  186SLPC   H3R21400   4.375   5.812   6.740  0.0910  0.9457  2.2907
  186SLPC   H3S21401   4.269   5.962   6.711 -0.0908  2.5774 -1.5001
  186SLPC   C2421402   4.441   5.990   6.839  0.7891 -0.4480 -0.1641
  186SLPC   H4R21403   4.459   6.097   6.814 -0.8322  0.7169  2.9988
  186SLPC   H4S21404   4.539   5.940   6.847 -0.0001 -2.2903 -1.3896
  186SLPC   C2521405   4.356   5.982   6.969  0.2645  0.3609 -0.1692
  186SLPC   H5R21406   4.333   5.879   7.003 -2.0094  0.4096 -1.3928
  186SLPC   H5S21407   4.258   6.022   6.934  0.5388 -0.2318 -1.7278
  186SLPC   C2621408   4.408   6.061   7.087  0.9359 -0.9036  0.0445
  186SLPC   H6R21409   4.437   6.168   7.080 -0.0270 -0.5682  1.0093
  186SLPC   H6S21410   4.488   5.998   7.132  0.3050 -1.5365  0.2860
  186SLPC   C2721411   4.300   6.057   7.195  0.0967  0.7183 -0.1910
  186SLPC   H7R21412   4.273   5.952   7.219 -2.0961  1.4941  1.0365
  186SLPC   H7S21413   4.205   6.106   7.163 -0.3092  0.1522  0.1179
  186SLPC   C2821414   4.357   6.114   7.328  0.2570  0.1930  0.4298
  186SLPC   H8R21415   4.377   6.220   7.301  0.1830 -0.4758 -2.6332
  186SLPC   H8S21416   4.449   6.055   7.347 -0.4862 -0.8752  0.8055
  186SLPC   C2921417   4.264   6.098   7.447 -0.1477 -0.6924  0.1884
  186SLPC   H9R21418   4.263   5.997   7.492 -1.3220 -0.1669  1.4298
  186SLPC  C21021419   4.188   6.191   7.505  0.1542 -0.5815  0.0622
  186SLPC  H10R21420   4.123   6.158   7.586  0.0758  0.3971  0.4183
  186SLPC  C21121421   4.174   6.337   7.465 -0.0670  0.0583  0.1735
  186SLPC  H11R21422   4.087   6.347   7.395  0.1635  2.5407  0.1481
  186SLPC  H11S21423   4.259   6.365   7.400 -1.2936  0.4433 -1.3499
  186SLPC  C21221424   4.170   6.426   7.584  0.2246  0.6672 -0.3503
  186SLPC  H12R21425   4.264   6.483   7.590  0.5618  0.2559 -1.4848
  186SLPC  C21321426   4.069   6.479   7.646 -0.3924  0.5830 -0.3009
  186SLPC  H13R21427   4.089   6.548   7.729  1.9324  0.4358 -0.6621
  186SLPC  C21421428   3.928   6.425   7.638 -0.3620  0.5101 -0.6722
  186SLPC  H14R21429   3.915   6.338   7.570  2.0144  0.1215 -0.7287
  186SLPC  H14S21430   3.853   6.497   7.600 -2.2351 -0.9395  0.1014
  186SLPC  C21521431   3.887   6.376   7.780 -0.2020  0.5832 -0.7938
  186SLPC  H15R21432   3.786   6.331   7.776  0.1225 -0.8914  3.1978
  186SLPC  H15S21433   3.868   6.458   7.853  0.0265 -0.1131  0.0623
  186SLPC  C21621434   3.980   6.265   7.849 -0.4130  0.5727  0.0575
  186SLPC  H16R21435   4.084   6.292   7.873 -0.4089  1.0079 -0.4301
  186SLPC  H16S21436   3.988   6.169   7.793  2.3326 -0.1906  1.5725
  186SLPC  C21721437   3.913   6.219   7.975 -0.5989  0.0008 -0.4302
  186SLPC  H17R21438   3.824   6.163   7.939 -0.6079 -0.6805  0.5802
  186SLPC  H17S21439   3.879   6.305   8.037  0.0741  0.7560 -1.0834
  186SLPC  C21821440   3.999   6.115   8.057 -0.0183  0.0354  0.2378
  186SLPC  H18R21441   4.072   6.174   8.116  0.5524 -0.1078 -0.3131
  186SLPC  H18S21442   4.050   6.046   7.986  0.7787 -0.1735  1.0073
  186SLPC  H18T21443   3.931   6.059   8.125  1.1703 -1.1254  0.5162
  186SLPC   C3321444   4.435   5.555   6.646 -0.7094  0.0309  0.5405
  186SLPC   H3X21445   4.327   5.578   6.640 -0.9644 -0.3407  3.0108
  186SLPC   H3Y21446   4.499   5.644   6.629  0.2905 -0.8884 -0.8081
  186SLPC   C3421447   4.479   5.502   6.788  0.4496  0.4247  0.1200
  186SLPC   H4X21448   4.589   5.484   6.786  0.4147 -0.0028  1.2588
  186SLPC   H4Y21449   4.433   5.402   6.801  1.4786 -0.1292 -0.3702
  186SLPC   C3521450   4.434   5.597   6.895 -0.3669 -0.2325 -0.4956
  186SLPC   H5X21451   4.327   5.623   6.885 -0.3173  0.7880  1.2337
  186SLPC   H5Y21452   4.494   5.690   6.883  2.9961 -2.3048 -1.0072
  186SLPC   C3621453   4.453   5.545   7.036 -0.8533 -0.6232  0.3130
  186SLPC   H6X21454   4.561   5.526   7.055 -0.3189  0.5149 -1.2890
  186SLPC   H6Y21455   4.409   5.444   7.052  1.0008 -1.2540  1.7168
  186SLPC   C3721456   4.407   5.647   7.141 -0.2500 -0.1833  0.2710
  186SLPC   H7X21457   4.298   5.654   7.121  0.4203  0.8965 -3.6838
  186SLPC   H7Y21458   4.463   5.739   7.114  0.1308 -1.1097 -2.3428
  186SLPC   C3821459   4.471   5.615   7.280  0.6964 -0.3189  0.2092
  186SLPC   H8X21460   4.579   5.601   7.256  0.3453 -0.9986 -1.0398
  186SLPC   H8Y21461   4.421   5.524   7.319  0.4685 -1.2156 -2.0386
  186SLPC   C3921462   4.450   5.743   7.376  0.1671  0.5048  0.4120
  186SLPC   H9X21463   4.341   5.760   7.370 -0.1036 -0.5266  1.7934
  186SLPC   H9Y21464   4.503   5.830   7.333  1.1922  0.3568  1.3013
  186SLPC  C31021465   4.506   5.723   7.518  0.0276 -0.4294 -0.8426
  186SLPC  H10X21466   4.504   5.818   7.575  0.6723 -1.5777  1.1839
  186SLPC  H10Y21467   4.611   5.693   7.499  0.1908 -2.7030  2.7454
  186SLPC  C31121468   4.450   5.614   7.603 -0.8259  0.7134 -0.2884
  186SLPC  H11X21469   4.421   5.514   7.562 -1.9229  0.5012  0.9600
  186SLPC  H11Y21470   4.357   5.655   7.648 -0.9850 -0.6570  0.7007
  186SLPC  C31221471   4.545   5.578   7.719  0.5977  0.1599 -0.5204
  186SLPC  H12X21472   4.557   5.675   7.772 -2.3161 -0.4791  1.5642
  186SLPC  H12Y21473   4.643   5.540   7.685 -0.0251 -1.9794 -0.0919
  186SLPC  C31321474   4.485   5.484   7.812  0.4742 -0.1742  0.6553
  186SLPC  H13X21475   4.496   5.380   7.774  0.8893 -0.1577  0.7333
  186SLPC  H13Y21476   4.378   5.515   7.811  0.4952 -0.1046 -0.5926
  186SLPC  C31421477   4.550   5.485   7.951  0.5861  0.4236  0.5914
  186SLPC  H14X21478   4.557   5.588   7.993  3.5043  0.5794 -0.0585
  186SLPC  H14Y21479   4.657   5.467   7.927 -0.0237 -0.0077 -2.1467
  186SLPC  C31521480   4.516   5.370   8.046 -0.8593  0.5264 -0.3609
  186SLPC  H15X21481   4.525   5.272   7.995  2.4574  1.0188 -0.9525
  186SLPC  H15Y21482   4.409   5.382   8.074 -1.9061 -2.2131 -2.6727
  186SLPC  C31621483   4.606   5.357   8.162 -0.1799 -0.3904  0.2551
  186SLPC  H16X21484   4.712   5.337   8.136  0.1169 -0.4715  1.4778
  186SLPC  H16Y21485   4.565   5.280   8.231  0.1700  0.9326  2.0143
  186SLPC  C31721486   4.603   5.482   8.252  0.0631  1.0834  0.1152
  186SLPC  H17X21487   4.630   5.566   8.184  0.7829  0.2868 -0.5888
  186SLPC  H17Y21488   4.686   5.475   8.326  1.9894  0.1793 -2.0063
  186SLPC  C31821489   4.486   5.505   8.346 -0.3876 -0.0828 -0.2852
  186SLPC  H18X21490   4.393   5.460   8.305 -0.1051 -1.6089  0.6920
  186SLPC  H18Y21491   4.476   5.610   8.382 -1.2519 -0.0685 -0.5274
  186SLPC  H18Z21492   4.515   5.452   8.439  0.4921 -0.9996 -1.0554
  187SLPC     N21493   6.501   3.506   5.701 -0.4315 -0.3819  0.1819
  187SLPC   C1321494   6.447   3.365   5.691 -0.0786  0.9818 -0.2510
  187SLPC  H13A21495   6.489   3.325   5.601  3.0417  1.7611  0.7330
  187SLPC  H13B21496   6.473   3.300   5.773 -1.1828 -1.3775 -1.6831
  187SLPC  H13C21497   6.339   3.359   5.680  0.0875  0.0155 -1.5428
  187SLPC   C1421498   6.465   3.572   5.574 -0.3009  0.3257  0.5870
  187SLPC  H14A21499   6.495   3.518   5.486 -1.5903  1.9543 -0.9080
  187SLPC  H14B21500   6.361   3.599   5.566  0.0722  1.2664 -2.0977
  187SLPC  H14C21501   6.506   3.671   5.567  1.6959 -0.4073  1.1623
  187SLPC   C1521502   6.653   3.491   5.707  0.0023  0.6875  0.1323
  187SLPC  H15A21503   6.689   3.443   5.617  3.0650 -0.5696  1.8812
  187SLPC  H15B21504   6.700   3.588   5.705  0.1499  0.6121 -0.1359
  187SLPC  H15C21505   6.672   3.437   5.799 -1.5449 -0.1523 -0.0052
  187SLPC   C1221506   6.454   3.580   5.829  1.0075  0.6725 -0.9504
  187SLPC  H12A21507   6.460   3.512   5.912 -0.3735  0.9211 -0.6325
  187SLPC  H12B21508   6.351   3.610   5.818  1.0584  0.6609 -1.4908
  187SLPC   C1121509   6.528   3.709   5.878 -0.3146 -0.5478 -0.2932
  187SLPC  H11A21510   6.618   3.670   5.930 -0.6252 -1.4939 -0.4409
  187SLPC  H11B21511   6.462   3.756   5.954  0.0098 -3.3238  1.8875
  187SLPC     P21512   6.705   3.869   5.763 -0.5409  0.1895 -0.1392
  187SLPC   O1321513   6.813   3.769   5.779  0.4688 -0.2138  0.2804
  187SLPC   O1421514   6.708   3.944   5.635  0.5141  0.1955  0.0189
  187SLPC   O1221515   6.556   3.801   5.771  0.2414 -0.1744 -0.0807
  187SLPC   O1121516   6.715   3.977   5.882 -0.0450 -0.2070  0.5335
  187SLPC    C121517   6.595   4.047   5.911 -0.0070 -0.0440 -0.9410
  187SLPC    HA21518   6.529   4.062   5.823 -0.1911  2.3106 -0.4753
  187SLPC    HB21519   6.536   3.992   5.988  0.7128  1.6247  0.9029
  187SLPC    C221520   6.622   4.185   5.972 -0.0788 -0.6353 -0.0188
  187SLPC    HS21521   6.689   4.251   5.913 -0.6052  1.7604  1.8652
  187SLPC   O2121522   6.663   4.159   6.110 -0.3477  0.1703  0.3349
  187SLPC   C2121523   6.760   4.238   6.150  0.6724  0.7664  0.0351
  187SLPC   O2221524   6.813   4.319   6.080 -0.3235  0.7077  0.0527
  187SLPC   C2221525   6.790   4.207   6.299 -0.3598 -0.9892  0.0769
  187SLPC   H2R21526   6.708   4.251   6.360  0.8611  1.0586  0.3200
  187SLPC   H2S21527   6.804   4.097   6.307  1.6920 -1.0623 -2.8953
  187SLPC    C321528   6.491   4.273   5.988  0.0725 -0.1812 -0.0155
  187SLPC    HX21529   6.413   4.214   6.041  1.3224 -0.2360  1.8655
  187SLPC    HY21530   6.465   4.293   5.882 -2.0191 -1.2212  0.2586
  187SLPC   O3121531   6.505   4.391   6.064  0.1988  0.1719 -0.0894
  187SLPC   C3121532   6.573   4.492   6.001  0.4232 -0.7102 -0.7207
  187SLPC   O3221533   6.613   4.487   5.891  0.0911 -0.0371  0.4110
  187SLPC   C3221534   6.567   4.622   6.082 -0.2354  0.0904 -0.5951
  187SLPC   H2X21535   6.460   4.640   6.102  0.0226  0.6347  0.3378
  187SLPC   H2Y21536   6.608   4.700   6.014  0.9258  0.2442  0.2434
  187SLPC   C2321537   6.921   4.276   6.343 -0.1596  0.3443  0.6482
  187SLPC   H3R21538   6.913   4.386   6.334 -0.9439  0.1398 -2.5614
  187SLPC   H3S21539   6.999   4.224   6.284  0.4740  1.6501  0.3087
  187SLPC   C2421540   6.964   4.241   6.490  0.5835 -0.1586  0.6491
  187SLPC   H4R21541   7.074   4.249   6.483  0.5214 -0.3379 -0.7751
  187SLPC   H4S21542   6.945   4.133   6.508 -0.2448 -0.3268 -1.0385
  187SLPC   C2521543   6.900   4.322   6.603 -0.2664  0.4409 -0.0241
  187SLPC   H5R21544   6.814   4.380   6.565 -0.5416 -0.2586 -0.4890
  187SLPC   H5S21545   6.977   4.398   6.629 -0.1997  0.6049 -0.7023
  187SLPC   C2621546   6.864   4.240   6.731  0.0010  0.0923 -0.2708
  187SLPC   H6R21547   6.836   4.306   6.816 -0.3247 -0.0810 -0.2436
  187SLPC   H6S21548   6.936   4.161   6.761 -0.0029  0.1829 -0.0192
  187SLPC   C2721549   6.727   4.175   6.706 -0.1555 -0.0639  0.0401
  187SLPC   H7R21550   6.721   4.098   6.626  2.4702  0.9249 -1.2073
  187SLPC   H7S21551   6.657   4.256   6.678 -0.9245 -1.2839 -1.7342
  187SLPC   C2821552   6.665   4.095   6.819  0.4426  0.5455 -0.5189
  187SLPC   H8R21553   6.575   4.038   6.787  1.6293 -4.0435  3.2171
  187SLPC   H8S21554   6.630   4.175   6.888  1.6461  0.5601  0.1083
  187SLPC   C2921555   6.749   3.987   6.888  0.0479  0.7351  0.2166
  187SLPC   H9R21556   6.802   3.922   6.817 -0.1266  1.5015 -0.6379
  187SLPC  C21021557   6.782   3.982   7.019 -0.7353  0.5773  0.4417
  187SLPC  H10R21558   6.848   3.904   7.061  1.0266  1.1042 -1.2109
  187SLPC  C21121559   6.722   4.067   7.130  0.4058  0.4317  0.9089
  187SLPC  H11R21560   6.670   3.989   7.190 -0.7745  0.2471 -0.3029
  187SLPC  H11S21561   6.646   4.137   7.088 -0.9889  0.3989  3.2219
  187SLPC  C21221562   6.824   4.146   7.212  1.0372  0.0392  0.4205
  187SLPC  H12R21563   6.881   4.227   7.164 -0.8177  2.0239  1.3861
  187SLPC  C21321564   6.850   4.134   7.341 -0.3684 -0.0437 -0.0876
  187SLPC  H13R21565   6.919   4.200   7.396 -1.4795  1.0760  0.0108
  187SLPC  C21421566   6.778   4.052   7.445  0.0992 -0.3366  0.4598
  187SLPC  H14R21567   6.699   3.988   7.399  0.0183 -0.3131  0.5643
  187SLPC  H14S21568   6.729   4.111   7.525 -0.1865 -0.7184  0.5719
  187SLPC  C21521569   6.872   3.947   7.519  0.0200 -0.0489  0.3996
  187SLPC  H15R21570   6.935   3.889   7.448 -0.0490 -0.5936  0.7761
  187SLPC  H15S21571   6.796   3.890   7.576 -0.1373  0.7921  1.0544
  187SLPC  C21621572   6.969   4.023   7.613 -0.0820  1.2433 -0.5210
  187SLPC  H16R21573   7.012   4.110   7.558 -2.7077  2.7751 -0.3580
  187SLPC  H16S21574   7.057   3.975   7.660 -1.1023  1.8409  2.1533
  187SLPC  C21721575   6.895   4.067   7.746 -0.6742 -0.5584  0.2892
  187SLPC  H17R21576   6.855   3.973   7.791  0.6717 -2.1954 -1.7050
  187SLPC  H17S21577   6.804   4.125   7.719  0.6008  0.5382 -1.8725
  187SLPC  C21821578   6.986   4.120   7.853  0.2940 -0.1235 -0.0397
  187SLPC  H18R21579   7.062   4.042   7.873  1.8309  1.3655  0.1515
  187SLPC  H18S21580   6.927   4.139   7.946  1.7177  0.9671  0.6829
  187SLPC  H18T21581   7.033   4.219   7.836  0.4488 -0.3235 -0.7783
  187SLPC   C3321582   6.649   4.616   6.211 -0.3468  0.1529 -0.0060
  187SLPC   H3X21583   6.756   4.597   6.192 -0.6109  1.5562 -3.8008
  187SLPC   H3Y21584   6.606   4.530   6.267  1.2556  0.6412  2.1029
  187SLPC   C3421585   6.643   4.745   6.292  0.1352 -0.2168  0.5099
  187SLPC   H4X21586   6.537   4.756   6.324  0.7716 -1.2385  3.2743
  187SLPC   H4Y21587   6.671   4.828   6.224 -1.0392  1.0761  1.5580
  187SLPC   C3521588   6.723   4.754   6.420  0.3719  0.4945  0.7594
  187SLPC   H5X21589   6.717   4.861   6.450  1.2005  1.3008 -1.7173
  187SLPC   H5Y21590   6.831   4.733   6.403 -0.4266 -2.3244 -1.7472
  187SLPC   C3621591   6.685   4.651   6.526  0.1875 -0.5116  0.5218
  187SLPC   H6X21592   6.732   4.554   6.499  1.6576 -0.2274  1.8891
  187SLPC   H6Y21593   6.576   4.630   6.530  0.0416  0.2533  0.5725
  187SLPC   C3721594   6.734   4.682   6.672  0.0834 -0.6762  0.3428
  187SLPC   H7X21595   6.844   4.694   6.681  0.1308 -0.0004 -0.8859
  187SLPC   H7Y21596   6.689   4.783   6.688 -0.8727 -0.8348 -1.1672
  187SLPC   C3821597   6.682   4.591   6.782 -0.1140  0.5916 -0.2436
  187SLPC   H8X21598   6.711   4.485   6.770 -2.2552 -0.0116 -0.4187
  187SLPC   H8Y21599   6.572   4.590   6.794 -0.1029 -2.2208  0.3154
  187SLPC   C3921600   6.737   4.613   6.920 -0.5590 -0.6021  0.4917
  187SLPC   H9X21601   6.707   4.712   6.960 -0.0610  0.0931 -0.7873
  187SLPC   H9Y21602   6.847   4.612   6.910 -0.6077  0.0159 -0.1812
  187SLPC  C31021603   6.670   4.506   7.007  0.1087 -0.0624  1.2446
  187SLPC  H10X21604   6.743   4.423   7.013  0.6875  0.0873 -2.1926
  187SLPC  H10Y21605   6.575   4.476   6.958  0.0521  0.9110  0.7367
  187SLPC  C31121606   6.658   4.554   7.150  0.3961  0.6009 -0.4918
  187SLPC  H11X21607   6.602   4.650   7.147  2.4975  1.8824 -2.8009
  187SLPC  H11Y21608   6.762   4.554   7.189  0.8205  0.8767 -1.5793
  187SLPC  C31221609   6.596   4.443   7.241  0.1002 -0.6480 -0.7377
  187SLPC  H12X21610   6.642   4.348   7.208  1.1891  0.1225 -1.4941
  187SLPC  H12Y21611   6.485   4.439   7.230 -0.1487  1.0948  0.6666
  187SLPC  C31321612   6.631   4.459   7.389 -0.3039  0.1032 -0.4233
  187SLPC  H13X21613   6.735   4.496   7.398 -0.3067 -0.0759  0.4909
  187SLPC  H13Y21614   6.623   4.358   7.436 -0.3650  0.7095  0.8987
  187SLPC  C31421615   6.537   4.562   7.462 -0.2978  0.4722 -0.9368
  187SLPC  H14X21616   6.429   4.535   7.454 -0.7236  2.3608 -2.1602
  187SLPC  H14Y21617   6.557   4.660   7.413  1.9507  0.3243 -0.4132
  187SLPC  C31521618   6.578   4.584   7.612  0.2597 -0.1525  0.0145
  187SLPC  H15X21619   6.517   4.672   7.640 -1.3711 -1.6121  1.2744
  187SLPC  H15Y21620   6.689   4.598   7.618  0.9354 -3.3466 -2.4915
  187SLPC  C31621621   6.548   4.458   7.702 -0.2335 -0.5632 -0.0978
  187SLPC  H16X21622   6.586   4.474   7.805  0.5528  2.2451 -0.7385
  187SLPC  H16Y21623   6.573   4.359   7.658  1.3499  0.5072 -1.7521
  187SLPC  C31721624   6.403   4.449   7.733 -0.0992  0.4978  0.4077
  187SLPC  H17X21625   6.355   4.438   7.634  0.9872 -1.4781  0.0561
  187SLPC  H17Y21626   6.367   4.544   7.779  0.1718  1.0691 -0.5329
  187SLPC  C31821627   6.364   4.340   7.819  0.2159  0.3957 -0.3952
  187SLPC  H18X21628   6.423   4.328   7.912 -1.1120  2.3921  0.7816
  187SLPC  H18Y21629   6.360   4.243   7.764 -2.1106 -0.7161  1.5349
  187SLPC  H18Z21630   6.261   4.353   7.860 -0.0223 -0.0168 -0.8470
  188SLPC     N21631   0.526   4.339   5.963  0.3523  0.4711 -0.1729
  188SLPC   C1321632   0.401   4.432   5.979 -0.2844  0.1108  0.9300
  188SLPC  H13A21633   0.358   4.460   5.885  0.9667  0.4606  0.4409
  188SLPC  H13B21634   0.325   4.380   6.037  0.2219 -1.2899  0.3928
  188SLPC  H13C21635   0.426   4.520   6.036  2.9218 -0.1655  0.1617
  188SLPC   C1421636   0.621   4.413   5.874 -0.4817  0.4420  0.1104
  188SLPC  H14A21637   0.565   4.458   5.793 -0.7736 -0.6403 -0.3097
  188SLPC  H14B21638   0.674   4.488   5.931  0.0615  0.2085 -0.0741
  188SLPC  H14C21639   0.691   4.339   5.838 -1.1370  0.3978 -1.1136
  188SLPC   C1521640   0.472   4.224   5.872 -0.1662 -0.2415 -0.1222
  188SLPC  H15A21641   0.439   4.264   5.777 -3.4471  1.7261  1.6463
  188SLPC  H15B21642   0.548   4.148   5.868  1.5799  1.2983  1.7600
  188SLPC  H15C21643   0.385   4.179   5.917 -1.3731 -0.7911 -2.7861
  188SLPC   C1221644   0.581   4.294   6.095  0.2517  0.1884  0.8207
  188SLPC  H12A21645   0.510   4.226   6.140  0.4467  0.0538  0.9279
  188SLPC  H12B21646   0.585   4.381   6.158 -1.7173  0.8969  0.0551
  188SLPC   C1121647   0.713   4.218   6.095 -0.1069 -0.3466 -0.1904
  188SLPC  H11A21648   0.715   4.139   6.018 -0.5044 -1.5561  1.0082
  188SLPC  H11B21649   0.727   4.179   6.198 -1.5837  1.4161  0.7589
  188SLPC     P21650   0.885   4.423   6.148 -0.3395  0.0209  0.0909
  188SLPC   O1321651   0.975   4.356   6.242 -0.1835 -0.5395  0.0985
  188SLPC   O1421652   0.949   4.521   6.056 -0.4768 -0.3442 -0.1008
  188SLPC   O1221653   0.823   4.303   6.051 -0.1475  0.9073 -0.0324
  188SLPC   O1121654   0.753   4.478   6.215  0.0027 -0.0830  0.1636
  188SLPC    C121655   0.696   4.604   6.195 -0.0022  0.0090  0.5874
  188SLPC    HA21656   0.701   4.634   6.089 -1.9818  1.8590  0.9382
  188SLPC    HB21657   0.586   4.600   6.214 -0.1715 -1.5190 -0.5515
  188SLPC    C221658   0.758   4.720   6.282 -0.5943  0.9079 -0.0456
  188SLPC    HS21659   0.861   4.733   6.244  1.0093  1.0388  3.8536
  188SLPC   O2121660   0.761   4.677   6.419  0.1305 -0.1284  0.6566
  188SLPC   C2121661   0.882   4.658   6.463 -0.9226 -0.2456 -0.1102
  188SLPC   O2221662   0.989   4.678   6.404  0.2934  0.1571  0.2054
  188SLPC   C2221663   0.881   4.628   6.611  0.1667 -0.3022  0.0262
  188SLPC   H2R21664   0.785   4.671   6.648 -0.5494 -0.1856 -1.8244
  188SLPC   H2S21665   0.857   4.521   6.631  0.2380 -0.3318 -0.0455
  188SLPC    C321666   0.698   4.865   6.263 -0.0930 -0.1236  0.9187
  188SLPC    HX21667   0.587   4.870   6.259 -0.0583 -0.0878 -0.3141
  188SLPC    HY21668   0.723   4.898   6.160  2.1313 -2.6963  0.5301
  188SLPC   O3121669   0.735   4.945   6.379  0.1459  0.7434  0.0613
  188SLPC   C3121670   0.828   5.027   6.358 -0.9963 -0.7005 -0.4935
  188SLPC   O3221671   0.887   5.044   6.252 -0.3621  0.3800 -0.3318
  188SLPC   C3221672   0.858   5.115   6.478  0.2589  0.5751 -1.0900
  188SLPC   H2X21673   0.766   5.176   6.493  0.2719  0.3055  0.2363
  188SLPC   H2Y21674   0.936   5.188   6.451 -1.1250  3.0349  1.0845
  188SLPC   C2321675   1.004   4.676   6.691  0.5172 -0.4362  0.1412
  188SLPC   H3R21676   1.006   4.787   6.699 -1.5648 -0.3619  0.2297
  188SLPC   H3S21677   1.098   4.648   6.639  0.2864 -1.1562  0.0925
  188SLPC   C2421678   1.006   4.609   6.829  0.6632  0.9458 -0.1656
  188SLPC   H4R21679   1.103   4.633   6.878 -1.6601  1.8956  4.5430
  188SLPC   H4S21680   1.005   4.499   6.819 -0.2754  1.1228 -2.7189
  188SLPC   C2521681   0.896   4.659   6.930 -0.0176  0.0322 -1.0018
  188SLPC   H5R21682   0.793   4.654   6.888  0.3970  0.7747 -2.1727
  188SLPC   H5S21683   0.940   4.759   6.948  1.6245 -0.7932 -0.2420
  188SLPC   C2621684   0.895   4.585   7.062  0.9240 -0.0376 -0.6044
  188SLPC   H6R21685   0.852   4.646   7.144  0.2987 -0.5492 -0.5479
  188SLPC   H6S21686   1.001   4.560   7.087  0.5723 -0.7455  0.2493
  188SLPC   C2721687   0.810   4.451   7.065 -0.1208  0.1457 -0.1020
  188SLPC   H7R21688   0.839   4.379   6.985  0.4122 -0.7514  0.8662
  188SLPC   H7S21689   0.702   4.468   7.044 -0.2584 -1.1566 -0.6096
  188SLPC   C2821690   0.814   4.375   7.198  0.3046  0.6734  0.2935
  188SLPC   H8R21691   0.924   4.360   7.210  0.9134  1.4565 -3.1466
  188SLPC   H8S21692   0.772   4.273   7.198  1.5935  0.1166  0.4399
  188SLPC   C2921693   0.772   4.453   7.322  0.0767  0.0618  0.1102
  188SLPC   H9R21694   0.664   4.474   7.313  0.4210  2.4591  1.0586
  188SLPC  C21021695   0.831   4.471   7.440 -0.1519 -0.4523  0.1808
  188SLPC  H10R21696   0.786   4.538   7.515  0.6928 -0.1629  0.4413
  188SLPC  C21121697   0.973   4.432   7.483 -0.8135  0.2308 -0.7894
  188SLPC  H11R21698   1.002   4.338   7.432 -1.0983  0.1181 -0.7449
  188SLPC  H11S21699   0.961   4.405   7.590 -0.8886  1.8451 -0.3573
  188SLPC  C21221700   1.083   4.533   7.447 -0.2386 -0.0708 -0.5625
  188SLPC  H12R21701   1.064   4.576   7.347  2.1497  1.2827 -0.5095
  188SLPC  C21321702   1.187   4.575   7.520  0.2240  0.0988 -0.1902
  188SLPC  H13R21703   1.263   4.640   7.474  0.7230  0.8200  1.5660
  188SLPC  C21421704   1.211   4.528   7.660 -0.7510 -0.4214 -0.1803
  188SLPC  H14R21705   1.318   4.499   7.671 -1.8087 -4.3255  1.4893
  188SLPC  H14S21706   1.148   4.446   7.700  0.0541 -0.7569  0.4248
  188SLPC  C21521707   1.188   4.641   7.757  0.2055  0.1294 -0.8201
  188SLPC  H15R21708   1.195   4.597   7.859 -1.9356 -0.1824 -0.7553
  188SLPC  H15S21709   1.082   4.673   7.745 -1.0396 -3.5275 -0.7703
  188SLPC  C21621710   1.290   4.762   7.740 -0.2722  0.1813  0.6472
  188SLPC  H16R21711   1.260   4.821   7.651 -0.4104  0.4989  0.9018
  188SLPC  H16S21712   1.390   4.718   7.722 -0.8481 -0.0509 -2.6230
  188SLPC  C21721713   1.292   4.856   7.862 -0.5232 -0.1441  0.1484
  188SLPC  H17R21714   1.392   4.903   7.878 -0.1025 -0.8800 -0.3076
  188SLPC  H17S21715   1.271   4.800   7.956 -0.0781  0.5968  0.7132
  188SLPC  C21821716   1.194   4.975   7.847  0.4015 -0.5342  0.0031
  188SLPC  H18R21717   1.188   5.039   7.938 -2.6089 -1.4949  0.5620
  188SLPC  H18S21718   1.089   4.940   7.850  0.3726 -0.6333 -1.4567
  188SLPC  H18T21719   1.217   5.033   7.754  3.1938  0.1910  1.0371
  188SLPC   C3321720   0.887   5.027   6.600  0.8493 -0.0913  0.7356
  188SLPC   H3X21721   0.981   4.969   6.592  0.2604 -1.0866  0.7813
  188SLPC   H3Y21722   0.811   4.946   6.604 -1.4052  1.9442  1.7170
  188SLPC   C3421723   0.871   5.093   6.731 -0.2429  0.5987 -0.0318
  188SLPC   H4X21724   0.887   5.202   6.719 -1.2165  0.5536 -2.0856
  188SLPC   H4Y21725   0.949   5.064   6.804  1.6377 -2.0055 -2.8435
  188SLPC   C3521726   0.729   5.078   6.802 -0.3026 -0.1207  0.4412
  188SLPC   H5X21727   0.711   4.971   6.825  0.6231 -0.7201 -1.4096
  188SLPC   H5Y21728   0.657   5.126   6.732  0.0514 -2.5918 -1.7569
  188SLPC   C3621729   0.727   5.157   6.934 -0.1076 -0.1534 -0.0215
  188SLPC   H6X21730   0.723   5.266   6.912 -0.7090 -0.2069 -0.2056
  188SLPC   H6Y21731   0.823   5.149   6.989  0.1457  1.4090 -0.1908
  188SLPC   C3721732   0.604   5.131   7.018  0.1699  0.0954 -0.2332
  188SLPC   H7X21733   0.615   5.023   7.045  1.6842  0.1044 -0.7392
  188SLPC   H7Y21734   0.520   5.138   6.947 -0.1427  1.1100  0.2248
  188SLPC   C3821735   0.593   5.236   7.127 -0.6050 -0.7990  0.2677
  188SLPC   H8X21736   0.586   5.338   7.083 -0.1128 -0.5610  0.7348
  188SLPC   H8Y21737   0.685   5.236   7.189  1.0335 -2.2554 -2.0156
  188SLPC   C3921738   0.472   5.210   7.215 -0.0242  0.8536  0.4410
  188SLPC   H9X21739   0.486   5.101   7.235 -0.3142  0.2145 -2.4416
  188SLPC   H9Y21740   0.383   5.238   7.155 -1.4121 -0.0478  1.9637
  188SLPC  C31021741   0.473   5.302   7.339  0.4932  0.3827  0.3081
  188SLPC  H10X21742   0.456   5.405   7.300 -0.6203  0.8118  1.8356
  188SLPC  H10Y21743   0.571   5.300   7.391  0.5152 -0.5005  0.2445
  188SLPC  C31121744   0.368   5.263   7.441 -0.0934 -0.2727  0.3037
  188SLPC  H11X21745   0.381   5.166   7.494  1.7913 -0.1101  0.2001
  188SLPC  H11Y21746   0.268   5.268   7.391 -0.0528 -1.6389  0.0499
  188SLPC  C31221747   0.361   5.370   7.552  0.3937 -0.2354  0.1285
  188SLPC  H12X21748   0.269   5.339   7.606 -0.8429 -0.3704 -1.9446
  188SLPC  H12Y21749   0.341   5.459   7.488 -2.3322 -2.0276 -1.7358
  188SLPC  C31321750   0.487   5.375   7.631  0.3034  0.1685  0.3743
  188SLPC  H13X21751   0.579   5.405   7.576  0.1970 -0.7122 -0.3188
  188SLPC  H13Y21752   0.500   5.274   7.676 -0.4490  0.1427  0.5383
  188SLPC  C31421753   0.467   5.473   7.745 -0.8241 -0.2103 -0.7777
  188SLPC  H14X21754   0.388   5.438   7.814 -0.2758 -1.9161 -0.9642
  188SLPC  H14Y21755   0.439   5.577   7.717 -0.2146  1.3833  3.7274
  188SLPC  C31521756   0.607   5.489   7.828 -0.0118  0.4277  0.3369
  188SLPC  H15X21757   0.599   5.573   7.899 -1.2099  1.4788 -0.9966
  188SLPC  H15Y21758   0.686   5.503   7.751 -0.0044 -3.8638 -0.6924
  188SLPC  C31621759   0.632   5.370   7.922 -0.0888  0.1332  0.0300
  188SLPC  H16X21760   0.630   5.277   7.861  1.4895 -1.9021  2.7897
  188SLPC  H16Y21761   0.549   5.348   7.993 -0.7444  0.1846 -0.7130
  188SLPC  C31721762   0.767   5.379   7.996 -0.2585  0.4662  0.2425
  188SLPC  H17X21763   0.790   5.479   8.038  1.0445  1.5265 -2.7167
  188SLPC  H17Y21764   0.844   5.355   7.920 -0.3123  0.6822  0.1173
  188SLPC  C31821765   0.794   5.274   8.103  0.0450  0.2376  0.1033
  188SLPC  H18X21766   0.708   5.294   8.172 -1.2039  3.1025 -2.0672
  188SLPC  H18Y21767   0.887   5.294   8.161 -0.2020  3.2930 -0.3463
  188SLPC  H18Z21768   0.779   5.178   8.050 -0.5087 -0.1218  0.8860
  189SLPC     N21769   1.124   5.548   5.767  0.5395 -0.5890  0.1286
  189SLPC   C1321770   1.002   5.512   5.839  0.5826  0.0794  0.4566
  189SLPC  H13A21771   0.969   5.411   5.818  1.1905 -0.6633  2.8252
  189SLPC  H13B21772   1.020   5.537   5.942 -2.5142  0.8574  0.9084
  189SLPC  H13C21773   0.922   5.581   5.815  0.2269 -0.0804  1.1695
  189SLPC   C1421774   1.090   5.559   5.619 -0.3021 -0.1903  1.0854
  189SLPC  H14A21775   1.051   5.470   5.572  0.6620  0.5306 -1.1779
  189SLPC  H14B21776   1.028   5.641   5.586 -0.7960 -1.1230 -0.3960
  189SLPC  H14C21777   1.175   5.589   5.561 -1.8924  1.3519 -0.5706
  189SLPC   C1521778   1.229   5.444   5.790 -0.7121 -0.2831 -0.4847
  189SLPC  H15A21779   1.300   5.438   5.708 -0.6921  1.2468 -0.6179
  189SLPC  H15B21780   1.286   5.464   5.879 -2.0520  1.2840  0.0862
  189SLPC  H15C21781   1.173   5.352   5.794 -3.0250  1.0828  1.3648
  189SLPC   C1221782   1.172   5.690   5.817 -0.5284  0.0735  0.5484
  189SLPC  H12A21783   1.114   5.764   5.763  0.0616 -1.4424 -2.3925
  189SLPC  H12B21784   1.277   5.696   5.792 -0.6442  1.2398  0.2889
  189SLPC   C1121785   1.176   5.709   5.969  0.4264 -0.0608  0.3469
  189SLPC  H11A21786   1.244   5.796   5.984  1.5786 -0.6084 -1.4205
  189SLPC  H11B21787   1.228   5.620   6.012 -1.4558 -1.1909  0.4040
  189SLPC     P21788   0.973   5.867   6.024 -0.4330 -0.3769  0.0208
  189SLPC   O1321789   1.027   5.959   5.919 -0.3696 -0.1173 -0.2373
  189SLPC   O1421790   0.830   5.840   6.021 -0.2208 -0.5749 -0.5340
  189SLPC   O1221791   1.046   5.726   6.027 -0.0583 -0.3376  0.1248
  189SLPC   O1121792   1.018   5.923   6.165 -0.6084 -0.3864 -0.8260
  189SLPC    C121793   1.120   5.876   6.246  0.0895  0.2769 -0.4209
  189SLPC    HA21794   1.155   5.774   6.222 -0.6164  0.2758 -1.5091
  189SLPC    HB21795   1.199   5.954   6.249 -1.3608  1.7803  1.5397
  189SLPC    C221796   1.075   5.869   6.387 -0.0342  0.3774 -0.4000
  189SLPC    HS21797   1.146   5.795   6.430  1.5061  2.9546  1.8724
  189SLPC   O2121798   0.943   5.803   6.407 -0.2320  0.5598 -0.3508
  189SLPC   C2121799   0.921   5.686   6.350 -0.1780  0.1205 -0.0395
  189SLPC   O2221800   1.009   5.607   6.311 -0.1442 -0.2824  0.0093
  189SLPC   C2221801   0.771   5.656   6.334 -0.4753  0.5150 -0.0724
  189SLPC   H2R21802   0.715   5.743   6.376  0.1982  0.4847  0.9179
  189SLPC   H2S21803   0.742   5.630   6.230  0.7906  0.4035 -0.4078
  189SLPC    C321804   1.091   5.997   6.470 -0.0559 -0.0393 -0.2984
  189SLPC    HX21805   1.036   6.079   6.419  0.7198 -0.0250 -1.1336
  189SLPC    HY21806   1.196   6.031   6.460 -0.0043  0.7946  2.2894
  189SLPC   O3121807   1.051   5.990   6.611  0.0404 -0.1087  0.2660
  189SLPC   C3121808   1.132   5.938   6.692 -0.4279  0.6168 -1.2314
  189SLPC   O3221809   1.237   5.888   6.660 -0.4218  0.1776  0.2649
  189SLPC   C3221810   1.079   5.953   6.835  0.0036  0.6698 -0.7430
  189SLPC   H2X21811   0.972   5.924   6.832 -0.0356  0.7890 -0.4606
  189SLPC   H2Y21812   1.085   6.061   6.860 -0.1097  0.4452  0.2944
  189SLPC   C2321813   0.741   5.543   6.424 -1.3608  0.0069  0.3062
  189SLPC   H3R21814   0.792   5.447   6.401 -2.3199 -0.8460  1.5685
  189SLPC   H3S21815   0.636   5.508   6.412 -0.8947 -0.7890 -1.9412
  189SLPC   C2421816   0.765   5.573   6.573  0.1166  0.3899 -0.2008
  189SLPC   H4R21817   0.768   5.682   6.596 -0.9349  0.8577 -2.1002
  189SLPC   H4S21818   0.858   5.519   6.601 -0.7296 -0.4699  1.0904
  189SLPC   C2521819   0.668   5.499   6.660  0.2232  0.4284 -0.6803
  189SLPC   H5R21820   0.649   5.393   6.631 -0.7666  0.2239  0.6199
  189SLPC   H5S21821   0.576   5.561   6.653  1.3339  2.0009 -2.0174
  189SLPC   C2621822   0.697   5.513   6.817 -0.9248  0.5635  0.5952
  189SLPC   H6R21823   0.799   5.479   6.842 -1.6738 -1.5946  0.9624
  189SLPC   H6S21824   0.617   5.461   6.874  0.2492 -1.7564  0.2511
  189SLPC   C2721825   0.712   5.653   6.879 -0.2320  0.0002 -0.3527
  189SLPC   H7R21826   0.782   5.717   6.821  1.4491 -0.9941  0.4692
  189SLPC   H7S21827   0.743   5.634   6.984 -0.4454  0.5379 -0.1882
  189SLPC   C2821828   0.570   5.721   6.898 -0.4498  0.0516 -0.6828
  189SLPC   H8R21829   0.517   5.698   6.803 -0.7701 -0.5052 -0.3715
  189SLPC   H8S21830   0.588   5.831   6.895  2.4741 -0.3141  0.4972
  189SLPC   C2921831   0.482   5.668   7.009  0.1765  0.5818 -0.3749
  189SLPC   H9R21832   0.434   5.570   6.994 -0.5315  0.8976 -0.2027
  189SLPC  C21021833   0.480   5.718   7.138  0.2439  0.4290 -0.7222
  189SLPC  H10R21834   0.436   5.655   7.217  1.9349 -0.0565 -0.1135
  189SLPC  C21121835   0.553   5.840   7.189 -0.5785  0.0222 -0.3896
  189SLPC  H11R21836   0.489   5.932   7.196 -2.0422 -0.8808 -1.3332
  189SLPC  H11S21837   0.631   5.864   7.114  0.5708  1.2638  1.1344
  189SLPC  C21221838   0.633   5.799   7.311 -0.1613 -0.2135 -0.1286
  189SLPC  H12R21839   0.736   5.766   7.288  0.7086 -0.2188  3.2672
  189SLPC  C21321840   0.593   5.780   7.439 -1.1935  0.2010 -0.2859
  189SLPC  H13R21841   0.667   5.762   7.519 -1.7375  0.3118  0.2517
  189SLPC  C21421842   0.450   5.808   7.486 -0.8916 -0.6531 -0.2641
  189SLPC  H14R21843   0.396   5.724   7.533 -1.6138 -0.1306 -0.1368
  189SLPC  H14S21844   0.387   5.845   7.402 -0.9966  3.1683  1.3009
  189SLPC  C21521845   0.443   5.929   7.576 -0.0032  0.2649 -0.3307
  189SLPC  H15R21846   0.340   5.971   7.565 -0.5637 -1.0770 -0.4107
  189SLPC  H15S21847   0.503   6.007   7.525 -0.6973 -0.5567 -2.5107
  189SLPC  C21621848   0.482   5.908   7.728 -0.0089 -0.2098  0.0814
  189SLPC  H16R21849   0.521   6.006   7.761 -0.9517  0.7842 -1.5973
  189SLPC  H16S21850   0.565   5.835   7.723 -0.3223 -0.6259  0.7959
  189SLPC  C21721851   0.367   5.866   7.829  0.0556  0.6881 -0.5234
  189SLPC  H17R21852   0.307   5.778   7.798  0.4802 -0.0452  0.6395
  189SLPC  H17S21853   0.300   5.952   7.850 -0.0038  0.5141  0.0378
  189SLPC  C21821854   0.432   5.824   7.965 -0.3801 -0.3878  0.3257
  189SLPC  H18R21855   0.539   5.849   7.975 -0.1464 -2.1214  3.2320
  189SLPC  H18S21856   0.417   5.716   7.984 -0.2717 -0.4355  0.1407
  189SLPC  H18T21857   0.367   5.866   8.045 -3.8194 -1.2276 -1.7902
  189SLPC   C3321858   1.138   5.859   6.942 -0.2057 -0.4162  0.2069
  189SLPC   H3X21859   1.247   5.839   6.928 -0.1423  0.3642 -0.4691
  189SLPC   H3Y21860   1.101   5.756   6.925 -0.0617 -0.5408  0.6347
  189SLPC   C3421861   1.123   5.913   7.081  0.6364  0.3889  0.1599
  189SLPC   H4X21862   1.164   6.016   7.093  0.3456  0.7857 -1.8344
  189SLPC   H4Y21863   1.184   5.845   7.144  0.9558  0.6054  0.0885
  189SLPC   C3521864   0.976   5.917   7.135  0.1084 -0.1217  0.2574
  189SLPC   H5X21865   0.936   5.815   7.153  0.5695 -0.1731  1.0286
  189SLPC   H5Y21866   0.917   5.966   7.054  1.4350  2.1217  0.5645
  189SLPC   C3621867   0.952   5.994   7.262 -0.5236 -0.1810  0.5209
  189SLPC   H6X21868   0.842   5.988   7.277 -0.9103 -0.9053 -2.1629
  189SLPC   H6Y21869   0.981   6.102   7.257 -0.9480 -0.1041 -0.5284
  189SLPC   C3721870   1.027   5.958   7.388  0.5030  0.6873  0.0264
  189SLPC   H7X21871   1.135   5.939   7.369  0.4184 -2.1792  1.8057
  189SLPC   H7Y21872   0.989   5.859   7.423  0.9650  1.0708  1.6930
  189SLPC   C3821873   1.010   6.056   7.502  0.2209  0.8478 -0.3135
  189SLPC   H8X21874   1.034   6.156   7.461  1.0326  0.0460 -1.9200
  189SLPC   H8Y21875   1.093   6.048   7.576  0.1682 -2.5819 -0.4515
  189SLPC   C3921876   0.870   6.049   7.571 -0.3887 -0.7074 -0.7677
  189SLPC   H9X21877   0.857   5.941   7.597  1.0721 -0.2076  2.5997
  189SLPC   H9Y21878   0.793   6.078   7.497 -1.7261  0.3113  0.9479
  189SLPC  C31021879   0.860   6.139   7.697  0.6346 -0.4329  0.5203
  189SLPC  H10X21880   0.760   6.145   7.744  1.0338  1.8959  1.1830
  189SLPC  H10Y21881   0.880   6.244   7.665  1.9070 -0.7653  0.1384
  189SLPC  C31121882   0.957   6.096   7.805 -0.5514 -0.1028  0.7435
  189SLPC  H11X21883   1.065   6.102   7.781 -0.7327 -0.4511 -0.2182
  189SLPC  H11Y21884   0.942   5.989   7.832 -0.2250 -0.8967 -1.9363
  189SLPC  C31221885   0.931   6.184   7.930 -0.2643  0.6721  0.4177
  189SLPC  H12X21886   0.824   6.175   7.958 -0.1385  0.0105  0.7085
  189SLPC  H12Y21887   0.953   6.291   7.906 -1.0710  1.1531  1.7077
  189SLPC  C31321888   1.012   6.151   8.056  0.5802 -1.4045  0.0069
  189SLPC  H13X21889   0.998   6.237   8.125 -0.1917  0.2787 -2.1246
  189SLPC  H13Y21890   1.118   6.145   8.025 -0.0526 -0.3156 -2.7390
  189SLPC  C31421891   0.980   6.014   8.120 -0.1801 -0.6724 -0.3505
  189SLPC  H14X21892   1.013   5.929   8.056 -0.0859 -0.7299 -0.2261
  189SLPC  H14Y21893   0.872   5.999   8.142  0.3274 -1.8735  1.5536
  189SLPC  C31521894   1.050   6.000   8.246  0.6315  0.0855 -0.2342
  189SLPC  H15X21895   1.159   6.016   8.230  0.8516 -1.5400 -0.5521
  189SLPC  H15Y21896   1.042   5.895   8.281  3.5030 -0.0738  0.1827
  189SLPC  C31621897   0.999   6.096   8.353  0.0205  0.4906  0.0547
  189SLPC  H16X21898   0.892   6.087   8.382  0.6706  0.4673  2.7759
  189SLPC  H16Y21899   1.039   6.191   8.313 -1.0237  0.6931 -0.5147
  189SLPC  C31721900   1.073   6.072   8.490  0.2912  0.1775 -0.0072
  189SLPC  H17X21901   1.181   6.063   8.468  0.0148 -0.3664 -1.2383
  189SLPC  H17Y21902   1.053   5.969   8.525  0.9425  0.1262  0.2278
  189SLPC  C31821903   1.042   6.172   8.598  0.1062  0.2252 -0.7132
  189SLPC  H18X21904   1.130   6.187   8.663 -0.4428  0.9927 -0.1311
  189SLPC  H18Y21905   0.959   6.140   8.665  2.2312  0.4889  2.2568
  189SLPC  H18Z21906   1.031   6.265   8.539 -1.1380 -0.6330 -1.8977
  190SLPC     N21907   2.713   4.416   6.130 -0.4618  0.4288 -0.0719
  190SLPC   C1321908   2.827   4.397   6.035 -0.5382  0.4543  0.2676
  190SLPC  H13A21909   2.790   4.391   5.934  0.7120 -1.2888 -0.1389
  190SLPC  H13B21910   2.907   4.469   6.028 -0.9576  1.0063  0.9267
  190SLPC  H13C21911   2.856   4.293   6.047 -0.0438  0.6469  0.7885
  190SLPC   C1421912   2.772   4.449   6.263  0.2773  0.9327 -1.2364
  190SLPC  H14A21913   2.828   4.542   6.264  2.2148 -0.1835  0.0501
  190SLPC  H14B21914   2.691   4.460   6.333 -0.3473 -1.5902 -1.4596
  190SLPC  H14C21915   2.845   4.374   6.291 -0.6471  0.1420 -0.9115
  190SLPC   C1521916   2.631   4.288   6.129 -0.2097  0.1846 -1.1337
  190SLPC  H15A21917   2.560   4.302   6.208  1.5956  0.3350  0.5496
  190SLPC  H15B21918   2.577   4.269   6.037 -1.0533  0.2323 -0.6547
  190SLPC  H15C21919   2.692   4.201   6.151  0.0133 -0.2776 -3.2947
  190SLPC   C1221920   2.624   4.528   6.082  0.0338 -0.2629 -0.0461
  190SLPC  H12A21921   2.582   4.501   5.986  0.2398  1.2895 -0.5960
  190SLPC  H12B21922   2.683   4.613   6.053  1.4546 -1.8576 -2.1633
  190SLPC   C1121923   2.510   4.573   6.177 -0.5322 -0.0318 -1.1341
  190SLPC  H11A21924   2.466   4.663   6.129 -0.7314  0.7396  0.4181
  190SLPC  H11B21925   2.553   4.615   6.271 -0.0077  1.9001 -2.1596
  190SLPC     P21926   2.299   4.453   6.086 -0.6489 -0.0987 -0.2573
  190SLPC   O1321927   2.350   4.484   5.949  0.1423  0.2302  0.1695
  190SLPC   O1421928   2.219   4.333   6.107 -0.0770  0.0442  0.6184
  190SLPC   O1221929   2.417   4.468   6.196 -0.2359  0.2909 -0.3057
  190SLPC   O1121930   2.206   4.572   6.131  0.5125  0.2630  0.1673
  190SLPC    C121931   2.156   4.601   6.260  0.5093  0.4578 -0.3710
  190SLPC    HA21932   2.045   4.597   6.262  0.5527 -2.2041  0.1491
  190SLPC    HB21933   2.184   4.532   6.343 -0.1345  3.8511  2.9455
  190SLPC    C221934   2.205   4.732   6.320 -0.7437 -0.0436 -0.3586
  190SLPC    HS21935   2.316   4.730   6.327 -0.7018  0.6526 -0.6898
  190SLPC   O2121936   2.148   4.765   6.451  0.0902  0.5227  0.4321
  190SLPC   C2121937   2.206   4.703   6.546  0.3821  0.0792 -0.2058
  190SLPC   O2221938   2.288   4.613   6.534  0.0903  1.0998  0.0511
  190SLPC   C2221939   2.156   4.760   6.683 -0.0214  0.6578 -0.0070
  190SLPC   H2R21940   2.185   4.867   6.683  1.2148  0.3548  0.8383
  190SLPC   H2S21941   2.047   4.740   6.678  0.2973 -1.7459  0.8794
  190SLPC    C321942   2.175   4.848   6.225  0.2358 -0.1974 -0.3461
  190SLPC    HX21943   2.065   4.861   6.219  0.0950  0.2987  2.1577
  190SLPC    HY21944   2.228   4.811   6.135 -1.3592 -0.1117 -1.3631
  190SLPC   O3121945   2.233   4.967   6.277 -0.5306 -0.1052 -0.0555
  190SLPC   C3121946   2.148   5.044   6.347 -0.4104 -0.1131 -0.6702
  190SLPC   O3221947   2.038   5.018   6.375  0.5542 -0.1015 -0.2426
  190SLPC   C3221948   2.210   5.175   6.377 -0.7674  0.1985 -0.3862
  190SLPC   H2X21949   2.191   5.251   6.299  2.1786  1.1406 -0.3294
  190SLPC   H2Y21950   2.320   5.161   6.371 -0.3341  3.2596 -0.9083
  190SLPC   C2321951   2.205   4.692   6.813 -0.2755 -0.5783 -0.1879
  190SLPC   H3R21952   2.315   4.706   6.821  0.1712 -2.1888 -2.4780
  190SLPC   H3S21953   2.194   4.581   6.814  0.8671 -0.6948  0.2447
  190SLPC   C2421954   2.145   4.763   6.939 -0.5822 -0.2707  0.6587
  190SLPC   H4R21955   2.056   4.698   6.951  0.8469 -2.6924 -0.9065
  190SLPC   H4S21956   2.120   4.870   6.922  1.6777 -0.0336 -1.7541
  190SLPC   C2521957   2.234   4.738   7.060 -0.4856  0.2467 -0.1365
  190SLPC   H5R21958   2.312   4.816   7.068  0.2422 -0.6100  1.6405
  190SLPC   H5S21959   2.276   4.636   7.052  0.9161  0.6002  1.9630
  190SLPC   C2621960   2.136   4.742   7.184 -0.1697  0.0180  0.1870
  190SLPC   H6R21961   2.059   4.662   7.178 -0.1971 -0.0215  0.9442
  190SLPC   H6S21962   2.091   4.843   7.171 -0.1144 -0.1837 -1.8700
  190SLPC   C2721963   2.219   4.748   7.318 -0.7049  0.1462 -0.1134
  190SLPC   H7R21964   2.287   4.836   7.323 -0.1916 -0.3081  0.9877
  190SLPC   H7S21965   2.282   4.659   7.333 -0.9691 -0.1876 -0.9252
  190SLPC   C2821966   2.123   4.761   7.435  0.5219 -0.0196 -0.3832
  190SLPC   H8R21967   2.052   4.675   7.437  0.6731 -0.1541  1.2367
  190SLPC   H8S21968   2.072   4.856   7.414 -0.6585 -0.8327 -1.3076
  190SLPC   C2921969   2.198   4.759   7.565  0.0437 -0.7848 -0.3673
  190SLPC   H9R21970   2.287   4.823   7.575  0.2160 -1.3460  3.2072
  190SLPC  C21021971   2.155   4.696   7.677  0.1406  0.1294 -0.1666
  190SLPC  H10R21972   2.203   4.703   7.776 -1.2381  0.2363  0.5137
  190SLPC  C21121973   2.033   4.607   7.691 -0.3126 -0.2094  1.0638
  190SLPC  H11R21974   1.996   4.582   7.590  0.5716 -1.7773  1.1040
  190SLPC  H11S21975   1.959   4.672   7.743 -3.7987 -3.2034  0.3264
  190SLPC  C21221976   2.044   4.479   7.773  0.1401 -0.4392  0.4671
  190SLPC  H12R21977   2.145   4.450   7.805 -0.6585 -1.3191  2.3081
  190SLPC  C21321978   1.943   4.388   7.771 -0.1194  0.5610  0.2249
  190SLPC  H13R21979   1.967   4.290   7.814  0.9542  1.3256  1.4430
  190SLPC  C21421980   1.800   4.410   7.722 -0.6505 -0.2766 -0.3132
  190SLPC  H14R21981   1.798   4.509   7.671  0.9580  1.0483  2.0002
  190SLPC  H14S21982   1.732   4.426   7.809  0.1480 -0.3045  0.3254
  190SLPC  C21521983   1.749   4.303   7.612 -0.1740 -0.1331  1.0882
  190SLPC  H15R21984   1.642   4.328   7.598 -0.9142 -1.5954  3.5360
  190SLPC  H15S21985   1.750   4.202   7.657 -1.7530 -1.1763 -1.0398
  190SLPC  C21621986   1.830   4.311   7.476  0.3609  0.2559  0.2335
  190SLPC  H16R21987   1.809   4.223   7.411 -0.8643 -2.6719  4.1779
  190SLPC  H16S21988   1.935   4.298   7.509  1.1885 -0.9499 -2.5833
  190SLPC  C21721989   1.818   4.439   7.392  1.0884  0.5686 -0.6881
  190SLPC  H17R21990   1.831   4.533   7.450 -0.8355  0.1993  0.4226
  190SLPC  H17S21991   1.712   4.445   7.360  0.5246 -0.5617  0.8601
  190SLPC  C21821992   1.914   4.444   7.270  0.5749  0.4876 -0.2140
  190SLPC  H18R21993   1.912   4.350   7.212 -2.2569 -0.1596  0.7543
  190SLPC  H18S21994   2.018   4.459   7.306  1.4387 -1.2689 -1.8526
  190SLPC  H18T21995   1.885   4.528   7.203  3.7519  1.6300 -0.3294
  190SLPC   C3321996   2.167   5.240   6.503  0.1043 -0.6365  0.1590
  190SLPC   H3X21997   2.057   5.261   6.499 -0.0623 -1.6146 -1.0003
  190SLPC   H3Y21998   2.218   5.338   6.510 -1.3456  0.2460 -1.0628
  190SLPC   C3421999   2.199   5.169   6.627 -0.1823  0.0270 -0.2108
  190SLPC   H4X22000   2.299   5.123   6.637  0.8023  2.0111 -0.5698
  190SLPC   H4Y22001   2.133   5.079   6.630 -0.4498  0.2357  2.1573
  190SLPC   C3522002   2.168   5.239   6.756 -0.2476  0.1165 -0.8736
  190SLPC   H5X22003   2.058   5.237   6.768 -0.3351 -0.7421 -1.6705
  190SLPC   H5Y22004   2.207   5.343   6.763 -0.1225  0.0198 -0.0522
  190SLPC   C3622005   2.229   5.160   6.879 -0.0626  0.7500  0.1831
  190SLPC   H6X22006   2.339   5.148   6.870 -0.1456 -0.8447  0.9856
  190SLPC   H6Y22007   2.175   5.063   6.892 -0.4181  1.1051  1.5063
  190SLPC   C3722008   2.209   5.233   7.009  0.1419  0.4655  0.6076
  190SLPC   H7X22009   2.116   5.294   7.003 -0.8414 -1.0742 -2.4351
  190SLPC   H7Y22010   2.287   5.309   7.026  0.4650  0.8471 -2.0790
  190SLPC   C3822011   2.197   5.142   7.136  1.0445 -0.3534  0.1927
  190SLPC   H8X22012   2.284   5.075   7.154  2.1610  1.3511  1.3978
  190SLPC   H8Y22013   2.111   5.071   7.135 -0.8908  1.7386  2.7363
  190SLPC   C3922014   2.165   5.228   7.261 -0.5047 -0.3330  0.2240
  190SLPC   H9X22015   2.087   5.305   7.240 -1.2213 -0.4330  2.2852
  190SLPC   H9Y22016   2.254   5.291   7.286  0.4738 -1.5385 -0.1222
  190SLPC  C31022017   2.123   5.133   7.378 -0.8208 -0.4873 -0.1879
  190SLPC  H10X22018   2.188   5.043   7.374 -0.7217 -0.3926 -0.7505
  190SLPC  H10Y22019   2.023   5.095   7.350  0.0656 -1.3188 -2.4315
  190SLPC  C31122020   2.125   5.209   7.516  0.0395 -0.7072 -0.0828
  190SLPC  H11X22021   2.041   5.282   7.512  0.4880 -0.1764  0.1911
  190SLPC  H11Y22022   2.220   5.265   7.529 -1.6629  2.6097 -0.7864
  190SLPC  C31222023   2.106   5.126   7.641  0.4697  0.3296 -0.0622
  190SLPC  H12X22024   2.192   5.055   7.645 -0.5908 -0.9927  0.4658
  190SLPC  H12Y22025   2.017   5.059   7.635 -0.8887  1.9960  0.7277
  190SLPC  C31322026   2.100   5.211   7.766  0.4373  0.2055  0.3020
  190SLPC  H13X22027   1.997   5.252   7.774 -0.0662 -0.5073 -1.8598
  190SLPC  H13Y22028   2.183   5.284   7.757  1.2298 -0.7835 -0.6405
  190SLPC  C31422029   2.106   5.133   7.901  0.2966 -0.1965  1.0466
  190SLPC  H14X22030   2.054   5.035   7.889  0.9117 -0.2487 -2.0186
  190SLPC  H14Y22031   2.042   5.185   7.975 -0.6894 -0.9070  0.7257
  190SLPC  C31522032   2.249   5.105   7.959 -0.5468  0.1171  0.0568
  190SLPC  H15X22033   2.267   5.181   8.038  0.5413  0.3752 -0.4169
  190SLPC  H15Y22034   2.330   5.116   7.883 -0.3778 -2.3439 -0.1730
  190SLPC  C31622035   2.257   4.964   8.024 -0.5565  0.0386 -0.5352
  190SLPC  H16X22036   2.286   4.909   7.932 -0.7724  1.4055 -1.4465
  190SLPC  H16Y22037   2.159   4.923   8.056 -1.0804 -0.7850 -3.0312
  190SLPC  C31722038   2.370   4.959   8.133  0.5707  0.1355 -0.3092
  190SLPC  H17X22039   2.345   5.050   8.192  0.5595  0.5794 -0.9855
  190SLPC  H17Y22040   2.467   4.972   8.080  0.5273  1.0846 -0.1631
  190SLPC  C31822041   2.377   4.824   8.215 -0.3496 -0.5651 -0.5146
  190SLPC  H18X22042   2.293   4.792   8.281  0.4599 -0.5058  0.5820
  190SLPC  H18Y22043   2.461   4.832   8.288 -0.2392 -0.3478 -0.6637
  190SLPC  H18Z22044   2.392   4.741   8.144 -0.4175 -0.3346 -0.7993
  191SLPC     N22045   0.644   1.676   5.759 -0.4725  0.0441 -0.3367
  191SLPC   C1322046   0.754   1.616   5.679  0.1203  0.3340  0.2203
  191SLPC  H13A22047   0.797   1.694   5.617  2.3608 -1.0245 -0.0552
  191SLPC  H13B22048   0.837   1.574   5.734  0.4837  0.0671 -0.5198
  191SLPC  H13C22049   0.717   1.532   5.623 -1.3304  1.1213 -0.0449
  191SLPC   C1422050   0.585   1.582   5.848 -0.3469 -0.1887  0.6884
  191SLPC  H14A22051   0.664   1.559   5.919  0.4236 -0.7114 -0.3121
  191SLPC  H14B22052   0.495   1.612   5.899 -0.6963 -2.7257  1.7394
  191SLPC  H14C22053   0.548   1.494   5.797  0.2257 -0.9728  1.5739
  191SLPC   C1522054   0.550   1.724   5.657 -0.0868 -0.0178 -0.0823
  191SLPC  H15A22055   0.468   1.773   5.708 -0.4290  0.2124 -0.8436
  191SLPC  H15B22056   0.597   1.797   5.593  1.1214  0.9478  1.8244
  191SLPC  H15C22057   0.523   1.639   5.596 -0.3133  0.9595 -1.3908
  191SLPC   C1222058   0.695   1.794   5.838 -0.1599  0.3998  0.1658
  191SLPC  H12A22059   0.614   1.844   5.888  0.0022  2.2651 -1.3365
  191SLPC  H12B22060   0.727   1.862   5.760 -1.4738 -0.3984 -1.1331
  191SLPC   C1122061   0.817   1.775   5.931 -0.9628  0.0347 -0.3270
  191SLPC  H11A22062   0.805   1.863   5.997 -0.3498 -0.4421  0.4396
  191SLPC  H11B22063   0.914   1.773   5.876  1.4252  0.8815  3.4897
  191SLPC     P22064   0.929   1.545   6.006 -0.1065 -0.2107  0.5793
  191SLPC   O1322065   0.861   1.425   6.058  1.0575  0.5107  0.1659
  191SLPC   O1422066   0.983   1.533   5.867  0.4899  0.5608  0.0973
  191SLPC   O1222067   0.812   1.661   6.011 -0.0490  0.1816  0.1202
  191SLPC   O1122068   1.053   1.589   6.100  0.1098 -0.1602  0.1694
  191SLPC    C122069   1.038   1.674   6.214  0.2446 -0.0765 -0.2751
  191SLPC    HA22070   1.137   1.722   6.226  0.6339 -1.0305  0.3683
  191SLPC    HB22071   0.964   1.754   6.191 -1.7091 -1.7128 -0.0253
  191SLPC    C222072   1.011   1.588   6.340  0.0953  0.1099 -0.3903
  191SLPC    HS22073   0.902   1.567   6.329 -0.1722  1.5371 -0.7297
  191SLPC   O2122074   1.051   1.672   6.452  0.3573 -0.0308 -0.2991
  191SLPC   C2122075   0.973   1.636   6.560 -0.0697  0.4035 -0.0822
  191SLPC   O2222076   0.866   1.573   6.552 -0.1431 -0.3710 -0.0067
  191SLPC   C2222077   1.043   1.684   6.690 -0.2415 -0.4547 -0.3991
  191SLPC   H2R22078   1.109   1.598   6.714  0.3342 -0.2498 -1.2122
  191SLPC   H2S22079   1.108   1.772   6.673 -1.0520  0.1877 -0.2789
  191SLPC    C322080   1.097   1.453   6.336 -1.0186  0.0363  0.0767
  191SLPC    HX22081   1.204   1.481   6.333 -0.7878 -0.3292  2.7438
  191SLPC    HY22082   1.072   1.404   6.240  0.1202 -0.5600  0.0650
  191SLPC   O3122083   1.086   1.367   6.445  0.5586  0.0200 -0.4070
  191SLPC   C3122084   0.977   1.295   6.457  0.4846 -0.1010  0.8630
  191SLPC   O3222085   0.890   1.293   6.367 -0.0589 -0.2446  0.5144
  191SLPC   C3222086   0.964   1.228   6.594 -0.4130 -0.3172  0.7024
  191SLPC   H2X22087   1.024   1.285   6.668  0.7379 -1.0961  0.3919
  191SLPC   H2Y22088   0.992   1.122   6.581 -1.6557 -0.7090  1.0241
  191SLPC   C2322089   0.947   1.713   6.802 -0.8471 -0.0277  0.0711
  191SLPC   H3R22090   0.899   1.617   6.828 -1.0874 -0.6113 -2.2788
  191SLPC   H3S22091   0.872   1.793   6.787 -0.4926  0.5381  1.2248
  191SLPC   C2422092   1.020   1.752   6.929  0.3230 -0.1460  0.2504
  191SLPC   H4R22093   1.128   1.767   6.909  0.0639  0.4363 -0.7839
  191SLPC   H4S22094   1.021   1.659   6.990  0.2112 -0.2438  0.1035
  191SLPC   C2522095   0.957   1.868   7.009 -0.0749 -0.4704  0.5839
  191SLPC   H5R22096   0.847   1.871   7.024 -0.0890  2.3639  0.4130
  191SLPC   H5S22097   0.978   1.967   6.961  0.1258  0.1243  1.8638
  191SLPC   C2622098   1.002   1.878   7.157 -0.2163  0.1927  0.0311
  191SLPC   H6R22099   0.962   1.970   7.205 -0.1904 -0.4182  1.2586
  191SLPC   H6S22100   1.110   1.901   7.159  0.0063 -0.8479  0.5798
  191SLPC   C2722101   0.964   1.757   7.243 -0.2706 -0.7653  0.0219
  191SLPC   H7R22102   0.979   1.665   7.182 -0.2904  0.4486 -1.8810
  191SLPC   H7S22103   0.856   1.755   7.272 -0.4401 -1.0547 -0.5942
  191SLPC   C2822104   1.056   1.757   7.363 -0.0871 -0.4696  0.7826
  191SLPC   H8R22105   1.162   1.771   7.333 -0.7365 -0.3699 -1.7700
  191SLPC   H8S22106   1.040   1.652   7.393  0.9630 -1.4983 -1.8932
  191SLPC   C2922107   1.003   1.863   7.456 -0.5145 -0.2817  0.1194
  191SLPC   H9R22108   1.006   1.960   7.404  0.6962 -0.9383 -1.1094
  191SLPC  C21022109   0.952   1.852   7.579  0.5470  0.0416  0.3660
  191SLPC  H10R22110   0.941   1.952   7.624  0.2005  0.1270  0.1000
  191SLPC  C21122111   0.938   1.726   7.669  0.3160 -1.1285  1.0198
  191SLPC  H11R22112   0.951   1.638   7.602 -0.3321 -0.6505  0.2552
  191SLPC  H11S22113   0.833   1.729   7.705  0.0666  1.8811  0.2363
  191SLPC  C21222114   1.050   1.728   7.774 -0.1929 -0.2359  0.1333
  191SLPC  H12R22115   1.150   1.753   7.736  0.7518 -3.3598  0.2729
  191SLPC  C21322116   1.037   1.721   7.907  0.0683 -0.3455  0.1761
  191SLPC  H13R22117   1.132   1.728   7.964 -1.5090 -1.4928  3.2047
  191SLPC  C21422118   0.921   1.690   8.000 -0.2517 -0.1079 -0.2733
  191SLPC  H14R22119   0.938   1.605   8.070 -2.7480  0.9870  1.8629
  191SLPC  H14S22120   0.827   1.668   7.945  0.2565 -1.2797 -0.7078
  191SLPC  C21522121   0.876   1.804   8.089 -0.0806 -0.6000 -0.1095
  191SLPC  H15R22122   0.967   1.822   8.150  1.0090 -2.3980 -1.1160
  191SLPC  H15S22123   0.785   1.775   8.145 -1.2677  0.4626 -1.4212
  191SLPC  C21622124   0.827   1.931   8.021 -0.2613  0.0576  0.2212
  191SLPC  H16R22125   0.742   1.898   7.957  0.2539 -1.2597  0.1730
  191SLPC  H16S22126   0.906   1.974   7.956  2.4347 -0.1607  3.0979
  191SLPC  C21722127   0.783   2.032   8.122  0.5874  0.4153  0.3762
  191SLPC  H17R22128   0.877   2.079   8.160  1.8053 -0.7929 -1.0284
  191SLPC  H17S22129   0.729   2.002   8.214 -1.6861  1.8155 -0.4071
  191SLPC  C21822130   0.693   2.139   8.048 -0.0837  0.1448 -0.4891
  191SLPC  H18R22131   0.750   2.181   7.962 -3.0142  1.5382 -1.9125
  191SLPC  H18S22132   0.673   2.220   8.121  0.9654 -0.6956  0.7578
  191SLPC  H18T22133   0.601   2.094   8.005  1.5201 -3.7426 -0.2277
  191SLPC   C3322134   0.818   1.214   6.651 -0.0645 -0.6605  0.7463
  191SLPC   H3X22135   0.762   1.146   6.583 -2.4989  0.8986  1.0696
  191SLPC   H3Y22136   0.775   1.317   6.648 -2.3483 -1.5551  0.4843
  191SLPC   C3422137   0.814   1.147   6.795  0.4105 -0.0432  0.8189
  191SLPC   H4X22138   0.875   1.217   6.856  2.1258 -0.9382  0.1779
  191SLPC   H4Y22139   0.866   1.049   6.792  0.0436 -0.2344  0.6593
  191SLPC   C3522140   0.674   1.134   6.860  0.4080  0.2935 -0.8357
  191SLPC   H5X22141   0.621   1.047   6.816  0.5922  0.7374 -1.9726
  191SLPC   H5Y22142   0.613   1.224   6.836  0.7050  1.1537  1.4297
  191SLPC   C3622143   0.686   1.140   7.016  0.2767  0.4766 -0.7152
  191SLPC   H6X22144   0.750   1.222   7.053 -1.3898  0.8677  1.5063
  191SLPC   H6Y22145   0.739   1.048   7.049 -1.9880 -1.1391 -1.3225
  191SLPC   C3722146   0.548   1.138   7.084  0.1161 -0.6117  0.2191
  191SLPC   H7X22147   0.505   1.043   7.044  2.1917 -0.5044 -2.6128
  191SLPC   H7Y22148   0.492   1.225   7.045 -0.1213  0.0232  1.9308
  191SLPC   C3822149   0.548   1.143   7.233 -0.2090  0.1967 -0.7871
  191SLPC   H8X22150   0.445   1.112   7.260 -0.9258  1.6360 -1.7440
  191SLPC   H8Y22151   0.564   1.242   7.280  1.5245 -0.8449  0.9751
  191SLPC   C3922152   0.651   1.043   7.298  0.3094  0.7259  0.7189
  191SLPC   H9X22153   0.759   1.069   7.302  0.2985  0.8428  0.2971
  191SLPC   H9Y22154   0.629   0.954   7.235  1.6091  0.2042  0.9614
  191SLPC  C31022155   0.608   0.991   7.439 -0.1577 -0.4377 -0.4381
  191SLPC  H10X22156   0.687   0.920   7.471 -0.2143 -0.2521  0.1270
  191SLPC  H10Y22157   0.516   0.928   7.434 -1.5435  1.2966  1.6197
  191SLPC  C31122158   0.577   1.092   7.546 -0.1321 -0.3609 -0.2442
  191SLPC  H11X22159   0.479   1.141   7.531  0.0868 -0.4721 -2.4403
  191SLPC  H11Y22160   0.641   1.183   7.544  0.8112 -0.9803  0.8754
  191SLPC  C31222161   0.574   1.033   7.689  0.5466 -0.2873 -0.2613
  191SLPC  H12X22162   0.666   0.970   7.692  2.3256  2.2129  0.2912
  191SLPC  H12Y22163   0.495   0.958   7.711  1.9690 -1.4937  0.9779
  191SLPC  C31322164   0.576   1.138   7.805 -0.1064  0.4512 -0.4198
  191SLPC  H13X22165   0.484   1.199   7.812  0.4499  1.2585 -0.0374
  191SLPC  H13Y22166   0.656   1.213   7.791  0.1286  0.0124 -1.6362
  191SLPC  C31422167   0.598   1.065   7.938 -0.5004 -0.3396 -0.4317
  191SLPC  H14X22168   0.694   1.009   7.939 -0.9571 -1.2180 -2.3716
  191SLPC  H14Y22169   0.517   0.995   7.971 -0.3384 -0.3918 -0.1361
  191SLPC  C31522170   0.598   1.164   8.059  0.3675  0.0010  0.2952
  191SLPC  H15X22171   0.586   1.109   8.155  0.9409 -0.4392  0.1240
  191SLPC  H15Y22172   0.505   1.224   8.063  1.5179  2.1506 -2.1265
  191SLPC  C31622173   0.714   1.257   8.068 -0.7153  0.0498  0.8066
  191SLPC  H16X22174   0.741   1.299   7.969  0.6546 -2.4955  0.0180
  191SLPC  H16Y22175   0.803   1.195   8.092 -0.3701  0.0851 -0.3105
  191SLPC  C31722176   0.705   1.362   8.181 -0.5510  0.4469 -0.0937
  191SLPC  H17X22177   0.803   1.413   8.192  0.0889 -0.5661 -0.8654
  191SLPC  H17Y22178   0.678   1.316   8.279  0.8738  0.8997  0.5481
  191SLPC  C31822179   0.616   1.483   8.142  0.0682  0.1567  0.1561
  191SLPC  H18X22180   0.609   1.562   8.219 -0.2265  0.8925 -0.5992
  191SLPC  H18Y22181   0.519   1.450   8.098 -0.1173 -0.4037  0.9686
  191SLPC  H18Z22182   0.655   1.533   8.050 -1.7521 -0.2341 -0.8764
  192SLPC     N22183   0.128   1.088   5.910 -0.0695 -0.7328 -0.3602
  192SLPC   C1322184   0.220   1.175   5.822  0.0753  0.0899  0.5571
  192SLPC  H13A22185   0.325   1.162   5.845 -0.1844 -3.1253  0.4133
  192SLPC  H13B22186   0.206   1.164   5.716  2.7330  2.4268 -0.1679
  192SLPC  H13C22187   0.197   1.277   5.850 -2.7532 -0.5148  0.6804
  192SLPC   C1422188   0.127   0.953   5.861  0.0186  0.2825 -0.4541
  192SLPC  H14A22189   0.221   0.899   5.868  0.8329  0.8548 -4.4592
  192SLPC  H14B22190   0.052   0.887   5.901  2.0018 -1.7470  0.0970
  192SLPC  H14C22191   0.102   0.952   5.756 -0.1977  0.4547 -0.4030
  192SLPC   C1522192  -0.010   1.151   5.909  0.0538 -0.2773  0.2881
  192SLPC  H15A22193  -0.074   1.081   5.960  1.2234 -2.0898 -0.6382
  192SLPC  H15B22194   0.000   1.243   5.965  0.0606  0.8563 -1.4875
  192SLPC  H15C22195  -0.045   1.159   5.808 -0.7441 -0.0556  0.5781
  192SLPC   C1222196   0.181   1.079   6.057 -0.1134 -0.4135  0.3601
  192SLPC  H12A22197   0.190   1.181   6.092  0.1157 -0.7903  1.4166
  192SLPC  H12B22198   0.280   1.037   6.059  0.7478  1.3775 -1.0941
  192SLPC   C1122199   0.085   0.998   6.149  0.1201  0.4267 -0.3613
  192SLPC  H11A22200   0.147   0.989   6.241  0.3817  3.5532 -0.1470
  192SLPC  H11B22201   0.065   0.893   6.117 -2.2617  0.9480 -0.7603
  192SLPC     P22202  -0.141   1.014   6.276  0.2065  0.2340  0.3375
  192SLPC   O1322203  -0.258   1.105   6.274 -0.0030 -0.1978  0.2057
  192SLPC   O1422204  -0.162   0.872   6.243  0.4074 -0.4646 -0.2528
  192SLPC   O1222205  -0.038   1.070   6.177  0.9018 -0.3561  0.4851
  192SLPC   O1122206  -0.068   1.021   6.418 -0.1073  0.2307  0.2417
  192SLPC    C122207  -0.128   1.089   6.519  0.1071  0.1394  0.1731
  192SLPC    HA22208  -0.239   1.079   6.514  0.2529 -1.0347 -1.4874
  192SLPC    HB22209  -0.089   1.044   6.613  0.2152  1.0274  0.5567
  192SLPC    C222210  -0.090   1.239   6.530 -0.1460  0.0166 -0.3730
  192SLPC    HS22211  -0.148   1.289   6.449 -3.6398 -0.3767  1.6893
  192SLPC   O2122212   0.052   1.263   6.525  0.1516  0.0768 -0.0663
  192SLPC   C2122213   0.095   1.352   6.437  0.9903 -0.4974 -0.0215
  192SLPC   O2222214   0.027   1.414   6.354 -0.2188 -0.0317  0.2181
  192SLPC   C2222215   0.246   1.341   6.439  0.1709 -0.0558 -0.3118
  192SLPC   H2R22216   0.273   1.234   6.434 -2.3036 -0.7599  0.4325
  192SLPC   H2S22217   0.282   1.396   6.349 -2.3794  0.0139 -1.3840
  192SLPC    C322218  -0.141   1.298   6.660  0.8505  0.3154 -0.2014
  192SLPC    HX22219  -0.097   1.399   6.672  1.3067  0.1267 -0.2497
  192SLPC    HY22220  -0.110   1.230   6.742 -1.0137  0.3896  0.6177
  192SLPC   O3122221  -0.282   1.292   6.661 -0.0133 -0.2081 -0.0402
  192SLPC   C3122222  -0.346   1.400   6.613 -0.0140 -0.1501  0.3611
  192SLPC   O3222223  -0.289   1.496   6.557 -0.0390 -0.1513  0.2086
  192SLPC   C3222224  -0.494   1.385   6.636 -0.0940  0.1630 -0.1822
  192SLPC   H2X22225  -0.516   1.307   6.561  1.8156  0.3924 -1.0308
  192SLPC   H2Y22226  -0.541   1.476   6.594  1.5205  1.4145  0.6174
  192SLPC   C2322227   0.312   1.392   6.568 -0.3788 -0.8569  0.2907
  192SLPC   H3R22228   0.276   1.339   6.659 -1.3426 -0.2830  0.2583
  192SLPC   H3S22229   0.271   1.495   6.578 -0.3223 -0.7227 -0.7447
  192SLPC   C2422230   0.468   1.403   6.562  0.3546 -0.1205 -0.2453
  192SLPC   H4R22231   0.502   1.446   6.465 -0.5227 -1.1915 -1.0576
  192SLPC   H4S22232   0.501   1.298   6.582 -2.8042 -0.9111  1.4927
  192SLPC   C2522233   0.521   1.488   6.678 -0.4540 -0.0957 -0.2978
  192SLPC   H5R22234   0.632   1.488   6.678 -0.4230 -1.5361  1.0823
  192SLPC   H5S22235   0.490   1.441   6.774 -0.2081 -2.5514 -1.3628
  192SLPC   C2622236   0.475   1.639   6.676 -0.4092 -0.3313 -0.0203
  192SLPC   H6R22237   0.367   1.633   6.703 -0.8615  2.0636 -1.0532
  192SLPC   H6S22238   0.473   1.664   6.568 -0.9541 -0.8917 -0.1434
  192SLPC   C2722239   0.568   1.721   6.758 -0.4019  0.6258 -0.0317
  192SLPC   H7R22240   0.543   1.829   6.773 -0.0057  0.6862  0.2143
  192SLPC   H7S22241   0.666   1.723   6.706 -1.2503  0.7055 -1.7005
  192SLPC   C2822242   0.579   1.670   6.899 -0.3913 -0.0144  0.3399
  192SLPC   H8R22243   0.672   1.717   6.938  1.4149 -0.6208 -2.8170
  192SLPC   H8S22244   0.596   1.561   6.907 -1.8472 -0.1995  1.2927
  192SLPC   C2922245   0.468   1.721   6.991  0.0526 -0.7328 -0.6404
  192SLPC   H9R22246   0.414   1.815   6.972 -1.3883 -0.5484  3.3359
  192SLPC  C21022247   0.417   1.666   7.096 -0.5541  0.0814 -0.5700
  192SLPC  H10R22248   0.343   1.724   7.153 -1.3970 -0.4408 -1.0992
  192SLPC  C21122249   0.456   1.530   7.160 -0.5127 -0.2267  0.3479
  192SLPC  H11R22250   0.498   1.459   7.085 -0.1716 -0.2903  0.5979
  192SLPC  H11S22251   0.375   1.488   7.223  0.8847 -1.4856  1.3744
  192SLPC  C21222252   0.577   1.571   7.245  0.1289  0.3270 -0.5368
  192SLPC  H12R22253   0.658   1.627   7.196  0.3976  0.4939  0.0935
  192SLPC  C21322254   0.579   1.551   7.382 -0.3635  0.2739  0.3061
  192SLPC  H13R22255   0.663   1.593   7.439 -0.5094  0.9952  0.0003
  192SLPC  C21422256   0.476   1.482   7.462 -0.2240 -0.0972 -0.2906
  192SLPC  H14R22257   0.506   1.375   7.458  2.0066  0.3890  1.3094
  192SLPC  H14S22258   0.372   1.499   7.426 -0.3347  0.8943  0.4627
  192SLPC  C21522259   0.490   1.535   7.608  0.0611  0.0859  0.1793
  192SLPC  H15R22260   0.483   1.646   7.608  2.6079  0.3074 -0.4428
  192SLPC  H15S22261   0.592   1.513   7.646 -0.4894 -2.1227  0.5374
  192SLPC  C21622262   0.378   1.490   7.703  0.9045 -0.0041 -0.0734
  192SLPC  H16R22263   0.374   1.379   7.700 -1.3052 -0.1238  2.5747
  192SLPC  H16S22264   0.280   1.531   7.668  1.5211  1.5347 -0.0729
  192SLPC  C21722265   0.404   1.515   7.854 -0.0887 -0.6273  0.2456
  192SLPC  H17R22266   0.345   1.449   7.921 -0.5964  0.1665  0.5973
  192SLPC  H17S22267   0.509   1.480   7.864  0.2934  0.4449  0.1245
  192SLPC  C21822268   0.392   1.660   7.912 -0.0494  0.0143  0.1617
  192SLPC  H18R22269   0.422   1.665   8.018 -1.0329 -1.0671  0.5160
  192SLPC  H18S22270   0.290   1.705   7.913  1.2769  3.2528  1.2147
  192SLPC  H18T22271   0.454   1.729   7.850  0.3883 -1.7597 -1.4907
  192SLPC   C3322272  -0.536   1.361   6.785 -0.1339 -0.5441  0.5094
  192SLPC   H3X22273  -0.524   1.253   6.809 -0.8124 -0.7192  0.1021
  192SLPC   H3Y22274  -0.646   1.375   6.792 -0.5935 -3.3479 -0.0034
  192SLPC   C3422275  -0.467   1.447   6.889  0.2320  0.1652  0.0393
  192SLPC   H4X22276  -0.502   1.552   6.879  2.3936  1.5024  4.2931
  192SLPC   H4Y22277  -0.356   1.440   6.883  0.2565 -0.2416  0.8370
  192SLPC   C3522278  -0.496   1.411   7.033  0.5914  0.3078 -0.4435
  192SLPC   H5X22279  -0.513   1.301   7.045 -0.8356  0.3916 -1.3779
  192SLPC   H5Y22280  -0.597   1.446   7.065  1.9606  2.4535  1.8422
  192SLPC   C3622281  -0.395   1.475   7.133  0.1666  0.0296 -0.0308
  192SLPC   H6X22282  -0.384   1.586   7.132  1.4906 -0.0559  1.3067
  192SLPC   H6Y22283  -0.289   1.444   7.117  0.3613  1.4620 -2.0516
  192SLPC   C3722284  -0.443   1.441   7.273 -0.8786 -0.6388 -0.6715
  192SLPC   H7X22285  -0.448   1.331   7.285  3.9582 -0.9929  0.0746
  192SLPC   H7Y22286  -0.536   1.500   7.285  0.1894  1.2559 -1.2005
  192SLPC   C3822287  -0.342   1.470   7.382  0.3511  0.1926 -0.1347
  192SLPC   H8X22288  -0.330   1.580   7.385  0.2621  0.1864  0.8803
  192SLPC   H8Y22289  -0.241   1.430   7.357  0.9884  0.7614  1.3985
  192SLPC   C3922290  -0.370   1.428   7.518 -0.5225 -0.2429  0.9515
  192SLPC   H9X22291  -0.376   1.317   7.521 -1.4332 -0.3133 -1.4087
  192SLPC   H9Y22292  -0.464   1.477   7.553 -1.4260  0.8319 -2.6339
  192SLPC  C31022293  -0.262   1.464   7.621 -0.4854 -0.3964  0.4402
  192SLPC  H10X22294  -0.255   1.574   7.634  0.9496 -0.4992  0.6992
  192SLPC  H10Y22295  -0.160   1.432   7.593 -0.0704  0.8658  0.4676
  192SLPC  C31122296  -0.281   1.414   7.767  0.1765 -0.2682  0.7465
  192SLPC  H11X22297  -0.186   1.423   7.822 -0.0788  1.8993  0.9236
  192SLPC  H11Y22298  -0.311   1.308   7.757  0.0252 -0.0432 -1.9497
  192SLPC  C31222299  -0.386   1.488   7.843  0.2822  0.0246  0.1654
  192SLPC  H12X22300  -0.477   1.510   7.783  1.7973  1.4172 -1.7321
  192SLPC  H12Y22301  -0.347   1.590   7.866 -0.1927  0.9065 -2.6085
  192SLPC  C31322302  -0.430   1.399   7.960  0.4071 -0.1007 -0.6359
  192SLPC  H13X22303  -0.341   1.359   8.013 -0.7931 -3.2589 -0.8256
  192SLPC  H13Y22304  -0.488   1.314   7.920 -1.6536 -0.1076  2.0666
  192SLPC  C31422305  -0.517   1.484   8.054 -0.0771  0.1179 -0.3339
  192SLPC  H14X22306  -0.616   1.502   8.008  0.8805  0.7924 -2.2259
  192SLPC  H14Y22307  -0.462   1.580   8.061 -0.8032  0.3999  2.6621
  192SLPC  C31522308  -0.548   1.425   8.190  0.0684  0.5248 -0.5622
  192SLPC  H15X22309  -0.452   1.404   8.241 -0.5640 -0.4677  0.2808
  192SLPC  H15Y22310  -0.587   1.322   8.171  1.4024 -0.4538  1.6565
  192SLPC  C31622311  -0.626   1.524   8.281 -0.2720  0.5462 -0.1347
  192SLPC  H16X22312  -0.734   1.504   8.265 -0.5462  1.2677  0.7269
  192SLPC  H16Y22313  -0.598   1.630   8.264  2.1379  0.0750  0.5000
  192SLPC  C31722314  -0.604   1.500   8.429  0.0816  0.6832  0.3048
  192SLPC  H17X22315  -0.501   1.528   8.460  0.7329 -0.5935 -0.6406
  192SLPC  H17Y22316  -0.619   1.393   8.455  3.2916  0.3323  1.1414
  192SLPC  C31822317  -0.707   1.576   8.513 -0.4780  0.7413 -0.2791
  192SLPC  H18X22318  -0.685   1.684   8.525 -1.6161  1.1533 -1.6449
  192SLPC  H18Y22319  -0.718   1.538   8.617 -1.0089  0.7635 -0.3268
  192SLPC  H18Z22320  -0.807   1.571   8.465 -0.5930  1.9485 -0.1900
  193SOD    SOD22321   0.599   5.369  14.232  0.0199 -0.2742 -0.1136
  194SOD    SOD22322   4.893   0.200   4.816 -0.0996  0.3699 -0.4671
  195SOD    SOD22323   3.752   4.014   6.342 -0.4260 -0.0248  0.2167
  196SOD    SOD22324   4.719   1.156   3.892 -0.2176  0.0203 -0.3396
  197SOD    SOD22325   3.095   0.278  14.123  0.3017  0.7717  0.1096
  198SOD    SOD22326   4.925   5.285  13.077 -0.1444 -0.0648  0.1049
  199SOD    SOD22327   4.806   6.675  16.368 -0.2305 -0.2502  0.4695
  200SOD    SOD22328   5.349   4.908  13.525  0.4842 -0.1198 -0.1434
  201SOD    SOD22329   5.761   1.628   1.294  0.0895 -0.2845  0.2154
  202SOD    SOD22330   6.418   3.461   2.421 -0.5383 -0.1579  0.2980
  203SOD    SOD22331   0.030   0.154   0.844 -0.2599  0.0403 -0.2500
  204SOD    SOD22332   0.526   0.733  11.656 -0.0389 -0.0644  0.0186
  205SOD    SOD22333   5.671   6.291   5.949 -0.3463  0.1248 -0.0508
  206SOD    SOD22334   6.665   2.606   5.302  0.0251  0.1780 -0.3431
  207SOD    SOD22335   1.439   5.230  10.157 -0.3245 -0.1732  0.3578
  208SOD    SOD22336   5.391   6.549  11.543 -0.4202 -0.1732 -0.5986
  209SOD    SOD22337   1.452   4.914   2.646  0.4239  0.1158  0.0807
  210SOD    SOD22338   3.082   4.982   0.993 -0.0870  0.3521 -0.2641
  211SOD    SOD22339   0.084   0.591   2.401  0.1593 -0.0540  0.0607
  212SOD    SOD22340   0.278   1.085  14.376  0.1982  0.6305  0.6199
  213SOD    SOD22341   6.735   1.351   5.199 -0.1994  0.1412 -0.6389
  214SOD    SOD22342   3.908   2.103  16.788 -0.2125 -0.2916  0.0449
  215SOD    SOD22343   4.760   6.545  16.977  0.2843 -0.6495 -0.6962
  216SOD    SOD22344   3.312   5.278  15.760 -0.0171 -0.3061  0.0247
  217SOD    SOD22345   2.896   0.338  12.380 -0.8249 -0.1670  0.1097
  218SOD    SOD22346   5.908   4.465   5.592  0.3447 -0.6332 -0.1127
  219SOD    SOD22347   0.515   0.096   5.832 -0.0507  0.0899 -0.1527
  220SOD    SOD22348   3.561   4.231  10.884 -0.8701 -0.2121 -0.2941
  221SOD    SOD22349   0.274   5.702   3.428 -0.1451 -0.3105  0.0648
  222SOD    SOD22350   0.807   5.474  17.064 -0.0890 -0.2080  0.9372
  223SOD    SOD22351   4.838   2.783   0.682 -0.7942  0.0492 -0.1097
  224SOD    SOD22352   6.488   4.199  16.421 -0.8688  0.0556  0.2949
  225SOD    SOD22353   6.198   6.244   5.833  0.2224 -0.6650  0.1380
  226SOD    SOD22354   1.188   5.925  14.093 -0.0706 -0.4208  0.2844
  227SOD    SOD22355   5.490   3.893  14.219  0.0726  0.5553 -0.6711
  228SOD    SOD22356   1.200   1.209  11.783 -0.1798  0.2503  0.5204
  229SOD    SOD22357   1.882   2.616  11.655  0.1099  0.4777 -0.1699
  230SOD    SOD22358   6.211   2.640  11.282  0.2321 -0.0816  0.1697
  231SOD    SOD22359   0.508   1.089   1.480  0.2954 -0.5401  0.3209
  232SOD    SOD22360   3.026   2.384  12.529  0.2249  0.4176 -0.0145
  233SOD    SOD22361   5.559   6.538   2.462 -0.5404  0.5441 -0.2717
  234SOD    SOD22362   0.009   5.109   0.442 -0.0143 -0.0348 -0.2137
  235SOD    SOD22363   3.740   2.489   1.073  0.3485  0.4962 -0.1276
  236SOD    SOD22364   2.298   5.713  16.292  0.0887  0.1134  0.0276
  237SOD    SOD22365   2.874   5.282   2.582 -0.4432 -0.5642 -0.0063
  238SOD    SOD22366   3.618   6.251  14.792  0.1318 -0.3452  0.0477
  239SOD    SOD22367   1.588   0.855  14.966  0.1533 -0.1760 -0.4272
  240SOD    SOD22368   3.994   0.055  13.445 -0.0009 -0.1759  0.0866
  241SOD    SOD22369   1.543   4.837  13.792 -0.4695  0.0111 -0.2803
  242SOD    SOD22370   1.780   0.648   0.482 -0.1980 -0.1158 -0.1706
  243SOD    SOD22371   5.941   3.374   0.429  0.3410 -0.5523 -0.2094
  244SOD    SOD22372   0.077   2.692  16.991  0.4324 -0.1525 -0.1195
  245SOD    SOD22373   1.689   5.498   4.601 -0.3322 -0.3920 -0.1005
  246SOD    SOD22374   0.868   1.395  16.708  0.1683  0.2351 -0.1080
  247SOD    SOD22375   3.143   3.797  12.170 -0.1801 -1.0824 -0.7468
  248SOD    SOD22376   5.324   5.336   5.064 -0.3733  0.2456  0.1686
  249SOD    SOD22377   0.382   3.443  15.874  0.7639 -0.3299  0.4488
  250SOD    SOD22378   0.947   1.853   4.378  0.1955 -0.7013  0.6345
  251SOD    SOD22379   6.770   2.338   3.671 -0.5146  0.0956 -0.0597
  252SOD    SOD22380   2.084   6.150   4.952  0.1452 -0.1467  0.4226
  253SOD    SOD22381   5.931   3.994  16.546 -0.3373 -0.0064 -0.5544
  254SOD    SOD22382   0.250   1.614   0.630 -0.3157  0.4715  0.2891
  255SOD    SOD22383   4.635   2.890  16.847 -0.6762  0.0359 -0.0297
  256SOD    SOD22384   0.402   4.433  10.916  0.1528  0.3194 -0.1506
  257SOD    SOD22385   4.650   3.413  10.733  0.0875 -0.0835 -0.2750
  258SOD    SOD22386   1.372   5.851   5.340 -0.5725 -0.0647  0.0476
  259SOD    SOD22387   3.829   5.838  13.276 -0.0915  0.2724  0.7187
  260SOD    SOD22388   5.417   5.940  15.853 -0.5099 -0.9829  0.0216
  261SOD    SOD22389   2.748   3.782   1.726 -0.5731  0.0776  0.3430
  262SOD    SOD22390   2.803   6.416   3.307  0.0793  0.0903 -0.9085
  263SOD    SOD22391   4.335   1.145  15.123 -0.2026  0.0117 -0.0310
  264SOD    SOD22392   5.607   6.560  10.611  0.2869 -0.4328  0.0858
  265SOD    SOD22393   3.606   2.791   0.083 -0.4972  0.1098 -0.3201
  266CLA    CLA22394   4.020   0.068  16.724  0.2820 -0.1857 -0.2658
  267CLA    CLA22395   6.272   4.043  16.843  0.0339  0.1617 -0.3805
  268CLA    CLA22396   5.265   2.422   3.632 -0.1465 -0.2293 -0.2352
  269CLA    CLA22397   6.796   2.435  17.029 -0.2145 -0.0245  0.1684
  270CLA    CLA22398   3.206   1.694  15.259 -0.0363  0.0479  0.0295
  271CLA    CLA22399   2.163   1.830  13.879 -0.0131 -0.5232 -0.3996
  272CLA    CLA22400   6.005   1.769  14.735  0.0241  0.5827  0.3367
  273CLA    CLA22401   3.845   6.790  14.215 -0.2411 -0.0785  0.3559
  274CLA    CLA22402   0.733   3.437  15.042  0.0139  0.2540 -0.5353
  275CLA    CLA22403   1.498   0.361  14.428  0.1170 -0.6232  0.0175
  276CLA    CLA22404   6.141   2.682   0.945 -0.1203  0.0569  0.1085
  277CLA    CLA22405   5.123   0.075  16.376 -0.3040  0.3115  0.0697
  278CLA    CLA22406   1.319   5.657   2.992 -0.2880 -0.1352 -0.3208
  279CLA    CLA22407   1.233   6.294   0.874 -0.3771  0.4386  0.4272
  280CLA    CLA22408   6.008   5.722  13.546 -0.4810  0.3818  0.0885
  281CLA    CLA22409   1.769   2.870   4.579  0.1337 -0.1497  0.0693
  282CLA    CLA22410   0.716   1.477   0.004 -0.1438  0.0455  0.0259
  283CLA    CLA22411   2.569   4.842   0.466 -0.0633 -0.0090  0.2467
  284CLA    CLA22412   2.520   3.768  16.716  0.2591 -0.6229 -0.1115
  285CLA    CLA22413   0.609   5.798   4.989 -0.0572  0.1509 -0.3476
  286CLA    CLA22414   3.529   6.714  13.350 -0.2904 -0.1845  0.2829
  287CLA    CLA22415   5.361   1.713   3.297  0.3322  0.1680 -0.2927
  288CLA    CLA22416   3.681   2.709   4.803 -0.4397 -0.3118 -0.0825
  289CLA    CLA22417   5.272   4.544  15.813  0.1822  0.4194  0.0523
  290CLA    CLA22418   6.754   2.883  16.910  0.2818  0.1478 -0.4202
  291CLA    CLA22419   5.554   5.630  16.262  0.6394  0.2273 -0.2454
  292CLA    CLA22420   4.634   1.488   4.548 -0.0196 -0.4692  0.0325
  293CLA    CLA22421   1.898   5.368   5.558  0.0702  0.3518 -0.4107
  294CLA    CLA22422   5.013   5.065   4.802 -0.0684 -0.2390  0.1111
  295CLA    CLA22423   1.945   6.405  15.448 -0.1664 -0.0915 -0.3625
  296CLA    CLA22424   1.283   0.276  11.172  0.1834  0.4071  0.2445
  297CLA    CLA22425   0.041   4.822   0.883 -0.0345 -0.0299 -0.0347
  298CLA    CLA22426   3.644   0.890  14.685  0.0380  0.1155 -0.0035
  299CLA    CLA22427   4.234   2.570   0.747 -0.0495 -0.0248  0.1976
  300CLA    CLA22428   2.678   5.020  15.799  0.0066 -0.2009 -0.1661
  301CLA    CLA22429   2.070   6.021   0.904  0.3296  0.1297 -0.3298
  302CLA    CLA22430   1.104   6.078   0.041  0.0154  0.2216 -0.0299
  303CLA    CLA22431   6.734   3.160   2.728 -0.1616 -0.3457  0.4619
  304CLA    CLA22432   6.412   0.288  13.962 -0.1065 -0.4625  0.3253
  305CLA    CLA22433   4.150   1.082  16.153 -0.0510  0.1877  0.4301
  306CLA    CLA22434   2.749   5.673  14.391 -0.4935  0.0453 -0.0151
  307CLA    CLA22435   3.437   1.986  12.806 -0.0125 -0.0494 -0.3702
  308CLA    CLA22436   3.150   0.802  12.958 -0.5232  0.3734  0.0086
  309CLA    CLA22437   4.147   2.947   1.861 -0.0885 -0.1292 -0.1346
  310CLA    CLA22438   5.977   4.480  13.708 -0.3554  0.2525 -0.4710
  311CLA    CLA22439   4.397   1.375  13.824  0.1998  0.3593  0.0721
  312CLA    CLA22440   2.289   0.017   4.629  0.6236 -0.0570  0.5498
  313CLA    CLA22441   1.225   1.245   1.589  0.0967 -0.1172 -0.0248
  314CLA    CLA22442   6.340   4.438  16.035 -0.2723 -0.3182 -0.6037
  315CLA    CLA22443   1.119   6.322   2.239  0.2667  0.0039  0.0136
  316CLA    CLA22444   1.158   1.111  12.564  0.7200 -0.0524 -0.0518
  317CLA    CLA22445   3.906   5.177  11.809  0.3101  0.0055  0.1055
  318CLA    CLA22446   5.852   0.044   4.367  0.2048  0.1669 -0.1135
  319TIP3   OH222447   3.459   2.909   2.158 -0.2428 -0.3914  0.0654
  319TIP3    H122448   3.408   2.911   2.239 -1.6530  0.0593 -0.8037
  319TIP3    H222449   3.550   2.896   2.187 -1.0986 -4.6833  1.5526
  320TIP3   OH222450   1.940   3.715   4.375  0.3581 -0.0632  0.1694
  320TIP3    H122451   1.905   3.676   4.455 -0.9167  0.9360  0.1190
  320TIP3    H222452   1.901   3.663   4.304  1.6641 -1.0959  0.1498
  321TIP3   OH222453   5.910   2.501  16.381  0.1594  0.3007 -0.1757
  321TIP3    H122454   5.875   2.483  16.468 -0.6223 -2.0204 -0.8776
  321TIP3    H222455   5.945   2.590  16.386 -1.5693  0.9457  1.9486
  322TIP3   OH222456   1.429   3.783  15.506 -0.2992 -0.0123  0.8227
  322TIP3    H122457   1.480   3.801  15.427  0.6036 -2.0897  0.8796
  322TIP3    H222458   1.351   3.838  15.497  0.9370  1.6523 -0.2842
  323TIP3   OH222459   3.043   0.082   0.197  0.1678  0.0199  0.5831
  323TIP3    H122460   2.997  -0.000   0.208  0.0843 -0.6215 -3.3099
  323TIP3    H222461   2.976   0.145   0.169  0.6999  0.6313  0.6449
  324TIP3   OH222462   4.143   6.503  17.031 -0.3839 -0.4485  0.0990
  324TIP3    H122463   4.119   6.433  17.093  0.9828  0.6059  1.9179
  324TIP3    H222464   4.232   6.482  17.004  0.3424  0.9350  1.2739
  325TIP3   OH222465   5.872   0.322  11.833 -0.1656  0.1055  0.2129
  325TIP3    H122466   5.785   0.359  11.846 -0.6328 -0.7710 -0.3402
  325TIP3    H222467   5.905   0.366  11.754 -0.3273  0.0593  0.1178
  326TIP3   OH222468   2.536   3.626   3.253 -0.2610  0.0078  0.0872
  326TIP3    H122469   2.583   3.549   3.282  3.4034  1.5903 -1.0966
  326TIP3    H222470   2.543   3.688   3.326 -0.4661  0.2904 -0.1274
  327TIP3   OH222471   1.985   2.286  14.764  0.1743 -0.3479 -0.2495
  327TIP3    H122472   1.905   2.304  14.713  0.1867 -1.4277 -0.6819
  327TIP3    H222473   2.045   2.246  14.701  0.7326 -0.3675  0.2841
  328TIP3   OH222474   3.663   1.838  12.193 -0.2196  0.2166 -0.1781
  328TIP3    H122475   3.703   1.780  12.258  1.1988  0.1259 -1.0875
  328TIP3    H222476   3.628   1.911  12.245  0.8186  0.1148  0.7172
  329TIP3   OH222477   1.566   0.253  13.870  0.2634 -0.2002 -0.3570
  329TIP3    H122478   1.632   0.186  13.887  1.6463  0.9148 -1.0544
  329TIP3    H222479   1.570   0.311  13.946  0.4606  0.1644 -0.6460
  330TIP3   OH222480   6.258   6.463   4.076  0.2934 -0.7923 -0.7601
  330TIP3    H122481   6.204   6.414   4.139  1.2023 -1.6882 -0.6469
  330TIP3    H222482   6.347   6.457   4.111  0.6071 -0.1003 -1.4074
  331TIP3   OH222483   2.370   5.522   0.877 -0.0678  0.0325  0.3539
  331TIP3    H122484   2.448   5.536   0.824 -1.3433 -0.3291 -1.7407
  331TIP3    H222485   2.388   5.567   0.960  2.4465 -0.3312  0.0592
  332TIP3   OH222486   1.524   1.530   1.104  0.1740 -0.5106 -0.1792
  332TIP3    H122487   1.451   1.468   1.105  1.5658 -2.2823 -1.2329
  332TIP3    H222488   1.530   1.562   1.194 -1.0110 -1.4004  0.2375
  333TIP3   OH222489   3.327   1.884   3.934  0.6297  0.6026  0.0007
  333TIP3    H122490   3.419   1.908   3.944  0.8115 -0.5813  1.4026
  333TIP3    H222491   3.293   1.880   4.023 -0.5568  0.1513 -0.4469
  334TIP3   OH222492   5.889   3.685  17.065  0.0623 -0.2117 -0.0353
  334TIP3    H122493   5.956   3.687  17.133 -1.4966  1.6232  1.5605
  334TIP3    H222494   5.937   3.703  16.984  1.8064 -1.4399  0.6734
  335TIP3   OH222495   6.457   1.281   6.065 -0.5544  0.0429 -0.0556
  335TIP3    H122496   6.513   1.273   6.142 -0.9782  0.7788  0.3308
  335TIP3    H222497   6.387   1.217   6.080  0.5078 -1.3943 -0.8651
  336TIP3   OH222498   3.246   1.188   5.970 -0.6746  0.0371  0.3778
  336TIP3    H122499   3.215   1.149   6.052 -1.1712 -1.2277 -0.3808
  336TIP3    H222500   3.313   1.128   5.939 -1.0381  0.0766 -0.5232
  337TIP3   OH222501   5.274   4.087  11.227 -0.8861  0.0213  0.0065
  337TIP3    H122502   5.238   4.020  11.168 -2.4809  1.0461 -0.2584
  337TIP3    H222503   5.203   4.105  11.289  0.4032 -0.2791  1.6222
  338TIP3   OH222504   5.210   6.802   4.352  0.1019  0.0286 -0.0500
  338TIP3    H122505   5.230   6.805   4.446 -0.6837 -1.2012  0.1708
  338TIP3    H222506   5.140   6.866   4.341  1.5573  1.6804 -0.1923
  339TIP3   OH222507   4.984   2.001  12.820 -0.2544  0.4594 -0.8528
  339TIP3    H122508   4.986   2.032  12.911 -0.0512  0.2468 -0.7835
  339TIP3    H222509   4.966   2.079  12.768  0.2247  0.6859 -0.6775
  340TIP3   OH222510   0.420   6.141   4.304  0.4206 -0.0405  0.6721
  340TIP3    H122511   0.434   6.189   4.222 -1.9468 -0.3492  0.0154
  340TIP3    H222512   0.355   6.193   4.351  0.1497 -0.9850  1.3597
  341TIP3   OH222513   1.633   5.921  13.609 -0.1144  0.3365 -0.4277
  341TIP3    H122514   1.696   5.989  13.636 -1.9157  1.3255  1.5757
  341TIP3    H222515   1.679   5.839  13.624  0.6139  1.0131  1.4257
  342TIP3   OH222516   3.981   3.523  10.929 -0.0778  0.3376 -0.3922
  342TIP3    H122517   3.982   3.608  10.886  4.1069  1.3176  1.1631
  342TIP3    H222518   4.044   3.470  10.880  0.6209 -0.3485  1.1727
  343TIP3   OH222519   5.216   6.216   3.078 -0.4449 -0.1296 -0.0786
  343TIP3    H122520   5.262   6.132   3.072  0.0980  0.0257  1.4239
  343TIP3    H222521   5.124   6.193   3.088 -0.3330 -0.5421  0.0251
  344TIP3   OH222522   3.426   2.028  14.084  0.2303  0.4647  0.1312
  344TIP3    H122523   3.377   2.020  14.003 -0.9121 -0.1131  0.8454
  344TIP3    H222524   3.482   1.950  14.087  1.0980  1.0339 -0.5971
  345TIP3   OH222525   1.643   2.219   4.089 -0.1528 -0.1263 -0.6507
  345TIP3    H122526   1.573   2.284   4.089  0.0800  0.1312 -0.2072
  345TIP3    H222527   1.716   2.263   4.133 -0.3531 -1.0569  0.6674
  346TIP3   OH222528   3.479   6.484   1.627 -0.5581  0.0003 -0.3410
  346TIP3    H122529   3.506   6.422   1.558  1.5833  1.5013 -0.9496
  346TIP3    H222530   3.449   6.561   1.579  3.3451  2.1049  0.1554
  347TIP3   OH222531   5.678   1.482   3.787 -0.1388 -0.2752  0.3345
  347TIP3    H122532   5.689   1.390   3.814 -1.5233 -0.7498 -0.6042
  347TIP3    H222533   5.764   1.521   3.800  0.2669 -1.4952  1.5474
  348TIP3   OH222534   3.437   5.965  13.565  0.7006  0.2176 -0.0360
  348TIP3    H122535   3.350   5.955  13.526  1.8755 -0.9534 -2.5877
  348TIP3    H222536   3.420   5.975  13.658 -2.1777  0.3607 -0.4697
  349TIP3   OH222537   4.195   0.740  11.947  0.0198  0.1653  0.4728
  349TIP3    H122538   4.103   0.740  11.976 -0.7068 -2.8343 -1.3530
  349TIP3    H222539   4.230   0.657  11.981  1.7156  0.7249  0.1515
  350TIP3   OH222540   4.864   6.238   3.527 -0.1758  0.0201  0.0612
  350TIP3    H122541   4.851   6.144   3.530  0.6745 -0.1724 -1.2018
  350TIP3    H222542   4.924   6.251   3.453 -2.7467  1.8112 -1.8655
  351TIP3   OH222543   5.897   5.437   0.698 -0.2052  0.4953 -0.0921
  351TIP3    H122544   5.836   5.462   0.767 -0.4984  0.1760 -0.2363
  351TIP3    H222545   5.924   5.348   0.720 -1.8147 -0.3717 -1.4396
  352TIP3   OH222546   1.728   0.393  13.328 -0.4370 -0.4961 -1.3730
  352TIP3    H122547   1.698   0.484  13.329  0.9295 -0.0315 -0.6858
  352TIP3    H222548   1.771   0.384  13.244  2.7358  0.6851 -0.0359
  353TIP3   OH222549   5.923   2.092  14.415 -0.2043 -0.3376  0.3234
  353TIP3    H122550   5.967   2.141  14.346 -2.9014  0.5300 -0.9095
  353TIP3    H222551   5.994   2.060  14.471  1.8528  4.5133  0.9769
  354TIP3   OH222552   6.526   4.593  15.435 -0.4299 -0.5409  0.6384
  354TIP3    H122553   6.616   4.625  15.442 -0.5044 -0.3580  0.7559
  354TIP3    H222554   6.528   4.535  15.358 -0.7189  1.2322 -0.7750
  355TIP3   OH222555   3.283   2.377  14.292 -0.1711  0.1635 -0.1295
  355TIP3    H122556   3.190   2.357  14.290 -0.2421  0.5476 -0.9323
  355TIP3    H222557   3.302   2.412  14.205  0.6232  0.5359  0.1855
  356TIP3   OH222558   2.940   3.115  16.361  0.0420 -0.0175  0.4040
  356TIP3    H122559   2.895   3.033  16.342 -0.3261 -0.1836  1.9291
  356TIP3    H222560   3.007   3.120  16.293  0.8766 -2.2080  0.9524
  357TIP3   OH222561   1.107   5.457  14.713 -0.6797 -0.0811 -0.6525
  357TIP3    H122562   1.057   5.495  14.785 -2.8196  0.6637 -2.4340
  357TIP3    H222563   1.198   5.477  14.735 -1.2539  0.1938  1.7720
  358TIP3   OH222564   4.691   4.131   0.710 -0.2201  0.2326  0.0436
  358TIP3    H122565   4.714   4.045   0.745  0.1715  0.2379 -0.1911
  358TIP3    H222566   4.599   4.123   0.684 -0.5925  0.3026  1.2804
  359TIP3   OH222567   6.327   1.298   4.930  0.1802  0.1286 -0.0194
  359TIP3    H122568   6.392   1.365   4.908  1.2261 -0.5317  0.9629
  359TIP3    H222569   6.262   1.344   4.984  1.6682  0.0780  1.9131
  360TIP3   OH222570   1.722   2.005  11.871 -0.0679  0.3837  0.0105
  360TIP3    H122571   1.654   1.995  11.938  0.9047  1.3666  1.2005
  360TIP3    H222572   1.691   2.078  11.817  2.1292  4.2726  3.4658
  361TIP3   OH222573   3.479   5.326   2.507 -0.9985  0.1545  0.1370
  361TIP3    H122574   3.566   5.343   2.471 -0.4336 -2.3065  0.1510
  361TIP3    H222575   3.419   5.350   2.437 -0.2154  0.4073 -0.4605
  362TIP3   OH222576   5.225   0.592   4.960  0.0786  0.0046  0.2612
  362TIP3    H122577   5.213   0.683   4.984  2.0177  0.4605 -0.2606
  362TIP3    H222578   5.320   0.579   4.962 -0.2035 -2.4470  1.8486
  363TIP3   OH222579   3.799   1.063  11.983  0.5023 -0.0767  0.1396
  363TIP3    H122580   3.805   1.158  11.994 -1.5213 -0.0779  1.7649
  363TIP3    H222581   3.780   1.051  11.890 -0.2160  1.1804  0.0991
  364TIP3   OH222582   2.114   2.209  10.594  0.7158 -0.3526 -0.5238
  364TIP3    H122583   2.196   2.235  10.554 -0.3069  0.0743 -2.4535
  364TIP3    H222584   2.046   2.250  10.540 -0.7899 -1.0045  0.7640
  365TIP3   OH222585   5.289   1.267  13.756  0.0314 -0.2605 -0.1053
  365TIP3    H122586   5.366   1.299  13.709 -0.4165  0.1132 -0.5891
  365TIP3    H222587   5.320   1.187  13.800  0.1664 -1.3155 -2.0092
  366TIP3   OH222588   2.019   1.312   4.726 -0.0022  0.4547  0.0986
  366TIP3    H122589   2.008   1.350   4.639 -1.6462 -4.0893 -1.9876
  366TIP3    H222590   2.113   1.297   4.735  0.0787 -0.3133 -1.6232
  367TIP3   OH222591   3.651   0.229   1.755 -0.5006  0.5610 -0.2444
  367TIP3    H122592   3.689   0.309   1.718 -0.2676  0.9864  0.8743
  367TIP3    H222593   3.716   0.161   1.737  0.5255  1.1474  1.0407
  368TIP3   OH222594   6.110   1.557  12.541  0.1881 -0.6360 -0.4981
  368TIP3    H122595   6.026   1.575  12.582 -0.6793  0.7546 -2.6971
  368TIP3    H222596   6.144   1.644  12.518  1.2579 -1.2847 -1.4374
  369TIP3   OH222597   1.461   2.528   3.747 -0.5183 -0.1400  0.0111
  369TIP3    H122598   1.491   2.441   3.773 -0.4658  0.0377  0.5574
  369TIP3    H222599   1.482   2.534   3.654  2.6309  0.5501  0.6197
  370TIP3   OH222600   3.044   2.158  13.695  1.0059 -0.0343  0.1882
  370TIP3    H122601   3.092   2.154  13.612  1.2925  1.3757  0.2537
  370TIP3    H222602   3.036   2.252  13.713 -0.9100 -0.2607  0.6881
  371TIP3   OH222603   1.507   1.470   5.083 -0.3810  0.3532 -0.7727
  371TIP3    H122604   1.480   1.509   5.166 -1.9117  2.2328 -2.0721
  371TIP3    H222605   1.473   1.381   5.085  0.8942 -0.1481  1.1814
  372TIP3   OH222606   1.918   2.817  11.104  0.2627  0.5651 -0.1056
  372TIP3    H122607   1.876   2.739  11.139 -0.2225  1.7322  2.1548
  372TIP3    H222608   1.846   2.872  11.073  0.5045  0.5870 -0.6353
  373TIP3   OH222609   4.837   4.984   2.190  0.2322  0.2375 -0.5689
  373TIP3    H122610   4.902   5.051   2.209  2.5238 -1.3782 -2.1317
  373TIP3    H222611   4.849   4.918   2.258 -0.1585  0.1525 -0.5774
  374TIP3   OH222612   2.334   1.725  17.081 -0.6080  0.4551 -0.4042
  374TIP3    H122613   2.362   1.675  17.158 -1.5531 -1.8063 -1.4192
  374TIP3    H222614   2.349   1.816  17.104  2.1996 -0.2912  1.2087
  375TIP3   OH222615   3.095   3.907  11.978 -0.6047 -0.0324  0.2523
  375TIP3    H122616   3.026   3.874  11.920  0.7142 -2.5927  0.0059
  375TIP3    H222617   3.152   3.958  11.920 -0.7280 -0.3695 -0.1742
  376TIP3   OH222618   4.286   4.463  12.717 -0.0028  0.3523 -0.1305
  376TIP3    H122619   4.198   4.461  12.754  0.5811  0.2569  1.3339
  376TIP3    H222620   4.302   4.556  12.699 -0.3128  0.3981 -0.1803
  377TIP3   OH222621   1.726   2.881   4.261 -0.3839 -0.4591 -0.0061
  377TIP3    H122622   1.631   2.889   4.253 -0.9769 -3.9213  1.6696
  377TIP3    H222623   1.743   2.885   4.356  1.0842 -0.4021 -0.2362
  378TIP3   OH222624   2.554   3.773   5.011 -0.4809  0.3196 -0.2504
  378TIP3    H122625   2.479   3.788   5.069  0.7557  0.3376  1.4143
  378TIP3    H222626   2.630   3.798   5.064  0.8333 -1.3982 -1.2535
  379TIP3   OH222627   6.227   5.171  11.607 -0.2800  0.2453  0.2245
  379TIP3    H122628   6.291   5.114  11.651 -0.2643  0.9618  1.1663
  379TIP3    H222629   6.142   5.137  11.634 -0.2997 -0.2875 -0.4812
  380TIP3   OH222630   3.359   0.818  11.582  0.5927 -0.4344 -0.2262
  380TIP3    H122631   3.323   0.740  11.540 -1.0557 -0.6104  1.3779
  380TIP3    H222632   3.292   0.844  11.645  1.3256  2.0026 -0.3605
  381TIP3   OH222633   5.374   3.345  16.759 -0.3456  0.3575 -0.1065
  381TIP3    H122634   5.410   3.300  16.682 -0.4170 -0.0318  0.0863
  381TIP3    H222635   5.442   3.409  16.783 -0.4350  0.6637 -0.6491
  382TIP3   OH222636   3.028   3.658  16.463  0.0649  0.1908 -0.0131
  382TIP3    H122637   2.936   3.679  16.452 -0.1907 -1.7517 -2.9524
  382TIP3    H222638   3.074   3.739  16.439 -0.8888  0.6197 -0.4616
  383TIP3   OH222639   1.724   3.374  13.164 -0.0050  0.3493  0.7059
  383TIP3    H122640   1.677   3.444  13.209  0.2182  1.1265 -0.2347
  383TIP3    H222641   1.695   3.380  13.073 -0.2353 -1.0086  0.6552
  384TIP3   OH222642   4.796   0.050  13.984 -0.2089  0.1160 -0.4373
  384TIP3    H122643   4.702   0.040  13.969 -0.1350 -1.1222 -0.1729
  384TIP3    H222644   4.816   0.138  13.952 -1.5341  0.5641 -0.0926
  385TIP3   OH222645   6.002   5.011  13.758  0.2872 -0.1194  0.3251
  385TIP3    H122646   6.053   4.932  13.745  1.9857  0.8599  0.7290
  385TIP3    H222647   6.019   5.065  13.681 -1.4022 -0.3841 -0.2819
  386TIP3   OH222648   1.350   6.055  13.968  0.2925 -0.2291 -0.6288
  386TIP3    H122649   1.407   6.131  13.957 -0.7397  0.5256 -0.9856
  386TIP3    H222650   1.346   6.015  13.881 -2.0990  1.5193 -1.4567
  387TIP3   OH222651   3.998   1.808  14.734 -0.3359 -0.1807  0.3612
  387TIP3    H122652   3.948   1.802  14.815  2.2492  1.0384  2.1919
  387TIP3    H222653   4.054   1.730  14.734 -1.7202 -1.2711 -1.4069
  388TIP3   OH222654   5.432   3.413   2.075 -0.8277 -0.4507 -0.1110
  388TIP3    H122655   5.345   3.386   2.048 -1.2237  0.8017 -0.1383
  388TIP3    H222656   5.473   3.447   1.995 -1.0581  0.8377  0.2993
  389TIP3   OH222657   1.200   4.469   2.689 -0.5243 -0.3137  0.1136
  389TIP3    H122658   1.164   4.517   2.763  0.6069  0.0890  0.4184
  389TIP3    H222659   1.267   4.527   2.653  1.8208 -2.1198  1.2771
  390TIP3   OH222660   1.182   5.832  16.427  0.9739  0.5481 -0.2298
  390TIP3    H122661   1.148   5.853  16.514  2.0023 -1.5355  0.7291
  390TIP3    H222662   1.106   5.798  16.379  0.3935  1.7457 -0.2076
  391TIP3   OH222663   6.478   2.396  10.430  0.6394 -0.2790  0.5404
  391TIP3    H122664   6.433   2.311  10.433  0.5334 -0.2070  1.7093
  391TIP3    H222665   6.452   2.435  10.347 -0.7484 -0.6249  0.7960
  392TIP3   OH222666   0.209   1.567  10.222 -0.1300  0.3956  0.8089
  392TIP3    H122667   0.187   1.614  10.141 -1.5027 -4.2572 -1.9148
  392TIP3    H222668   0.125   1.554  10.265  0.0246 -0.5587  0.8405
  393TIP3   OH222669   2.142   3.491  16.281  0.4039  0.2429 -0.1435
  393TIP3    H122670   2.114   3.582  16.283 -0.7730 -0.0861 -0.9240
  393TIP3    H222671   2.238   3.495  16.282  0.3631  1.4859 -0.3946
  394TIP3   OH222672   0.168   4.216  11.594 -0.1425 -0.1725 -0.0753
  394TIP3    H122673   0.162   4.287  11.658 -0.6786 -0.1069 -0.1879
  394TIP3    H222674   0.261   4.205  11.578 -0.0770  1.5941 -1.2313
  395TIP3   OH222675   1.615   0.931  13.159 -0.1301 -0.1525 -0.3980
  395TIP3    H122676   1.643   0.990  13.229 -0.0261 -1.7925  1.0277
  395TIP3    H222677   1.609   0.986  13.081  2.0906  1.2894  0.3665
  396TIP3   OH222678   0.066   5.379  15.545 -0.4106 -0.8042 -0.4785
  396TIP3    H122679   0.144   5.338  15.506  0.3203 -1.1833  1.3112
  396TIP3    H222680   0.096   5.465  15.574 -1.0630 -0.3542 -1.0988
  397TIP3   OH222681   6.427   2.082   2.613 -0.3353 -0.0366  0.2689
  397TIP3    H122682   6.466   2.142   2.676 -1.6766 -1.1689  2.3086
  397TIP3    H222683   6.344   2.124   2.588  0.4466  0.6740 -1.2472
  398TIP3   OH222684   6.319   6.769  15.011 -0.1037 -0.0587 -0.5003
  398TIP3    H122685   6.264   6.760  15.089  0.0055  0.4507 -0.3582
  398TIP3    H222686   6.398   6.719  15.031  0.3822  0.9360  0.1572
  399TIP3   OH222687   5.514   1.912   0.079  0.7093  0.3758 -0.4347
  399TIP3    H122688   5.443   1.890   0.140  0.8473  0.5206 -0.2234
  399TIP3    H222689   5.591   1.925   0.135  0.5250  1.9158 -0.4974
  400TIP3   OH222690   4.025   4.078  12.047  0.4157  0.2010  0.1896
  400TIP3    H122691   3.937   4.043  12.062  0.3364 -0.9234 -2.4542
  400TIP3    H222692   4.041   4.133  12.124 -2.3068 -0.0770  1.0962
  401TIP3   OH222693   2.856   4.640  16.034  0.0572 -0.1883  0.1463
  401TIP3    H122694   2.793   4.674  16.098 -1.2592 -1.6251 -0.3192
  401TIP3    H222695   2.915   4.584  16.085 -0.6419 -0.8742  0.2296
  402TIP3   OH222696   3.084   6.530   0.017  1.0189  0.4275  0.2289
  402TIP3    H122697   3.158   6.484   0.056 -0.4226 -2.4656 -0.1353
  402TIP3    H222698   3.037   6.567   0.092  0.8670 -0.9372  0.8484
  403TIP3   OH222699   3.460   3.532   1.221  0.3440  0.3221 -0.2481
  403TIP3    H122700   3.538   3.541   1.277 -1.2793 -0.7329  2.3680
  403TIP3    H222701   3.485   3.466   1.156  2.0198  0.9063 -0.2423
  404TIP3   OH222702   0.128   2.769   0.035  0.1476  0.2626  0.0541
  404TIP3    H122703   0.061   2.828   0.070 -1.8331 -1.2956 -0.8994
  404TIP3    H222704   0.170   2.732   0.112 -0.2886  1.0569  0.6916
  405TIP3   OH222705   5.235   5.253  13.741  0.0832  0.0090  0.5655
  405TIP3    H122706   5.242   5.245  13.836  0.2767  1.4078  0.6837
  405TIP3    H222707   5.314   5.301  13.715  0.3523 -0.9060 -0.3899
  406TIP3   OH222708   2.709   0.898  12.645 -0.0436  0.5224 -0.3637
  406TIP3    H122709   2.769   0.952  12.698 -0.2994 -0.6580  1.1958
  406TIP3    H222710   2.752   0.813  12.640 -1.3315 -0.1961  0.3508
  407TIP3   OH222711   2.460   3.194   1.416  0.1750 -0.4165  0.2857
  407TIP3    H122712   2.391   3.257   1.395  1.1417  0.4942 -0.2291
  407TIP3    H222713   2.523   3.202   1.345  1.9937  0.5016  1.9036
  408TIP3   OH222714   5.925   1.243  11.578  0.1241 -0.8488  0.5161
  408TIP3    H122715   6.010   1.271  11.545 -0.1945 -1.4572 -0.9237
  408TIP3    H222716   5.944   1.202  11.662  1.2537 -0.9918  0.2063
  409TIP3   OH222717   6.395   5.172  13.668 -0.6865 -0.0766  0.5993
  409TIP3    H122718   6.423   5.241  13.607  0.2492 -1.9156 -1.1964
  409TIP3    H222719   6.321   5.131  13.625 -0.1445 -1.2821  0.7844
  410TIP3   OH222720   5.176   5.989  16.420 -0.5288  0.1434  0.0344
  410TIP3    H122721   5.096   6.022  16.379 -0.0250 -1.1284 -2.1202
  410TIP3    H222722   5.187   5.900  16.385  2.3288  0.6161 -0.5572
  411TIP3   OH222723   3.184   3.396   4.142 -0.4657  0.4349  0.1953
  411TIP3    H122724   3.146   3.314   4.176  0.5008 -0.2548 -0.3645
  411TIP3    H222725   3.268   3.370   4.105 -0.3720  1.6108 -0.4449
  412TIP3   OH222726   1.877   6.211   1.703 -0.5060  0.4321  0.4266
  412TIP3    H122727   1.792   6.170   1.715 -0.6006  0.2730 -0.7414
  412TIP3    H222728   1.859   6.295   1.662 -0.0659  0.0484 -0.5980
  413TIP3   OH222729   0.039   2.195   3.987  0.0609 -0.4404 -0.3015
  413TIP3    H122730   0.123   2.174   3.947  0.7363  1.0549  0.2788
  413TIP3    H222731   0.029   2.131   4.057  0.4945 -0.8922 -0.6435
  414TIP3   OH222732   1.999   2.694  16.256  0.6901 -0.2102  0.3695
  414TIP3    H122733   1.972   2.723  16.342 -0.2165  1.1896 -0.3474
  414TIP3    H222734   2.051   2.767  16.221 -3.5857  1.9523 -2.4136
  415TIP3   OH222735   3.778   1.938   3.158 -0.2594  0.0567  0.3905
  415TIP3    H122736   3.739   1.887   3.086  1.9551 -0.4365 -0.5360
  415TIP3    H222737   3.822   1.873   3.212  0.6913  0.7446  0.4546
  416TIP3   OH222738   6.287   0.683  15.899 -0.8132  0.1030  0.1731
  416TIP3    H122739   6.298   0.707  15.990 -0.1365  0.7011 -0.0617
  416TIP3    H222740   6.369   0.708  15.857 -1.5623  0.9601 -0.8300
  417TIP3   OH222741   6.489   4.697   2.982  0.3649 -0.3383  0.0220
  417TIP3    H122742   6.546   4.752   2.928  0.3479 -0.9648 -0.6495
  417TIP3    H222743   6.540   4.680   3.061 -0.1687  1.7907  0.9004
  418TIP3   OH222744   6.686   5.926  14.442 -0.3906 -0.0087 -0.2288
  418TIP3    H122745   6.650   6.013  14.429 -0.1540  0.2230  0.5967
  418TIP3    H222746   6.612   5.867  14.431 -0.8613  0.4005  0.6048
  419TIP3   OH222747   4.992   4.493  14.641 -0.4106 -0.3144 -0.5711
  419TIP3    H122748   4.911   4.544  14.634  0.7177  1.5824 -0.5013
  419TIP3    H222749   5.027   4.515  14.727  1.1396  0.4184 -1.3624
  420TIP3   OH222750   1.072   0.229  11.850  0.2299 -0.2946 -0.0269
  420TIP3    H122751   0.991   0.178  11.855 -0.7167  1.1507 -0.0007
  420TIP3    H222752   1.055   0.295  11.783  1.6374 -0.3838 -0.4870
  421TIP3   OH222753   4.466   1.143   3.961  0.5374  0.0231  0.0339
  421TIP3    H122754   4.370   1.150   3.958  0.4625 -1.0812 -1.1891
  421TIP3    H222755   4.491   1.192   4.039 -1.0279  0.3154  0.3942
  422TIP3   OH222756   3.819   2.008  16.427  0.4133 -0.8028  0.0906
  422TIP3    H122757   3.814   1.932  16.485  1.6130 -1.8776 -1.1325
  422TIP3    H222758   3.913   2.024  16.417  0.1937  1.3791  0.9457
  423TIP3   OH222759   1.547   4.990  13.959 -0.3406  0.6225  0.1814
  423TIP3    H122760   1.618   5.052  13.940 -0.7321  0.9970 -0.0951
  423TIP3    H222761   1.569   4.954  14.044  1.4801 -1.1058 -0.9274
  424TIP3   OH222762   5.939   0.131  14.771  0.1642 -0.2872 -0.0459
  424TIP3    H122763   5.947   0.038  14.750 -1.4390 -0.3214 -0.6296
  424TIP3    H222764   5.861   0.137  14.825  0.7691  0.6250  0.7650
  425TIP3   OH222765   5.321   2.667   4.523 -0.5172  0.3037 -0.2186
  425TIP3    H122766   5.395   2.722   4.496 -0.2719 -0.1010 -0.3700
  425TIP3    H222767   5.271   2.724   4.582 -0.8513  1.0555 -1.2056
  426TIP3   OH222768   2.371   5.361  12.966  0.0166  0.7925  0.3867
  426TIP3    H122769   2.382   5.305  13.043  0.4847 -1.0789 -0.9691
  426TIP3    H222770   2.449   5.417  12.965  2.0972 -1.8777 -0.7830
  427TIP3   OH222771   3.615   2.141  12.588  0.2979  0.2010  0.4424
  427TIP3    H122772   3.573   2.109  12.667  0.1291  0.8703  0.6319
  427TIP3    H222773   3.608   2.237  12.594  1.0248  0.2908  0.0348
  428TIP3   OH222774   6.101   0.016   5.299 -0.4691  0.1391 -0.0205
  428TIP3    H122775   6.031   0.076   5.272 -0.6505 -0.2655 -0.4612
  428TIP3    H222776   6.135   0.055   5.380  0.1322  1.4210 -0.8517
  429TIP3   OH222777   2.927   0.965   5.253  0.2707  0.6746  0.2111
  429TIP3    H122778   2.892   0.876   5.254 -1.7540  1.3383 -1.7885
  429TIP3    H222779   2.857   1.018   5.292 -0.0728  1.7463 -1.7110
  430TIP3   OH222780   4.022   3.135  11.937  0.5056  0.3132  0.1112
  430TIP3    H122781   3.962   3.062  11.954  1.7653 -1.6820 -3.0660
  430TIP3    H222782   4.097   3.117  11.994  0.5461 -0.5667 -0.2004
  431TIP3   OH222783   4.278   5.726  12.277 -0.2742 -0.0150  0.1446
  431TIP3    H122784   4.318   5.805  12.243 -1.1503  1.1456  1.6681
  431TIP3    H222785   4.351   5.668  12.298  0.3911  0.4946 -0.7329
  432TIP3   OH222786   6.211   1.669  16.704 -0.5825 -0.0747 -0.3666
  432TIP3    H122787   6.246   1.715  16.628  1.7141 -1.0392  0.0353
  432TIP3    H222788   6.226   1.728  16.778 -1.7734  0.3725 -0.4452
  433TIP3   OH222789   3.091   1.234   5.709  0.5652 -0.4282 -0.0280
  433TIP3    H122790   3.110   1.145   5.740 -2.5009 -1.0340  0.4940
  433TIP3    H222791   3.060   1.280   5.787 -0.9888  0.0615 -0.8943
  434TIP3   OH222792   2.150   5.574  14.385  0.3664  0.5206 -0.5298
  434TIP3    H122793   2.119   5.586  14.295  3.1513  0.9053 -1.5640
  434TIP3    H222794   2.242   5.547  14.375  0.4139 -0.6593  2.2082
  435TIP3   OH222795   6.396   2.171  12.196  0.0785  0.0128 -0.4884
  435TIP3    H122796   6.477   2.187  12.147  0.8634  1.8493  1.2612
  435TIP3    H222797   6.406   2.084  12.233  2.0212  0.7877  0.9659
  436TIP3   OH222798   3.765   3.791  10.676 -0.4363 -0.0305 -0.6966
  436TIP3    H122799   3.778   3.708  10.631 -1.8727  0.4576 -2.1099
  436TIP3    H222800   3.704   3.840  10.620  0.5250  2.0682 -0.0319
  437TIP3   OH222801   4.971   0.725  13.102  0.1936  0.0042 -0.0734
  437TIP3    H122802   4.996   0.762  13.187 -0.8466 -0.4193  0.4323
  437TIP3    H222803   4.916   0.792  13.061 -1.0248 -0.6156  0.4984
  438TIP3   OH222804   3.745   3.176  15.179 -0.8632  0.4001 -0.0897
  438TIP3    H122805   3.839   3.188  15.188 -1.2363  1.8574  3.5953
  438TIP3    H222806   3.710   3.265  15.170 -1.9918  0.0774  0.8203
  439TIP3   OH222807   1.852   4.417   2.247  0.2383  0.3027  0.2271
  439TIP3    H122808   1.880   4.325   2.243  1.5107  0.6840 -0.2150
  439TIP3    H222809   1.876   4.453   2.162 -0.0580  1.1058  0.4785
  440TIP3   OH222810   0.271   1.016  12.742  0.0567  0.3321 -0.2634
  440TIP3    H122811   0.225   0.964  12.808 -0.3643  1.8610  0.6749
  440TIP3    H222812   0.334   1.069  12.791  1.3112 -0.1041 -1.3195
  441TIP3   OH222813   5.065   1.156   2.891 -0.0391 -0.1292 -0.2263
  441TIP3    H122814   5.002   1.205   2.839 -0.5376  1.2093  1.5553
  441TIP3    H222815   5.041   1.175   2.982  0.3598 -2.9079  0.5632
  442TIP3   OH222816   6.050   0.186  11.577 -0.2342  0.4347  0.0206
  442TIP3    H122817   6.129   0.131  11.573 -0.5913 -0.1664  0.7713
  442TIP3    H222818   5.981   0.125  11.605 -0.3357  1.5593  2.4535
  443TIP3   OH222819   1.441   6.596  15.668  0.0386  0.1484  0.1615
  443TIP3    H122820   1.421   6.553  15.586 -0.1741 -0.2378  0.4132
  443TIP3    H222821   1.441   6.690  15.647 -2.0693  0.1895  0.1314
  444TIP3   OH222822   5.332   1.843  11.790 -0.0844 -0.1374  0.1759
  444TIP3    H122823   5.241   1.822  11.770  0.2850 -1.7261  0.0417
  444TIP3    H222824   5.370   1.867  11.705 -0.0583 -0.7662  0.0071
  445TIP3   OH222825   4.427   2.454   1.845  0.3966 -0.3943 -0.2913
  445TIP3    H122826   4.348   2.506   1.864  1.0742  0.8926 -0.8292
  445TIP3    H222827   4.494   2.520   1.825  1.4605 -1.4835 -0.3998
  446TIP3   OH222828   5.720   3.910  16.586  0.2254  0.3794  0.2308
  446TIP3    H122829   5.685   3.823  16.566  0.4922  0.5402 -1.0028
  446TIP3    H222830   5.659   3.946  16.650 -1.1666  0.1671 -0.9282
  447TIP3   OH222831   1.508   2.349  11.403  0.1347  0.3025  0.5129
  447TIP3    H122832   1.496   2.277  11.342 -0.1700  0.4818  0.3609
  447TIP3    H222833   1.420   2.380  11.422  0.2862  1.0065  0.1286
  448TIP3   OH222834   3.531   6.460   1.912 -0.1603 -0.0432 -0.5365
  448TIP3    H122835   3.502   6.470   1.822  0.0672  1.6489 -0.4457
  448TIP3    H222836   3.491   6.378   1.941 -1.9625  0.4421 -1.5151
  449TIP3   OH222837   2.942   4.941  11.691  0.0066 -0.1456 -0.7021
  449TIP3    H122838   2.944   4.856  11.646 -1.7639 -1.7355  1.9856
  449TIP3    H222839   2.983   4.924  11.776 -1.3181  1.4129  0.2995
  450TIP3   OH222840   5.423   4.309   4.934 -0.4158  0.3168 -0.4388
  450TIP3    H122841   5.423   4.371   4.861  0.7935  0.7522 -0.0914
  450TIP3    H222842   5.390   4.228   4.895 -1.1347  0.9241 -1.1233
  451TIP3   OH222843   4.908   4.625  16.803 -0.1890 -0.2071 -0.2199
  451TIP3    H122844   4.920   4.533  16.780  1.8086  0.5894 -3.0608
  451TIP3    H222845   4.838   4.655  16.745  0.9464  0.5735 -1.2408
  452TIP3   OH222846   0.059   2.479   2.295 -0.4859 -0.6339 -0.0920
  452TIP3    H122847   0.139   2.525   2.270 -0.5471 -0.6751 -0.3660
  452TIP3    H222848   0.060   2.398   2.244 -1.1244 -0.2404 -0.7522
  453TIP3   OH222849   3.773   6.087   4.599  0.1686  0.4055  0.3063
  453TIP3    H122850   3.831   6.100   4.524  1.3009  0.8418  1.2312
  453TIP3    H222851   3.800   6.004   4.637 -1.7946 -0.8883 -0.9441
  454TIP3   OH222852   3.047   6.557   0.834 -0.8563  0.1421 -0.5935
  454TIP3    H122853   3.088   6.513   0.760  1.0742 -0.2952  0.6737
  454TIP3    H222854   3.088   6.643   0.837 -2.4152  0.9494 -1.2171
  455TIP3   OH222855   5.388   4.605   2.787  0.0946 -0.2421 -0.3951
  455TIP3    H122856   5.464   4.663   2.777 -0.7636  1.3539  1.5223
  455TIP3    H222857   5.313   4.664   2.788 -1.1428 -1.7330 -1.5789
  456TIP3   OH222858   5.735   0.415  15.318 -0.3407 -0.2929  0.0519
  456TIP3    H122859   5.823   0.428  15.355 -0.8936  3.0000  0.5013
  456TIP3    H222860   5.678   0.407  15.395 -0.8740  1.6665 -0.0815
  457TIP3   OH222861   6.763   0.229  14.619  0.1190 -0.1650 -0.0663
  457TIP3    H122862   6.845   0.254  14.576 -0.5963 -0.2086 -1.5184
  457TIP3    H222863   6.780   0.142  14.655  0.6896 -0.2290 -0.4763
  458TIP3   OH222864   2.139   2.774   1.032  0.4819  0.3461  0.0660
  458TIP3    H122865   2.222   2.822   1.039  1.2086 -0.9841  1.1386
  458TIP3    H222866   2.134   2.748   0.940  0.5426  1.6416 -0.3166
  459TIP3   OH222867   4.343   2.032  13.484 -0.4149  0.6744 -0.0308
  459TIP3    H122868   4.286   2.077  13.421  0.0806 -0.8153 -1.6207
  459TIP3    H222869   4.335   1.940  13.461  1.0683  0.2518  1.0386
  460TIP3   OH222870   0.766   5.225  13.687  0.3196 -0.0797  0.1904
  460TIP3    H122871   0.712   5.297  13.722 -0.2502  0.8155 -2.2967
  460TIP3    H222872   0.705   5.174  13.634  1.2683 -0.8856 -0.1489
  461TIP3   OH222873   0.910   3.625  10.604 -0.0101  0.1178  0.0323
  461TIP3    H122874   0.979   3.560  10.618 -0.5569 -0.0648  2.1156
  461TIP3    H222875   0.831   3.573  10.590 -0.1128  0.3527 -0.2936
  462TIP3   OH222876   1.729   0.106  15.812 -0.0646 -0.4174  0.0305
  462TIP3    H122877   1.776   0.027  15.836 -1.8935 -1.0835  1.7156
  462TIP3    H222878   1.636   0.081  15.815 -0.8182  2.1741  2.4395
  463TIP3   OH222879   2.897   2.136   0.796  0.0306 -0.6095  0.6135
  463TIP3    H122880   2.950   2.170   0.868 -0.0643 -0.1956  0.4862
  463TIP3    H222881   2.958   2.126   0.723 -0.1788  0.4486  0.2785
  464TIP3   OH222882   2.859   4.045   3.476 -0.1508  0.4156  0.0050
  464TIP3    H122883   2.797   4.103   3.521  0.0354  0.9220 -0.3662
  464TIP3    H222884   2.839   4.058   3.383 -0.0382 -0.0439 -0.0823
  465TIP3   OH222885   0.957   0.846  13.637  0.2757  0.5113  0.6884
  465TIP3    H122886   1.010   0.808  13.706 -0.1443 -0.9127  0.2684
  465TIP3    H222887   0.968   0.787  13.563  1.7910  2.7120 -0.9592
  466TIP3   OH222888   1.358   5.601  14.549 -0.0457 -0.4449  0.6702
  466TIP3    H122889   1.276   5.632  14.510 -0.6140 -1.4038  1.0862
  466TIP3    H222890   1.401   5.681  14.579 -0.8427  0.0695  0.4819
  467TIP3   OH222891   6.183   1.430   4.630 -0.1980 -0.2352  0.4978
  467TIP3    H122892   6.091   1.421   4.657 -0.2276  2.1625  1.4185
  467TIP3    H222893   6.233   1.403   4.707 -0.1030 -1.1711  0.1243
  468TIP3   OH222894   1.224   5.073  11.832  0.3067  0.7348 -1.1315
  468TIP3    H122895   1.270   5.012  11.889 -1.0115 -0.1048 -0.9193
  468TIP3    H222896   1.282   5.149  11.826  1.2212  0.1542 -0.0411
  469TIP3   OH222897   4.578   5.842   2.326 -0.2833  0.1034  0.1401
  469TIP3    H122898   4.669   5.824   2.345  0.1536  1.5934 -0.3828
  469TIP3    H222899   4.529   5.790   2.390  0.9840  1.4098  2.2891
  470TIP3   OH222900   2.650   3.739  10.690 -0.7757  0.0553 -0.0898
  470TIP3    H122901   2.673   3.714  10.600  1.1684  0.5765  0.2221
  470TIP3    H222902   2.638   3.656  10.736  2.6953 -0.4069  0.2182
  471TIP3   OH222903   6.359   3.044  12.268  0.1714 -0.3244  0.0094
  471TIP3    H122904   6.312   2.970  12.229 -0.6285  0.1754 -0.0113
  471TIP3    H222905   6.350   3.115  12.204  0.2192  0.0294  0.3889
  472TIP3   OH222906   5.209   6.201   0.758  0.5466  0.0652 -0.2975
  472TIP3    H122907   5.177   6.111   0.767  0.1136  0.2277 -0.2024
  472TIP3    H222908   5.269   6.197   0.684 -0.6340 -0.0055 -1.2938
  473TIP3   OH222909   1.212   1.821  11.968  0.0921 -0.0859  0.5347
  473TIP3    H122910   1.120   1.815  11.995 -0.2196  1.4397 -0.1299
  473TIP3    H222911   1.210   1.813  11.873  0.8791 -2.0868  0.6328
  474TIP3   OH222912   2.202   4.116   1.429  0.0111  0.4334  0.4365
  474TIP3    H122913   2.297   4.109   1.442  0.0201  0.6078  0.4798
  474TIP3    H222914   2.164   4.069   1.503  0.0393 -2.9748 -1.5222
  475TIP3   OH222915   0.490   6.198  13.403  0.3812  0.2686 -0.5238
  475TIP3    H122916   0.509   6.284  13.367  1.2177  0.5872  0.6242
  475TIP3    H222917   0.553   6.187  13.474 -2.3497  0.4569  2.0873
  476TIP3   OH222918   1.958   6.484  13.173 -0.4409  0.1421 -0.1553
  476TIP3    H122919   1.928   6.574  13.188  1.4553  0.7137  0.5590
  476TIP3    H222920   1.995   6.485  13.085  1.1168  0.5754  0.4579
  477TIP3   OH222921   3.706   5.362   4.079  0.1849 -0.0248  0.3733
  477TIP3    H122922   3.634   5.424   4.068 -0.5532 -0.5225  2.1169
  477TIP3    H222923   3.779   5.415   4.111 -0.2666  0.0511  1.2968
  478TIP3   OH222924   1.737   0.186  15.360 -0.0164 -0.4988  0.3315
  478TIP3    H122925   1.708   0.222  15.276  0.4217  0.5397  0.6193
  478TIP3    H222926   1.737   0.091  15.346 -1.8498 -0.4675 -0.2279
  479TIP3   OH222927   5.236   5.109   3.503 -0.5717  0.6071 -0.2118
  479TIP3    H122928   5.203   5.199   3.506  0.3618  0.9727 -0.7003
  479TIP3    H222929   5.209   5.072   3.587 -0.6897  1.4388  0.1308
  480TIP3   OH222930   3.698   6.609  12.197  0.2389 -0.6274  0.5390
  480TIP3    H122931   3.660   6.643  12.278 -0.7424 -0.3224 -0.0429
  480TIP3    H222932   3.766   6.673  12.175 -0.1011 -0.2270  0.6377
  481TIP3   OH222933   1.921   5.076  12.881 -0.2122  0.5363  0.2292
  481TIP3    H122934   1.973   5.128  12.942  1.7209 -0.8593 -0.1270
  481TIP3    H222935   1.950   4.986  12.895 -0.8357 -0.0138 -1.6473
  482TIP3   OH222936   1.239   1.730  14.421  0.1573 -0.0787 -0.0346
  482TIP3    H122937   1.262   1.807  14.472  0.3067  1.3657 -2.1398
  482TIP3    H222938   1.305   1.725  14.352 -1.4304 -0.3755 -1.6425
  483TIP3   OH222939   5.770   6.392  10.646  0.3376  0.0913 -0.1916
  483TIP3    H122940   5.802   6.390  10.736 -0.3385  0.6990  0.0731
  483TIP3    H222941   5.819   6.323  10.601  1.6578  0.6847  0.2986
  484TIP3   OH222942   5.598   4.344   1.321 -0.1319  0.0184 -0.6007
  484TIP3    H122943   5.674   4.286   1.313 -0.1776  0.0270 -1.1116
  484TIP3    H222944   5.592   4.388   1.237  0.2664  1.2334 -0.0170
  485TIP3   OH222945   4.184   6.303  14.138 -0.1975 -0.3845 -0.1815
  485TIP3    H122946   4.216   6.389  14.110 -1.3566 -0.2978 -1.3487
  485TIP3    H222947   4.091   6.317  14.157 -0.0840 -1.0933  0.9737
  486TIP3   OH222948   1.585   0.325   4.502 -0.0689 -0.1334  0.5359
  486TIP3    H122949   1.626   0.368   4.428 -1.7877  0.9547  0.1665
  486TIP3    H222950   1.499   0.366   4.510 -0.7833 -1.7394  1.7778
  487TIP3   OH222951   4.466   4.370   0.469 -0.9049 -0.3102 -0.1013
  487TIP3    H122952   4.393   4.361   0.530  0.9244 -0.5573  2.1986
  487TIP3    H222953   4.484   4.464   0.467 -1.0807 -0.2835 -0.3986
  488TIP3   OH222954   1.544   6.278  17.069  0.7109 -0.2005  0.2607
  488TIP3    H122955   1.615   6.300  17.130 -1.1354  1.2501  2.0405
  488TIP3    H222956   1.576   6.202  17.022  3.9614  1.0994  0.0742
  489TIP3   OH222957   1.321   6.142  11.397  0.2124 -0.0603 -0.2439
  489TIP3    H122958   1.338   6.127  11.304 -2.9610  0.1527 -0.9499
  489TIP3    H222959   1.359   6.065  11.440 -0.4204 -1.4438 -2.0107
  490TIP3   OH222960   6.647   4.484  14.948 -0.4967 -0.0055  0.2206
  490TIP3    H122961   6.641   4.567  14.995 -1.9620  0.8578 -1.4060
  490TIP3    H222962   6.699   4.503  14.871  0.4143 -0.9989  0.5511
  491TIP3   OH222963   4.257   0.788   2.922  0.5667 -0.5573  0.2085
  491TIP3    H122964   4.244   0.878   2.894  1.8435 -0.2247  0.6166
  491TIP3    H222965   4.183   0.740   2.884 -0.3384  0.7126  0.3085
  492TIP3   OH222966   4.838   1.391  14.223  0.1509 -0.0722 -0.2783
  492TIP3    H122967   4.846   1.485  14.236  1.7102 -0.1900 -0.2067
  492TIP3    H222968   4.904   1.370  14.156 -0.3192 -1.0837 -0.4455
  493TIP3   OH222969   0.070   4.535  11.631  0.0454  0.5038  0.4651
  493TIP3    H122970   0.153   4.510  11.589  1.0113  1.3259  1.8322
  493TIP3    H222971   0.003   4.502  11.571  1.3310 -0.9058 -0.2758
  494TIP3   OH222972   4.830   0.291   0.240 -0.1725 -0.0012 -0.3029
  494TIP3    H122973   4.744   0.259   0.212  0.0041  1.1893 -2.4958
  494TIP3    H222974   4.810   0.358   0.306 -0.8195 -0.8021  0.3353
  495TIP3   OH222975   4.784   2.468   1.764 -0.0214 -0.2617  0.3439
  495TIP3    H122976   4.718   2.499   1.827 -0.8492 -0.4792 -0.4001
  495TIP3    H222977   4.815   2.548   1.721 -0.3144 -0.2202  0.2054
  496TIP3   OH222978   4.607   4.420   3.870 -1.4275  0.2842 -0.2962
  496TIP3    H122979   4.601   4.384   3.782  0.7699  0.9742 -0.7686
  496TIP3    H222980   4.690   4.388   3.904 -0.8382  2.4173  0.3991
  497TIP3   OH222981   2.041   0.826   1.277 -0.3797  0.4755 -0.1402
  497TIP3    H122982   1.958   0.781   1.290 -0.0988 -0.2344 -0.7700
  497TIP3    H222983   2.018   0.919   1.277 -1.1131  0.2980  0.0644
  498TIP3   OH222984   3.252   6.422  16.107 -0.3086 -0.3507 -0.0203
  498TIP3    H122985   3.268   6.508  16.068 -1.2947  0.3149  0.9951
  498TIP3    H222986   3.179   6.387  16.056 -1.3185  0.3408  0.9051
  499TIP3   OH222987   3.078   3.597  17.032  0.1546 -0.1291 -0.0141
  499TIP3    H122988   3.057   3.690  17.037  0.0160 -0.1657  0.1017
  499TIP3    H222989   3.112   3.576  17.119  3.4571  0.5867 -1.0018
  500TIP3   OH222990   1.263   1.690   2.248  0.7932  0.2559  0.1971
  500TIP3    H122991   1.199   1.628   2.282  0.9555  0.4915  0.9467
  500TIP3    H222992   1.217   1.774   2.247  1.2748  0.5523  1.3566
  501TIP3   OH222993   1.659   1.972   1.288 -0.0408 -0.9397 -0.0795
  501TIP3    H122994   1.727   1.907   1.302  0.7092 -0.0845  0.3801
  501TIP3    H222995   1.584   1.941   1.339  0.2801 -1.4833  0.0621
  502TIP3   OH222996   0.460   3.422   2.387  0.1213 -0.1073 -0.0914
  502TIP3    H122997   0.408   3.502   2.397  0.8968  0.4368 -0.2895
  502TIP3    H222998   0.400   3.351   2.408 -0.2882  0.5850  1.1582
  503TIP3   OH222999   0.621   3.635  14.611 -0.1528  0.2551  0.4437
  503TIP3    H123000   0.539   3.589  14.596  0.6707 -0.8771 -0.7567
  503TIP3    H223001   0.634   3.687  14.532 -1.2039  2.9005  1.8654
  504TIP3   OH223002   4.413   4.522   0.745 -0.6708 -0.3540 -0.0173
  504TIP3    H123003   4.385   4.590   0.806  1.3297  1.3416 -0.8472
  504TIP3    H223004   4.475   4.469   0.795 -0.9188 -0.5016  0.1346
  505TIP3   OH223005   0.711   2.434   3.173 -0.7869  0.0769 -0.2617
  505TIP3    H123006   0.772   2.497   3.210 -0.8925 -0.6220  1.1619
  505TIP3    H223007   0.638   2.487   3.141 -0.0353  0.8096 -0.7919
  506TIP3   OH223008   5.190   3.543   2.645  0.3059  0.3293  0.3291
  506TIP3    H123009   5.181   3.603   2.571 -0.9923  0.5457  0.6512
  506TIP3    H223010   5.128   3.473   2.627  2.0241 -1.1468 -0.2092
  507TIP3   OH223011   6.079   6.205   2.061  0.3592  0.0043 -0.0534
  507TIP3    H123012   6.001   6.186   2.010 -1.4488  0.7242  2.2875
  507TIP3    H223013   6.096   6.298   2.046 -0.6293  0.4036  1.1793
  508TIP3   OH223014   5.076   2.105   5.421  0.6741  0.3112  0.2456
  508TIP3    H123015   5.112   2.136   5.504  0.2935 -0.4278  0.7037
  508TIP3    H223016   5.099   2.012   5.418 -1.2947 -0.2529  0.6620
  509TIP3   OH223017   1.810   5.865   1.463  0.0178  0.5420  0.1031
  509TIP3    H123018   1.858   5.915   1.398 -1.8312  1.1603 -0.8652
  509TIP3    H223019   1.774   5.931   1.522 -1.1104  0.2549 -0.2410
  510TIP3   OH223020   6.130   3.275  14.549  0.1084  0.1375  0.0101
  510TIP3    H123021   6.112   3.366  14.572  1.3574  0.0724  1.4604
  510TIP3    H223022   6.206   3.252  14.603 -0.5072 -1.9234  0.0902
  511TIP3   OH223023   6.478   2.507  10.847 -0.4207  0.1591  0.3031
  511TIP3    H123024   6.418   2.527  10.776 -1.7934 -2.4353  0.5988
  511TIP3    H223025   6.509   2.592  10.877  0.4688  1.3764 -3.5070
  512TIP3   OH223026   1.326   5.150   4.460  0.3385 -0.0345  0.0250
  512TIP3    H123027   1.297   5.117   4.376  0.2693  2.7477 -1.1652
  512TIP3    H223028   1.262   5.116   4.523 -0.9121 -0.3583 -1.3765
  513TIP3   OH223029   3.705   3.889  13.427  0.7611  0.4403  0.2587
  513TIP3    H123030   3.689   3.794  13.426 -3.8693  0.9588  2.0980
  513TIP3    H223031   3.744   3.905  13.513  1.7160  0.2171 -0.1246
  514TIP3   OH223032   4.179   0.941  15.746 -0.1576  0.2333  0.5952
  514TIP3    H123033   4.175   1.028  15.786  1.5643  0.5761  0.1134
  514TIP3    H223034   4.243   0.893  15.799 -1.1198 -0.7771  0.8838
  515TIP3   OH223035   6.599   4.691  17.111 -0.8303 -0.1932  0.1730
  515TIP3    H123036   6.520   4.672  17.060 -1.0350 -1.1244  0.8018
  515TIP3    H223037   6.622   4.780  17.088 -1.6935 -0.1374 -0.5225
  516TIP3   OH223038   2.504   5.965  10.832 -0.0992  0.4003 -0.2863
  516TIP3    H123039   2.512   5.989  10.924 -0.0149  0.1848 -0.2374
  516TIP3    H223040   2.593   5.969  10.797  0.0245 -0.5055 -0.1067
  517TIP3   OH223041   5.957   5.300  11.669 -0.1277  0.1847  0.0422
  517TIP3    H123042   6.020   5.369  11.685  1.0957 -0.8416 -0.1794
  517TIP3    H223043   5.974   5.272  11.579 -0.8005 -0.2073  0.0279
  518TIP3   OH223044   5.397   6.695   3.258  0.2830  0.2598 -0.0416
  518TIP3    H123045   5.461   6.664   3.322  1.2667  1.2385 -0.5180
  518TIP3    H223046   5.322   6.723   3.312  0.7490  0.2632  0.6213
  519TIP3   OH223047   6.090   2.230  11.314 -0.6511 -0.0959  0.3146
  519TIP3    H123048   6.104   2.137  11.332 -1.4907 -0.3275 -0.1690
  519TIP3    H223049   6.169   2.257  11.267 -0.8594 -0.8422 -0.5000
  520TIP3   OH223050   3.447   5.036   2.555  0.1580 -1.0022 -0.1219
  520TIP3    H123051   3.459   5.114   2.501 -1.7927 -2.6298 -3.2167
  520TIP3    H223052   3.414   5.069   2.638 -2.0105  1.4959 -1.7998
  521TIP3   OH223053   3.967   2.475   2.662  0.0401  0.0780  0.5875
  521TIP3    H123054   3.905   2.542   2.691  0.9415  1.1372  0.0978
  521TIP3    H223055   3.965   2.480   2.567  0.0931 -0.6310  0.5407
  522TIP3   OH223056   1.391   5.437  15.447 -0.0873 -0.5654  0.2934
  522TIP3    H123057   1.384   5.459  15.540  2.8889 -0.5089  0.6110
  522TIP3    H223058   1.323   5.489  15.405  0.0433  1.2904  2.1850
  523TIP3   OH223059   5.115   2.778  15.136 -0.7447  0.5779 -0.5053
  523TIP3    H123060   5.058   2.771  15.059 -0.1274  2.9947 -1.2554
  523TIP3    H223061   5.169   2.855  15.119  0.2292  0.4805  1.8378
  524TIP3   OH223062   4.220   6.106   0.938  0.3070  0.4668  0.4336
  524TIP3    H123063   4.281   6.152   0.881 -0.3600  0.3095 -0.4420
  524TIP3    H223064   4.260   6.109   1.025  1.2703  0.8537 -0.0123
  525TIP3   OH223065   4.479   3.702  13.204  0.1440  0.2810  0.3109
  525TIP3    H123066   4.451   3.708  13.113  0.1921 -0.7182  0.2202
  525TIP3    H223067   4.422   3.763  13.251  0.3749  1.0988 -0.4342
  526TIP3   OH223068   5.657   1.455   0.565 -0.0296 -0.2936 -0.1751
  526TIP3    H123069   5.636   1.538   0.607  1.8516  0.1506 -0.0269
  526TIP3    H223070   5.671   1.477   0.473 -0.8023 -0.6957 -0.4046
  527TIP3   OH223071   1.194   4.065  16.675 -0.8370  0.7555  0.0233
  527TIP3    H123072   1.228   4.151  16.701 -1.4906  0.9380  0.2994
  527TIP3    H223073   1.161   4.078  16.585 -0.8079  0.7586  0.0132
  528TIP3   OH223074   6.158   0.298  16.379  0.0904  0.0878 -0.9090
  528TIP3    H123075   6.246   0.278  16.348  0.2308  1.5733 -1.5140
  528TIP3    H223076   6.141   0.387  16.350 -0.2590  1.1503  2.2402
  529TIP3   OH223077   1.488   2.550  11.993 -0.2646  0.7363 -0.2127
  529TIP3    H123078   1.437   2.524  11.916 -0.0894 -0.1475 -0.0360
  529TIP3    H223079   1.575   2.571  11.959  0.7659 -2.5902  0.0477
  530TIP3   OH223080   5.267   0.813  15.288 -0.4838 -0.4419  0.3065
  530TIP3    H123081   5.197   0.878  15.286 -1.4415 -1.4611 -0.9658
  530TIP3    H223082   5.346   0.863  15.309 -1.0935  1.2366 -1.1748
  531TIP3   OH223083   3.907   2.860   2.999 -0.2583  0.2043  0.0726
  531TIP3    H123084   3.815   2.837   2.982 -0.6519  0.9579  1.0518
  531TIP3    H223085   3.956   2.780   2.980 -1.1101 -0.1952 -0.5133
  532TIP3   OH223086   4.821   0.633  13.683  0.0349  0.0677  0.4370
  532TIP3    H123087   4.813   0.720  13.645  1.4593  0.2661  0.5544
  532TIP3    H223088   4.856   0.579  13.613 -0.2135 -0.2656  0.5669
  533TIP3   OH223089   4.312   1.482   0.141  0.4755 -0.1346 -0.3903
  533TIP3    H123090   4.283   1.425   0.213 -0.3418  0.0579 -0.5562
  533TIP3    H223091   4.377   1.430   0.094  0.7009 -0.4283  0.2282
  534TIP3   OH223092   1.435   4.409  14.077 -0.1765 -0.1541  0.9664
  534TIP3    H123093   1.398   4.349  14.141 -0.8100 -1.2757 -0.3901
  534TIP3    H223094   1.364   4.427  14.016  0.6800  0.0265 -0.0198
  535TIP3   OH223095   1.243   5.124  14.152 -0.0652 -0.0357  0.3407
  535TIP3    H123096   1.272   5.180  14.224  0.1946 -0.9951  1.0054
  535TIP3    H223097   1.215   5.043  14.195  0.9683 -0.9837 -0.7109
  536TIP3   OH223098   6.264   5.406  11.131 -0.3001 -0.0004  0.4262
  536TIP3    H123099   6.341   5.461  11.139 -1.3741  1.4824  0.8687
  536TIP3    H223100   6.250   5.370  11.219 -0.3583  0.0733  0.4469
  537TIP3   OH223101   2.138   1.712   4.146 -0.4476 -0.8426  0.0823
  537TIP3    H123102   2.133   1.616   4.151 -1.9796 -0.9901 -2.5241
  537TIP3    H223103   2.060   1.737   4.097  0.3764  1.6862 -0.0546
  538TIP3   OH223104   2.264   6.136   1.665 -0.0533 -0.3731 -0.3034
  538TIP3    H123105   2.231   6.132   1.575  0.9654  0.2905 -0.7289
  538TIP3    H223106   2.242   6.224   1.694  0.5573 -0.2211 -0.2882
  539TIP3   OH223107   2.960   0.816   1.218 -0.4443  0.2574 -0.4943
  539TIP3    H123108   3.011   0.841   1.295  0.5357  0.5727 -1.2248
  539TIP3    H223109   2.956   0.720   1.222 -1.4756  0.3283  0.6021
  540TIP3   OH223110   5.427   1.534  13.766 -0.0962  0.0225 -0.7033
  540TIP3    H123111   5.356   1.558  13.824 -0.1815  1.3929 -1.3227
  540TIP3    H223112   5.487   1.483  13.820 -0.6499  0.4232  0.3105
  541TIP3   OH223113   6.657   6.170  16.438 -0.0407 -0.0002 -0.1940
  541TIP3    H123114   6.736   6.131  16.402  0.1315  0.6246 -0.5079
  541TIP3    H223115   6.606   6.096  16.470  1.0100 -0.3602  0.7239
  542TIP3   OH223116   2.080   0.601   2.383 -0.2426 -0.1305 -0.1690
  542TIP3    H123117   2.138   0.674   2.405  0.3163 -0.6494  0.1435
  542TIP3    H223118   2.063   0.610   2.290  1.5130 -0.7628 -0.5816
  543TIP3   OH223119   1.783   6.529   0.548 -0.3116 -0.6130  0.0266
  543TIP3    H123120   1.836   6.455   0.577 -0.8990 -1.4670 -0.9671
  543TIP3    H223121   1.771   6.514   0.454 -2.6906 -0.7454  0.2827
  544TIP3   OH223122   4.629   2.056   5.439  0.3790  0.1069 -0.2576
  544TIP3    H123123   4.643   2.129   5.499 -0.9934  0.1230  0.0731
  544TIP3    H223124   4.542   2.072   5.402 -0.5715 -2.0720  0.8528
  545TIP3   OH223125   4.597   6.182  11.996 -0.0466 -0.4046 -0.2176
  545TIP3    H123126   4.605   6.238  12.073  0.5602  0.4737 -0.9055
  545TIP3    H223127   4.667   6.118  12.005 -0.7061 -1.0446  0.5419
  546TIP3   OH223128   4.014   3.505  15.126  0.1962  0.3842 -0.1883
  546TIP3    H123129   3.929   3.549  15.135 -0.2694  0.1524 -2.6521
  546TIP3    H223130   4.032   3.507  15.032  1.5451 -2.1233 -0.0684
  547TIP3   OH223131   0.057   4.436   2.969  0.1282  0.1196  0.0953
  547TIP3    H123132   0.010   4.366   2.923  1.5065 -0.5736 -0.3205
  547TIP3    H223133   0.044   4.416   3.062 -0.5286  0.0468 -0.0031
  548TIP3   OH223134   0.667   0.193  13.304 -0.5050 -0.7968 -0.5440
  548TIP3    H123135   0.621   0.135  13.365  1.3543  0.0019  1.7597
  548TIP3    H223136   0.674   0.276  13.352 -0.1190  0.2845 -2.4085
  549TIP3   OH223137   3.944   6.439   0.460 -0.7666  0.1742  0.3513
  549TIP3    H123138   3.983   6.448   0.373 -1.1601 -0.2759  0.1207
  549TIP3    H223139   3.954   6.526   0.500 -1.0258  0.5314 -0.3338
  550TIP3   OH223140   4.997   3.362   5.664 -0.4112  0.2926  0.1262
  550TIP3    H123141   4.962   3.319   5.742 -0.9488  1.3303  0.4678
  550TIP3    H223142   4.965   3.309   5.591  0.3460 -0.8644  0.6057
  551TIP3   OH223143   1.312   1.219   0.284  0.3353 -0.4543 -0.8155
  551TIP3    H123144   1.361   1.300   0.297  0.5010 -0.4379 -1.4833
  551TIP3    H223145   1.221   1.242   0.301  0.1604  0.2794 -2.4957
  552TIP3   OH223146   0.782   5.571   2.765 -0.2625  0.3501  0.1394
  552TIP3    H123147   0.804   5.478   2.765 -0.2917  0.3393 -0.2960
  552TIP3    H223148   0.717   5.580   2.834  0.2927  0.1858  0.6944
  553TIP3   OH223149   6.794   0.751   6.528 -0.5191  0.7895 -0.5713
  553TIP3    H123150   6.787   0.840   6.494 -1.9102  0.3119 -1.6254
  553TIP3    H223151   6.862   0.710   6.474 -1.1070  0.7074 -1.2544
  554TIP3   OH223152   0.079   4.996  11.470 -0.2939 -0.3347 -0.1505
  554TIP3    H123153   0.159   4.953  11.500  0.2448  0.5389 -0.3004
  554TIP3    H223154   0.033   5.021  11.550 -1.2102 -2.2221 -0.0391
  555TIP3   OH223155   5.216   4.953  15.997 -0.7065  0.3533 -0.3865
  555TIP3    H123156   5.159   4.966  15.921 -2.1407 -0.3619  0.5174
  555TIP3    H223157   5.240   4.860  15.994  0.0036  0.5326 -0.4694
  556TIP3   OH223158   3.647   3.912  16.755 -0.0725 -0.3789 -0.2089
  556TIP3    H123159   3.659   3.932  16.847  2.0533  0.0318 -0.5161
  556TIP3    H223160   3.720   3.956  16.711  0.3920 -2.5525 -1.7984
  557TIP3   OH223161   4.608   3.301  12.947 -0.3184 -0.0649  0.0369
  557TIP3    H123162   4.610   3.210  12.916 -2.1928 -0.2903  0.4824
  557TIP3    H223163   4.516   3.324  12.948  0.1243  1.8475  0.0022
  558TIP3   OH223164   5.724   1.384  12.551  0.2616 -0.0436  0.2815
  558TIP3    H123165   5.684   1.339  12.626  1.6842 -1.0734  0.4508
  558TIP3    H223166   5.783   1.449  12.591 -0.3819  0.7105  0.0316
  559TIP3   OH223167   2.616   2.631   4.028 -0.9011  0.3611  0.1911
  559TIP3    H123168   2.700   2.659   3.991 -1.3590  1.6707  0.0791
  559TIP3    H223169   2.639   2.574   4.101  0.0622 -0.0519 -0.4212
  560TIP3   OH223170   3.340   1.432   0.203 -0.2812  0.1441 -0.2761
  560TIP3    H123171   3.344   1.347   0.247 -2.1150 -0.0972 -0.5324
  560TIP3    H223172   3.395   1.422   0.126  0.0007 -0.6048  0.0155
  561TIP3   OH223173   4.940   3.835   2.828  0.1716 -0.0286 -0.1830
  561TIP3    H123174   4.950   3.929   2.839  0.2068 -0.2265  1.8711
  561TIP3    H223175   4.931   3.822   2.734  1.3185  1.9077 -0.6042
  562TIP3   OH223176   2.100   1.805  12.351 -0.0553 -0.5368  0.9839
  562TIP3    H123177   2.064   1.868  12.414 -0.8408  0.4484 -0.4009
  562TIP3    H223178   2.032   1.798  12.284  1.1173 -0.9050 -0.1912
  563TIP3   OH223179   3.048   2.968  12.801  0.0531 -0.3646  0.4819
  563TIP3    H123180   2.963   3.010  12.798  1.3854  2.6789  1.4497
  563TIP3    H223181   3.059   2.943  12.893  0.6719  0.3866  0.6205
  564TIP3   OH223182   1.723   6.616   1.185 -0.2414  0.1822  0.0540
  564TIP3    H123183   1.666   6.661   1.246  0.5377  0.1616  0.8135
  564TIP3    H223184   1.809   6.613   1.228  0.1412 -0.5161 -0.6996
  565TIP3   OH223185   5.411   2.646   3.441 -0.8649  0.1854  0.2338
  565TIP3    H123186   5.347   2.713   3.464 -1.5503 -1.2141  2.8075
  565TIP3    H223187   5.369   2.563   3.466  0.7423 -1.0539 -0.9442
  566TIP3   OH223188   3.786   3.572  10.537  0.4691  0.2224  0.5419
  566TIP3    H123189   3.823   3.631  10.471  1.1324 -1.7371 -0.9225
  566TIP3    H223190   3.860   3.519  10.567 -0.3979 -1.0830  0.4791
  567TIP3   OH223191   1.991   1.066   3.757  0.1032  0.4109 -0.3115
  567TIP3    H123192   1.929   1.105   3.819  1.7135  2.2438  0.2439
  567TIP3    H223193   2.067   1.043   3.811  0.0738 -1.5162 -1.0285
  568TIP3   OH223194   6.190   6.445  10.971 -0.0435 -0.1785 -0.3001
  568TIP3    H123195   6.098   6.469  10.976  0.0371 -0.1174  1.8324
  568TIP3    H223196   6.191   6.365  10.919 -1.2791 -0.1201 -0.4488
  569TIP3   OH223197   5.523   1.620  15.347  0.2734  0.2588 -0.0310
  569TIP3    H123198   5.441   1.570  15.347  0.5094 -0.1434  0.4690
  569TIP3    H223199   5.497   1.711  15.353 -0.1324  0.1062  0.6226
  570TIP3   OH223200   2.782   2.774  15.019  0.0103  0.1605 -0.1405
  570TIP3    H123201   2.835   2.695  15.024 -1.3595 -1.0889 -2.9498
  570TIP3    H223202   2.800   2.810  14.932 -0.5156  2.1504  0.5079
  571TIP3   OH223203   4.059   6.044  12.123 -0.7108  0.0617  0.1728
  571TIP3    H123204   4.059   6.121  12.066 -1.3143  1.3584  1.8502
  571TIP3    H223205   4.143   6.048  12.170 -2.1636  1.8460  2.9033
  572TIP3   OH223206   2.485   4.049   1.450 -0.0597 -0.0562 -0.2174
  572TIP3    H123207   2.461   4.055   1.542  0.9655 -0.0570  0.0615
  572TIP3    H223208   2.576   4.018   1.450 -0.1477 -0.3786 -1.2343
  573TIP3   OH223209   1.517   0.037  11.181  0.0341  0.1425  0.1070
  573TIP3    H123210   1.592   0.092  11.202  0.7394  0.9128 -3.7315
  573TIP3    H223211   1.444   0.099  11.173 -0.5936 -0.3378  1.6195
  574TIP3   OH223212   0.233   1.889  15.576 -0.6519 -0.4454  0.9677
  574TIP3    H123213   0.295   1.909  15.505  1.5676  0.3952  3.0094
  574TIP3    H223214   0.192   1.807  15.549  1.3225 -1.0152 -0.5307
  575TIP3   OH223215   6.460   2.635  16.128 -0.2017  0.1744  0.1749
  575TIP3    H123216   6.490   2.643  16.218  0.6426  0.3708 -0.1129
  575TIP3    H223217   6.376   2.680  16.126  0.2642  1.0852  0.6342
  576TIP3   OH223218   4.504   3.594  12.612  0.0780 -0.2680  0.5036
  576TIP3    H123219   4.437   3.606  12.545  0.1615  2.6138  0.8066
  576TIP3    H223220   4.585   3.583  12.563  0.0035  0.9052  0.0729
  577TIP3   OH223221   3.249   3.791  17.152  0.7837  0.5987  0.0571
  577TIP3    H123222   3.311   3.718  17.154  0.2700  0.1685  1.9570
  577TIP3    H223223   3.268   3.841  17.231 -1.2607  0.4706  0.6792
  578TIP3   OH223224   0.070   6.807  12.680  0.6683 -0.3506 -0.0329
  578TIP3    H123225   0.046   6.752  12.606 -0.0283 -1.3862  0.9250
  578TIP3    H223226   0.160   6.833  12.662  0.5076 -0.5593 -1.2402
  579TIP3   OH223227   0.500   2.569  14.155  0.3402 -0.2899 -0.0974
  579TIP3    H123228   0.505   2.485  14.200  0.1602 -0.4909 -0.4474
  579TIP3    H223229   0.421   2.611  14.189  0.3202 -0.3477 -0.0742
  580TIP3   OH223230   2.299   1.417  10.224  0.0539  0.1765  0.0711
  580TIP3    H123231   2.210   1.431  10.192  0.0835  1.8166  0.5839
  580TIP3    H223232   2.354   1.470  10.166  0.5790 -0.0711  0.3319
  581TIP3   OH223233   4.011   5.515  11.211  0.0218 -0.0719  0.1479
  581TIP3    H123234   4.048   5.588  11.261 -1.3545  0.7439  0.0183
  581TIP3    H223235   3.963   5.463  11.276 -1.0175  0.4921 -0.1537
  582TIP3   OH223236   3.510   1.337  11.066  0.5992 -0.1325  0.3200
  582TIP3    H123237   3.501   1.242  11.056  1.0610  0.0053 -1.6526
  582TIP3    H223238   3.543   1.348  11.155 -0.8794 -1.7162  1.1256
  583TIP3   OH223239   1.402   0.933  12.447 -0.1972 -0.1769 -0.1992
  583TIP3    H123240   1.319   0.961  12.484 -0.9363  0.7862 -2.4004
  583TIP3    H223241   1.428   1.006  12.390  2.0329 -0.5662  0.2364
  584TIP3   OH223242   0.869   0.138   0.952 -0.3747  0.2661 -0.0865
  584TIP3    H123243   0.879   0.107   1.042 -1.2363  0.6405  0.1466
  584TIP3    H223244   0.921   0.077   0.900  0.7268  0.4719  0.7348
  585TIP3   OH223245   4.221   1.673   5.962  0.2826  0.3237 -0.3190
  585TIP3    H123246   4.223   1.652   6.055  1.3581  0.2697 -0.3405
  585TIP3    H223247   4.159   1.745   5.954  0.0965  0.2485  0.4155
  586TIP3   OH223248   5.329   1.526   3.025  0.4823 -0.3384  0.1361
  586TIP3    H123249   5.322   1.544   3.119  0.1540  0.6677 -0.0726
  586TIP3    H223250   5.379   1.600   2.991 -3.2585  1.8150 -1.2012
  587TIP3   OH223251   4.905   6.723  17.047  0.9496 -0.2514 -0.3699
  587TIP3    H123252   4.990   6.766  17.060 -0.0809  1.3164  1.6924
  587TIP3    H223253   4.841   6.784  17.082 -1.3286 -0.4606 -3.7231
  588TIP3   OH223254   3.084   2.724   5.098  0.4155  0.4604 -0.2218
  588TIP3    H123255   3.019   2.793   5.106 -0.3762 -0.3088  0.1528
  588TIP3    H223256   3.055   2.672   5.023  0.1011 -0.3897  0.4754
  589TIP3   OH223257   4.474   6.177   0.506 -0.0903  0.0939  0.5185
  589TIP3    H123258   4.563   6.167   0.473 -0.8651  0.6304 -1.9630
  589TIP3    H223259   4.435   6.091   0.495  0.0909 -0.1505  1.6386
  590TIP3   OH223260   3.076   2.891   4.657 -0.0770 -0.3242  0.0426
  590TIP3    H123261   3.014   2.960   4.679  0.1552  0.0730 -0.5156
  590TIP3    H223262   3.039   2.851   4.578  0.4050 -0.0451 -0.3272
  591TIP3   OH223263   2.639   3.491   2.874 -0.3840  0.0118  0.2957
  591TIP3    H123264   2.560   3.448   2.906 -0.9314  1.1243  0.5089
  591TIP3    H223265   2.607   3.570   2.830  0.2978 -1.4393 -3.1375
  592TIP3   OH223266   2.494   4.039  16.381  0.1315 -0.5639  0.1142
  592TIP3    H123267   2.424   4.028  16.444 -1.1886  0.4471 -1.1080
  592TIP3    H223268   2.451   4.040  16.296  1.4163  1.4165 -0.6094
  593TIP3   OH223269   6.504   5.399  16.726  0.1058  0.0410 -0.2911
  593TIP3    H123270   6.540   5.457  16.659 -0.6170  0.7565 -0.0902
  593TIP3    H223271   6.450   5.457  16.780 -0.1574 -0.7195  0.2775
  594TIP3   OH223272   4.549   6.725  12.694  0.2527  0.1557  0.4178
  594TIP3    H123273   4.512   6.678  12.769  1.2560 -1.4313 -0.0181
  594TIP3    H223274   4.586   6.804  12.732  0.8923 -0.6950  1.6645
  595TIP3   OH223275   0.533   0.563  13.626  0.3666 -0.3974 -0.9333
  595TIP3    H123276   0.610   0.607  13.661 -0.5078  1.1241 -0.8225
  595TIP3    H223277   0.565   0.515  13.549  1.3255  0.7213 -1.2687
  596TIP3   OH223278   1.037   4.099   0.883  0.1054 -0.3513  0.0117
  596TIP3    H123279   1.070   4.077   0.970 -2.0411  1.7427  1.4825
  596TIP3    H223280   0.941   4.096   0.893 -0.2029 -0.0078 -2.2935
  597TIP3   OH223281   1.939   3.881  11.607  0.0710  0.3665 -0.3970
  597TIP3    H123282   1.897   3.967  11.621 -0.6366  0.0269 -0.3653
  597TIP3    H223283   1.948   3.845  11.695  0.6073  0.5128 -0.3895
  598TIP3   OH223284   1.292   3.669   0.354  0.0113 -0.0120  0.7213
  598TIP3    H123285   1.332   3.716   0.280  0.7830 -3.0097 -0.9208
  598TIP3    H223286   1.201   3.657   0.328 -0.1505  0.4045  1.0781
  599TIP3   OH223287   4.465   5.736   1.373  0.1415 -0.1267  0.0391
  599TIP3    H123288   4.384   5.785   1.362 -0.4806 -0.3746  2.8020
  599TIP3    H223289   4.438   5.644   1.378  0.7924 -0.3650 -0.5901
  600TIP3   OH223290   5.845   1.248  14.608  0.1714  0.2245 -0.3558
  600TIP3    H123291   5.772   1.307  14.584 -1.4938 -1.4406  0.3727
  600TIP3    H223292   5.909   1.260  14.538 -0.9973  1.4359 -1.2698
  601TIP3   OH223293   0.575   3.072  11.107 -0.6022  0.1276 -0.7736
  601TIP3    H123294   0.656   3.100  11.151 -2.2393  1.4667  1.6178
  601TIP3    H223295   0.535   3.153  11.076 -1.2355 -0.4779 -1.5889
  602TIP3   OH223296   3.301   4.759  16.289  0.5812  0.4911  0.0983
  602TIP3    H123297   3.324   4.811  16.211 -1.8073 -0.7233 -1.5559
  602TIP3    H223298   3.250   4.820  16.343 -1.0341  0.3652 -1.1819
  603TIP3   OH223299   2.052   1.212  11.029 -0.3717  0.5446  0.1646
  603TIP3    H123300   2.140   1.219  10.992 -0.2155 -0.5405  0.3061
  603TIP3    H223301   2.066   1.186  11.120 -0.6860  4.4499  1.5322
  604TIP3   OH223302   5.382   6.521  15.298  0.6683  0.4439 -0.0288
  604TIP3    H123303   5.439   6.584  15.253  1.3242  0.1582  0.3932
  604TIP3    H223304   5.293   6.549  15.275  0.9775  0.6956 -0.9656
  605TIP3   OH223305   5.484   6.815  15.469 -0.6583 -0.3624  0.0803
  605TIP3    H123306   5.469   6.797  15.376 -0.5593 -0.9983  0.1814
  605TIP3    H223307   5.481   6.728  15.510 -2.1375  0.0393  0.8869
  606TIP3   OH223308   4.478   0.363   1.019  0.3772  0.6052  0.4161
  606TIP3    H123309   4.572   0.364   1.037  0.9005 -0.1143 -1.9506
  606TIP3    H223310   4.454   0.271   1.018  0.1402  0.6480 -1.0638
  607TIP3   OH223311   6.129   4.562   3.459 -0.6656 -1.0692  0.2856
  607TIP3    H123312   6.091   4.475   3.449 -0.1804 -1.5021  1.9128
  607TIP3    H223313   6.060   4.613   3.503 -0.5406 -0.9494  0.3414
  608TIP3   OH223314   2.482   3.534  14.281  0.1554 -0.4467 -0.4306
  608TIP3    H123315   2.499   3.504  14.370 -1.1855 -2.6013 -0.8020
  608TIP3    H223316   2.566   3.525  14.236  0.8165  0.5520  0.5614
  609TIP3   OH223317   5.608   5.937  12.411  0.0651 -0.3164 -0.3624
  609TIP3    H123318   5.671   5.973  12.473 -0.5928 -1.1152  0.8264
  609TIP3    H223319   5.660   5.916  12.333  1.0985 -0.1687  0.2638
  610TIP3   OH223320   1.007   6.688  11.851  0.4486  0.2387  0.2260
  610TIP3    H123321   0.929   6.730  11.814  0.2904 -0.7681 -0.6308
  610TIP3    H223322   0.999   6.702  11.946 -3.3069 -3.7736  0.8028
  611TIP3   OH223323   1.640   0.941  12.143  0.3285 -0.0534 -0.3153
  611TIP3    H123324   1.577   0.892  12.090 -0.7690  0.5585  0.3566
  611TIP3    H223325   1.585   0.999  12.197  1.2366 -1.6862  2.6026
  612TIP3   OH223326   0.096   3.861  13.782 -0.0044  0.6850  0.7445
  612TIP3    H123327   0.155   3.787  13.796  0.0778  1.0359  2.6206
  612TIP3    H223328   0.016   3.822  13.747  1.0383  0.1117 -1.0896
  613TIP3   OH223329   3.992   2.459  14.529 -0.3191  0.1673  0.1629
  613TIP3    H123330   4.071   2.441  14.581  0.2276 -0.9691 -1.0156
  613TIP3    H223331   3.920   2.448  14.591  0.4134  1.0160  1.2125
  614TIP3   OH223332   4.789   3.763  17.000 -0.5318  0.1928 -0.2918
  614TIP3    H123333   4.785   3.814  17.080  1.6682  1.0868 -0.6776
  614TIP3    H223334   4.864   3.798  16.952 -0.7491 -1.4308 -1.9734
  615TIP3   OH223335   2.157   3.259  15.544  0.4885  0.2106 -0.0491
  615TIP3    H123336   2.247   3.240  15.519  0.6831  1.0321  0.0084
  615TIP3    H223337   2.157   3.252  15.640  0.1810 -1.0732 -0.1285
  616TIP3   OH223338   6.196   1.207   2.489  0.4896  0.1321  0.1415
  616TIP3    H123339   6.244   1.192   2.571 -0.2042  1.0523  0.7429
  616TIP3    H223340   6.107   1.180   2.509  0.1672  1.0025 -0.0962
  617TIP3   OH223341   0.880   0.871  15.337  0.5425 -0.1195 -0.6246
  617TIP3    H123342   0.884   0.901  15.247  1.9096  0.4513 -0.3878
  617TIP3    H223343   0.863   0.777  15.330 -0.0502  0.0364 -1.4481
  618TIP3   OH223344   4.287   0.367   3.932  0.2314 -0.7433  0.3062
  618TIP3    H123345   4.318   0.443   3.883 -0.6405 -0.8787 -0.4871
  618TIP3    H223346   4.367   0.323   3.960  0.7532  0.5867  1.0033
  619TIP3   OH223347   1.564   2.122  16.513  0.1749  0.5127  0.2492
  619TIP3    H123348   1.476   2.155  16.535 -0.3098 -0.7249  0.2491
  619TIP3    H223349   1.579   2.153  16.423 -1.0574 -0.7742 -0.4474
  620TIP3   OH223350   0.565   5.979  12.989  0.2254 -0.2797  0.0179
  620TIP3    H123351   0.504   6.052  13.000 -1.6610 -1.5022 -1.5507
  620TIP3    H223352   0.613   5.975  13.071  2.3598  4.3478 -0.6830
  621TIP3   OH223353   4.438   6.649   5.606 -0.6115 -0.1593  0.0556
  621TIP3    H123354   4.358   6.604   5.633  0.0128 -1.2821  0.0978
  621TIP3    H223355   4.488   6.659   5.686  0.1955 -1.3486 -0.2726
  622TIP3   OH223356   4.526   4.312  17.145 -0.0824 -0.0883 -0.1082
  622TIP3    H123357   4.525   4.219  17.171 -0.7524 -0.5379 -1.6412
  622TIP3    H223358   4.433   4.334  17.134  0.0807  0.7597  0.1809
  623TIP3   OH223359   2.317   5.964   3.461 -0.0387  0.4014  0.0234
  623TIP3    H123360   2.390   5.959   3.399 -0.0151  0.7785  0.0183
  623TIP3    H223361   2.354   5.932   3.543 -0.2262 -0.6536 -0.2882
  624TIP3   OH223362   4.990   6.018   5.970  0.3644  0.1321 -0.4034
  624TIP3    H123363   4.963   6.110   5.971 -0.6245 -0.0620 -2.6971
  624TIP3    H223364   4.909   5.969   5.983  0.6768 -0.4152 -0.4892
  625TIP3   OH223365   2.290   4.324   5.591  0.0369  0.1387  0.4514
  625TIP3    H123366   2.292   4.269   5.669  1.5688  0.6981  0.8329
  625TIP3    H223367   2.277   4.263   5.518 -0.9377 -0.4318  1.0839
  626TIP3   OH223368   5.979   4.030   6.012  0.2837 -0.3137  0.3423
  626TIP3    H123369   5.979   4.119   5.979  0.6301 -0.1580  0.7508
  626TIP3    H223370   5.911   4.029   6.080 -1.3819 -0.9782 -1.2303
  627TIP3   OH223371   5.411   0.664  12.101 -0.0833  0.1155 -0.1686
  627TIP3    H123372   5.485   0.662  12.039 -0.9897  1.1517 -1.3542
  627TIP3    H223373   5.430   0.595  12.164  0.4954 -1.5757 -2.0862
  628TIP3   OH223374   2.020   1.496  12.204 -0.1178 -0.1061  0.0667
  628TIP3    H123375   1.965   1.432  12.249  0.0996 -0.7651 -0.5839
  628TIP3    H223376   2.014   1.575  12.258 -0.9067 -0.4721  0.5315
  629TIP3   OH223377   3.754   2.887  14.472  0.6077 -0.2778 -0.1011
  629TIP3    H123378   3.738   2.973  14.434  1.4910  0.8744  1.9981
  629TIP3    H223379   3.670   2.862  14.509  0.0309 -0.9167 -1.7458
  630TIP3   OH223380   6.004   2.740   5.327  0.5653 -0.3058  0.0099
  630TIP3    H123381   5.949   2.768   5.400 -1.1357  2.2755 -2.1002
  630TIP3    H223382   5.943   2.702   5.264  1.6475 -0.2675 -1.0950
  631TIP3   OH223383   4.353   2.933   1.232  0.2061 -0.1020  0.0404
  631TIP3    H123384   4.354   2.969   1.320  1.8217  0.0370 -0.0107
  631TIP3    H223385   4.266   2.956   1.198  0.1397  1.2398  1.0193
  632TIP3   OH223386   5.344   1.229  14.804  0.2645 -0.3984 -0.1463
  632TIP3    H123387   5.364   1.316  14.769 -1.1301 -0.6520 -1.7187
  632TIP3    H223388   5.340   1.173  14.727 -0.3588 -1.5505  0.6963
  633TIP3   OH223389   1.693   1.339   1.564  0.5088  0.5306  0.0549
  633TIP3    H123390   1.710   1.298   1.648 -0.6253  0.6429  0.3543
  633TIP3    H223391   1.656   1.425   1.586 -0.9078  0.0998 -0.5285
  634TIP3   OH223392   1.916   1.431  12.817 -0.3688  0.4475 -0.0976
  634TIP3    H123393   1.896   1.487  12.742  1.9632  1.0617 -0.3270
  634TIP3    H223394   1.931   1.344  12.780  1.9673  0.9957 -0.5793
  635TIP3   OH223395   6.332   0.303   2.628 -0.5792  0.2687  0.1633
  635TIP3    H123396   6.253   0.315   2.681 -2.4430 -1.2322 -2.0891
  635TIP3    H223397   6.342   0.208   2.622 -0.4481  0.3707 -2.0912
  636TIP3   OH223398   5.259   4.642  16.115 -0.4170 -0.1893  1.2222
  636TIP3    H123399   5.269   4.657  16.021 -0.2575  1.9045  1.5296
  636TIP3    H223400   5.348   4.648  16.150 -0.6964  1.3747  1.7602
  637TIP3   OH223401   5.021   5.108  15.428 -0.2835  0.0606 -0.2752
  637TIP3    H123402   4.998   5.074  15.342 -0.2691  0.6171 -0.4978
  637TIP3    H223403   5.053   5.031  15.476 -1.1394 -0.4302 -0.4659
  638TIP3   OH223404   1.380   5.716  13.201 -0.2674  0.1998  0.5179
  638TIP3    H123405   1.315   5.785  13.189 -0.3145  0.2790  1.1967
  638TIP3    H223406   1.461   5.762  13.225  0.0679  0.1071 -0.3852
  639TIP3   OH223407   5.739   6.168   1.961  0.2604 -0.1366 -0.4809
  639TIP3    H123408   5.759   6.261   1.974  1.2294 -0.3467 -0.4071
  639TIP3    H223409   5.685   6.165   1.883  1.7389  0.3389 -1.5647
  640TIP3   OH223410   3.546   1.184   1.032  0.0638  0.1748 -0.8472
  640TIP3    H123411   3.543   1.178   1.128  0.0210  1.1355 -0.7825
  640TIP3    H223412   3.625   1.136   1.007  0.6063  0.7428 -0.2543
  641TIP3   OH223413   3.578   6.676  14.360  0.7555  0.0336  0.0321
  641TIP3    H123414   3.668   6.707  14.349  2.5209 -2.7711  4.2398
  641TIP3    H223415   3.559   6.690  14.452 -2.3261 -1.5684 -0.2422
  642TIP3   OH223416   0.872   2.265  11.462  0.3370  0.4485  0.1455
  642TIP3    H123417   0.845   2.356  11.450 -0.0351  0.5994  1.8692
  642TIP3    H223418   0.791   2.214  11.455  0.3148  0.4083  0.7155
  643TIP3   OH223419   1.124   1.084   0.527 -0.4093  0.3825 -0.5617
  643TIP3    H123420   1.052   1.148   0.525  0.7615  1.7798  0.1684
  643TIP3    H223421   1.108   1.028   0.451 -2.2241  0.6919 -0.4610
  644TIP3   OH223422   6.365   3.277  12.116  0.4787 -0.0887 -0.9881
  644TIP3    H123423   6.347   3.295  12.024  1.0995 -0.5490 -1.2067
  644TIP3    H223424   6.413   3.354  12.147 -0.2666  0.3383 -0.8814
  645TIP3   OH223425   4.209   6.398   5.573  0.2854  0.5245 -0.6403
  645TIP3    H123426   4.129   6.406   5.521 -0.6063 -0.6614  0.4588
  645TIP3    H223427   4.246   6.314   5.548  0.6057  0.5858 -0.3811
  646TIP3   OH223428   1.753   1.728   3.593  0.0069 -0.3302 -0.0625
  646TIP3    H123429   1.730   1.802   3.536  1.0446  0.8869  1.0190
  646TIP3    H223430   1.788   1.662   3.534 -0.4236  0.2641 -1.0025
  647TIP3   OH223431   3.969   1.702  12.581 -0.2415 -0.1882 -0.1949
  647TIP3    H123432   4.026   1.650  12.524 -1.0082 -0.7359 -0.4831
  647TIP3    H223433   4.029   1.744  12.642  0.4295 -1.2969 -0.0493
  648TIP3   OH223434   0.701   1.594  13.936  0.3979  0.2415  0.0698
  648TIP3    H123435   0.618   1.547  13.946  0.5499 -0.0425 -0.0032
  648TIP3    H223436   0.676   1.681  13.908  0.0949  0.3008  0.5093
  649TIP3   OH223437   3.234   3.112   0.163  0.1424 -0.2154  0.4653
  649TIP3    H123438   3.196   3.025   0.152 -0.3311 -0.2382  1.9528
  649TIP3    H223439   3.160   3.168   0.187  0.7866  0.0714  1.9045
  650TIP3   OH223440   3.804   3.329  13.422  0.0727  0.6039  0.3454
  650TIP3    H123441   3.847   3.327  13.508  1.7309  0.9390 -0.4415
  650TIP3    H223442   3.808   3.238  13.391 -2.7676 -0.0577  1.6225
  651TIP3   OH223443   3.289   5.620   0.838 -0.0061 -0.4371 -0.4982
  651TIP3    H123444   3.220   5.554   0.852 -0.2809  0.2222  1.4992
  651TIP3    H223445   3.324   5.599   0.751 -3.5411 -0.0643 -2.2125
  652TIP3   OH223446   0.647   1.989  13.591  0.1275 -0.1586  0.4476
  652TIP3    H123447   0.699   2.068  13.608  0.3066 -0.2026  0.0881
  652TIP3    H223448   0.567   2.022  13.551  0.4114 -0.2044 -0.1552
  653TIP3   OH223449   4.095   4.697   1.637  0.5798 -0.4836 -0.1296
  653TIP3    H123450   4.115   4.712   1.729  0.4914 -1.0390 -0.0140
  653TIP3    H223451   4.034   4.623   1.638 -1.1527  0.8823 -0.4960
  654TIP3   OH223452   3.788   1.027   2.137 -0.7457  0.4606  0.0015
  654TIP3    H123453   3.709   0.983   2.105  0.2477 -1.5746  0.1778
  654TIP3    H223454   3.845   0.956   2.166  1.2996  1.8411 -0.4058
  655TIP3   OH223455   3.665   1.262  15.848  0.7923 -0.2473  0.2726
  655TIP3    H123456   3.669   1.294  15.938  1.3947 -3.0581  1.3779
  655TIP3    H223457   3.757   1.249  15.823  0.7637  2.4307 -1.6175
  656TIP3   OH223458   6.039   4.368  14.933  0.0500  0.3244 -0.1937
  656TIP3    H123459   6.122   4.359  14.885 -0.0719 -1.0699 -0.1691
  656TIP3    H223460   6.065   4.370  15.025  0.0299 -0.6000 -0.1635
  657TIP3   OH223461   0.593   3.242   4.522  0.1656 -0.3140  0.0056
  657TIP3    H123462   0.518   3.301   4.524  0.2399 -0.2258  1.8711
  657TIP3    H223463   0.627   3.249   4.433 -0.0777  2.1371  0.0374
  658TIP3   OH223464   5.038   5.273  16.127 -0.2074  0.4208 -0.6658
  658TIP3    H123465   5.059   5.315  16.044  0.0307  0.4271 -0.6030
  658TIP3    H223466   5.123   5.250  16.165 -0.2169  2.1305  0.4807
  659TIP3   OH223467   2.781   1.295  12.626 -0.3818  0.1955  0.3811
  659TIP3    H123468   2.817   1.279  12.713 -0.5158  1.1647  0.6261
  659TIP3    H223469   2.856   1.293  12.567 -0.1404  0.6636  0.6744
  660TIP3   OH223470   0.325   4.054  15.571 -0.3744  0.0290  0.5447
  660TIP3    H123471   0.391   4.114  15.536  0.5380 -1.0115  0.4041
  660TIP3    H223472   0.302   3.998  15.497  2.4268 -2.9663  1.6672
  661TIP3   OH223473   0.170   4.047  13.996 -0.2920  0.3118  0.5170
  661TIP3    H123474   0.214   3.964  13.979 -0.6077  0.4201 -0.9368
  661TIP3    H223475   0.097   4.050  13.934 -0.6255  1.4283  0.9218
  662TIP3   OH223476   3.390   5.273   5.662  0.6427  0.3263 -0.2305
  662TIP3    H123477   3.473   5.262   5.707  0.4284  0.0598  0.0981
  662TIP3    H223478   3.371   5.188   5.623 -1.1623 -0.7077  2.5704
  663TIP3   OH223479   4.692   2.511   4.693  0.1495  0.4491  0.3198
  663TIP3    H123480   4.703   2.585   4.632  0.2033  0.2447  0.0803
  663TIP3    H223481   4.751   2.444   4.660  0.1261  0.3107  0.5597
  664TIP3   OH223482   4.127   3.515   1.346 -0.7682  0.0429  0.5278
  664TIP3    H123483   4.219   3.493   1.364 -0.9434  0.1568  1.5660
  664TIP3    H223484   4.130   3.607   1.317 -0.2486 -0.7139 -2.1443
  665TIP3   OH223485   6.148   4.661   4.117  0.1005  0.6055 -0.2412
  665TIP3    H123486   6.176   4.597   4.182 -0.9895  0.3289 -0.0195
  665TIP3    H223487   6.145   4.744   4.164  0.4196  0.6158 -0.2375
  666TIP3   OH223488   5.768   4.542  12.606 -0.4499 -0.2230 -0.2752
  666TIP3    H123489   5.743   4.563  12.516  0.6977  0.5907 -0.4302
  666TIP3    H223490   5.862   4.556  12.609  0.0575 -3.2050  0.2831
  667TIP3   OH223491   0.654   0.900   5.540 -0.4112  0.6296 -0.3855
  667TIP3    H123492   0.651   0.805   5.544  1.3550  0.5214 -1.0387
  667TIP3    H223493   0.743   0.921   5.513 -1.4871  2.3684 -2.9519
  668TIP3   OH223494   2.000   1.287   2.272 -0.0009 -0.1015  0.0230
  668TIP3    H123495   1.986   1.309   2.364  0.1847  0.6262 -0.1207
  668TIP3    H223496   2.043   1.363   2.235  1.9563 -1.2495 -0.1763
  669TIP3   OH223497   6.268   4.590  16.669 -0.2226  0.3049 -0.3906
  669TIP3    H123498   6.186   4.551  16.699 -1.1543  1.2563 -1.6193
  669TIP3    H223499   6.268   4.678  16.708  0.8526 -0.1136  0.6339
  670TIP3   OH223500   6.722   4.319  15.136 -0.1559 -0.8874  0.6337
  670TIP3    H123501   6.766   4.251  15.085  1.9331 -0.4993  1.8115
  670TIP3    H223502   6.707   4.390  15.074  1.3515 -0.8539  0.2602
  671TIP3   OH223503   5.034   2.620  12.725  0.1438 -0.1454  0.3060
  671TIP3    H123504   5.089   2.570  12.665  0.6543  0.2518  0.4398
  671TIP3    H223505   5.089   2.633  12.802 -0.4935 -0.6285  0.8559
  672TIP3   OH223506   4.649   2.723  16.704  0.4864 -0.2564 -0.1452
  672TIP3    H123507   4.723   2.700  16.761  2.2785 -1.3201 -2.7133
  672TIP3    H223508   4.679   2.699  16.616 -2.5948  0.1778 -1.4111
  673TIP3   OH223509   1.047   0.701  12.256 -0.3872 -0.4995 -0.2277
  673TIP3    H123510   0.993   0.633  12.297 -1.7813  1.4748  1.4301
  673TIP3    H223511   1.124   0.706  12.312 -0.9599  0.2251  0.5284
  674TIP3   OH223512   5.070   4.371  10.951  0.6355 -0.5902 -0.0992
  674TIP3    H123513   5.156   4.384  10.909  1.3558  0.2175  1.5412
  674TIP3    H223514   5.079   4.413  11.036 -1.9835  1.0678 -0.5382
  675TIP3   OH223515   6.190   1.809  12.501  0.7747 -0.2917 -0.0778
  675TIP3    H123516   6.262   1.816  12.439 -0.2107  1.9225 -1.0944
  675TIP3    H223517   6.115   1.846  12.455 -1.0758 -2.5251  0.9303
  676TIP3   OH223518   2.093   4.666  12.529  0.1384  0.1038  0.3951
  676TIP3    H123519   2.050   4.640  12.611  2.3049  0.5423  1.7351
  676TIP3    H223520   2.177   4.620  12.531  0.9734  1.5134 -0.7108
  677TIP3   OH223521   6.107   6.547   5.473 -0.4261 -0.2463 -0.1204
  677TIP3    H123522   6.136   6.460   5.448  0.0060 -0.1628  0.0811
  677TIP3    H223523   6.188   6.597   5.488 -0.6599 -0.1403  0.8884
  678TIP3   OH223524   4.088   5.720   4.437  0.0177  0.0277 -0.6514
  678TIP3    H123525   4.000   5.738   4.404 -0.1339  1.0764  0.2551
  678TIP3    H223526   4.077   5.650   4.501 -0.2071  0.3738 -0.3107
  679TIP3   OH223527   3.267   0.992  10.956  0.0228 -0.0448 -0.2552
  679TIP3    H123528   3.244   1.052  10.885  0.4208  0.0773 -0.2804
  679TIP3    H223529   3.324   0.927  10.914  2.3455  1.4253  0.4541
  680TIP3   OH223530   5.419   4.081   5.158  0.2320 -0.0002  0.5221
  680TIP3    H123531   5.502   4.055   5.119 -0.4461 -1.1762 -0.2015
  680TIP3    H223532   5.408   4.173   5.132  1.9060  0.5880  1.7498
  681TIP3   OH223533   1.932   0.099  14.490 -0.1529 -0.2256  0.3634
  681TIP3    H123534   2.015   0.099  14.537 -0.7663  2.6381  1.6774
  681TIP3    H223535   1.915   0.191  14.470 -2.6244 -0.7894 -0.5971
  682TIP3   OH223536   4.059   6.733   5.836 -0.2622  0.0162  0.4086
  682TIP3    H123537   4.121   6.801   5.811  0.0786 -0.4693 -0.0691
  682TIP3    H223538   4.072   6.722   5.930 -0.2970  0.5814  0.4839
  683TIP3   OH223539   1.322   3.975  13.484  0.5480 -0.3092  0.1158
  683TIP3    H123540   1.374   4.052  13.458  0.5194 -0.3677 -0.1173
  683TIP3    H223541   1.270   3.954  13.406 -0.7946  0.5285  0.7575
  684TIP3   OH223542   0.763   1.301  11.454  0.2337 -0.0792 -0.1248
  684TIP3    H123543   0.845   1.347  11.440  0.4109  0.0743  1.2313
  684TIP3    H223544   0.780   1.211  11.425  0.4250  0.2940 -1.1719
  685TIP3   OH223545   0.610   2.218  11.389  0.0909  0.3306 -0.1657
  685TIP3    H123546   0.581   2.266  11.312  1.2047 -0.0209 -0.8303
  685TIP3    H223547   0.534   2.163  11.413 -0.8621  1.6992  0.0615
  686TIP3   OH223548   0.176   3.125   0.106 -0.3776  0.1441 -0.4527
  686TIP3    H123549   0.235   3.197   0.085  0.7482 -0.4510  0.5071
  686TIP3    H223550   0.155   3.085   0.021 -0.4762  1.1756 -0.9249
  687TIP3   OH223551   0.025   4.415  16.679 -0.3409 -0.2233 -0.9294
  687TIP3    H123552   0.091   4.379  16.738 -1.1764  2.3770  1.9386
  687TIP3    H223553   0.065   4.495  16.645 -0.9829 -0.1095 -1.4325
  688TIP3   OH223554   1.913   2.208   0.033  0.1998 -0.1303 -0.2678
  688TIP3    H123555   1.834   2.154   0.035  0.4655 -0.5243 -0.2745
  688TIP3    H223556   1.880   2.297   0.023 -0.3244 -0.1081  1.3134
  689TIP3   OH223557   1.624   2.003   3.187 -0.4294 -0.2760 -0.7692
  689TIP3    H123558   1.582   1.940   3.128 -0.7922 -0.6148 -0.1679
  689TIP3    H223559   1.615   2.088   3.143 -1.5413 -0.3790 -0.7598
  690TIP3   OH223560   0.893   0.931  14.737  0.2134  0.1535  0.1125
  690TIP3    H123561   0.974   0.945  14.787 -0.0137  1.8265  0.0529
  690TIP3    H223562   0.824   0.963  14.794 -0.2565  0.1934 -0.4735
  691TIP3   OH223563   4.866   6.024   2.516 -0.3599  0.2952  0.1036
  691TIP3    H123564   4.779   6.064   2.510 -1.3051 -1.8086 -1.0762
  691TIP3    H223565   4.920   6.076   2.456 -0.9457  1.2436  0.3778
  692TIP3   OH223566   5.252   0.632   2.358 -0.7798 -0.1659 -0.5612
  692TIP3    H123567   5.310   0.692   2.313 -0.7204  0.2935  0.1041
  692TIP3    H223568   5.293   0.619   2.444 -0.7071 -1.2873 -0.7561
  693TIP3   OH223569   3.717   6.264  10.907  0.1731 -0.5070  0.1276
  693TIP3    H123570   3.638   6.274  10.961 -1.3302  0.3218 -2.0720
  693TIP3    H223571   3.725   6.170  10.896 -0.2690 -0.6254  0.6967
  694TIP3   OH223572   0.107   6.689   3.416 -0.1471  0.3266 -0.0200
  694TIP3    H123573   0.110   6.602   3.457 -0.8579  0.0688 -0.4994
  694TIP3    H223574   0.014   6.712   3.415 -0.0575  0.6941 -0.7363
  695TIP3   OH223575   3.698   5.917  10.349  0.1362  0.5532 -0.8464
  695TIP3    H123576   3.606   5.891  10.350  0.4279 -0.5103 -1.2259
  695TIP3    H223577   3.705   5.981  10.421 -0.4054 -1.0643  0.7197
  696TIP3   OH223578   3.776   1.056   0.729  0.0509 -0.3595 -0.2325
  696TIP3    H123579   3.769   1.043   0.824  1.2452 -1.7508 -0.2976
  696TIP3    H223580   3.691   1.027   0.695 -0.2327 -0.2612  0.3647
  697TIP3   OH223581   1.153   6.321  14.376  0.1575  0.4185  0.1345
  697TIP3    H123582   1.202   6.349  14.299 -2.2131  1.2616 -1.1490
  697TIP3    H223583   1.134   6.228  14.360  0.4804  0.3475  0.1629
  698TIP3   OH223584   2.190   3.206  13.994  0.4567 -0.4057 -0.0471
  698TIP3    H123585   2.125   3.235  14.058 -1.7247  1.4644 -2.8480
  698TIP3    H223586   2.212   3.285  13.945  3.6569 -1.3371 -0.3360
  699TIP3   OH223587   0.621   6.557   0.820 -0.4648  0.5566 -1.0006
  699TIP3    H123588   0.584   6.493   0.881  0.7832  0.0212 -0.7824
  699TIP3    H223589   0.545   6.606   0.788 -1.2913 -0.1000 -0.1053
  700TIP3   OH223590   6.762   5.233   1.722 -0.2790 -0.0618 -0.3821
  700TIP3    H123591   6.816   5.285   1.662 -0.4950  0.8369  0.1859
  700TIP3    H223592   6.673   5.244   1.691 -0.4561  0.8672  0.4243
  701TIP3   OH223593   1.035   2.411   0.576 -0.5561  0.3720 -0.1371
  701TIP3    H123594   1.031   2.320   0.547 -1.1175  0.4945 -0.4668
  701TIP3    H223595   0.956   2.451   0.539 -1.2264  0.5767  1.4256
  702TIP3   OH223596   3.107   0.050   1.231 -0.2386  0.4386  0.1594
  702TIP3    H123597   3.021   0.087   1.210 -0.8643 -0.8693  0.3192
  702TIP3    H223598   3.145   0.028   1.147 -0.8311 -0.6260  0.1551
  703TIP3   OH223599   1.515   4.101   1.898 -0.2516  0.1753  0.1907
  703TIP3    H123600   1.499   4.166   1.829  0.8380  1.3668  1.0095
  703TIP3    H223601   1.451   4.123   1.966  0.7903  1.0871  0.9068
  704TIP3   OH223602   1.302   2.614  14.438 -0.4044 -0.1982 -0.0812
  704TIP3    H123603   1.242   2.548  14.472  0.2702 -0.9327 -0.2909
  704TIP3    H223604   1.348   2.647  14.515 -0.5768 -0.1355 -0.0045
  705TIP3   OH223605   2.963   0.189   1.823  0.1852  0.3028  0.3085
  705TIP3    H123606   2.998   0.257   1.881  0.8525 -0.1457  0.4428
  705TIP3    H223607   3.003   0.108   1.854 -2.6533 -0.6358  1.9008
  706TIP3   OH223608   2.343   5.551   3.227 -0.2549  0.0140 -0.2983
  706TIP3    H123609   2.421   5.495   3.225  0.7415  1.3356  0.3026
  706TIP3    H223610   2.327   5.566   3.321 -0.9727  0.1188 -0.4300
  707TIP3   OH223611   3.100   0.104   5.863 -0.0926 -0.7331  0.0602
  707TIP3    H123612   3.079   0.197   5.855 -4.6230 -1.0540  3.7887
  707TIP3    H223613   3.024   0.059   5.825  0.4421 -2.7986  1.2777
  708TIP3   OH223614   5.004   4.809  14.947 -0.5624 -0.0194 -0.2568
  708TIP3    H123615   5.041   4.736  14.897 -1.1504 -0.9851  0.6738
  708TIP3    H223616   5.067   4.823  15.019 -0.3266  0.5652 -0.5701
  709TIP3   OH223617   0.115   0.031  16.501  0.0189 -0.0510 -0.2613
  709TIP3    H123618   0.095  -0.030  16.571 -1.8465  0.2981 -0.4393
  709TIP3    H223619   0.101  -0.018  16.420 -0.3719  0.2753 -0.3963
  710TIP3   OH223620   3.070   3.934  11.337  0.2391  0.3018 -0.4096
  710TIP3    H123621   3.153   3.900  11.302  1.3151  2.9477 -0.6726
  710TIP3    H223622   3.025   3.969  11.260 -0.4262  0.2614 -0.0415
  711TIP3   OH223623   6.815   6.074  10.815  0.0816  0.0170  0.0141
  711TIP3    H123624   6.809   6.022  10.735 -2.9217  1.2861 -0.7267
  711TIP3    H223625   6.826   6.164  10.784  4.4905  0.0999  1.2486
  712TIP3   OH223626   2.207   5.526   0.637 -0.1720 -0.3217  0.2247
  712TIP3    H123627   2.253   5.531   0.721  2.1768  1.8211 -1.0437
  712TIP3    H223628   2.144   5.598   0.640  0.5148  0.2989 -0.1657
  713TIP3   OH223629   6.692   4.436   5.638 -0.5334 -0.3488  0.0405
  713TIP3    H123630   6.733   4.352   5.659 -0.2575 -0.6981 -1.7274
  713TIP3    H223631   6.624   4.447   5.704 -0.2501 -1.7313  0.5883
  714TIP3   OH223632   6.498   2.189  13.124 -0.2626  0.1007  0.0848
  714TIP3    H123633   6.467   2.178  13.214 -2.4586  0.1624 -0.6026
  714TIP3    H223634   6.464   2.113  13.077  1.0695 -0.0645 -0.6644
  715TIP3   OH223635   1.360   0.866  10.233 -0.3124 -0.0943  0.0873
  715TIP3    H123636   1.319   0.804  10.173  1.2062 -0.8921 -0.1763
  715TIP3    H223637   1.305   0.944  10.229 -1.1147 -0.6952 -1.1388
  716TIP3   OH223638   4.679   0.804   4.917  0.2324 -0.1713  0.0555
  716TIP3    H123639   4.745   0.735   4.912  0.0436 -0.2955 -0.7510
  716TIP3    H223640   4.639   0.792   5.003  0.3758 -0.9092  0.0226
  717TIP3   OH223641   2.323   6.684  10.686 -0.1433  0.4991 -0.0663
  717TIP3    H123642   2.354   6.637  10.608 -1.8887  0.4424 -0.7764
  717TIP3    H223643   2.271   6.756  10.650  2.5525  3.1604  0.9756
  718TIP3   OH223644   0.193   6.014  16.836  0.0302  0.1532  0.3959
  718TIP3    H123645   0.167   5.939  16.890 -1.4243  1.1844  1.2157
  718TIP3    H223646   0.143   6.087  16.872  1.1218  1.4449 -0.6271
  719TIP3   OH223647   4.927   3.221  12.122  0.3446  0.6532  0.3040
  719TIP3    H123648   4.919   3.126  12.119  0.9366  0.6088  0.0647
  719TIP3    H223649   4.882   3.246  12.203  1.1374  0.0707  0.9379
  720TIP3   OH223650   3.490   0.318  16.244 -0.2895 -0.7133 -0.4874
  720TIP3    H123651   3.406   0.306  16.199 -1.3041 -0.5342  1.2533
  720TIP3    H223652   3.497   0.413  16.256 -0.5016 -0.8154  0.5232
  721TIP3   OH223653   3.682   5.463   0.899  0.3569 -0.1983 -0.2791
  721TIP3    H123654   3.694   5.529   0.967  2.1263 -0.0283 -0.6819
  721TIP3    H223655   3.670   5.514   0.819 -2.7484 -0.3815 -0.0478
  722TIP3   OH223656   6.142   1.940   5.387 -0.7896 -0.2321  0.7429
  722TIP3    H123657   6.171   1.960   5.476 -0.5703 -0.7489  0.7913
  722TIP3    H223658   6.147   2.024   5.341  0.9354 -0.3152  0.7056
  723TIP3   OH223659   2.561   0.093  13.577  0.1949  0.3771  0.3347
  723TIP3    H123660   2.610   0.174  13.562  1.3016 -0.2652  0.3242
  723TIP3    H223661   2.470   0.116  13.558  0.3423  1.8436  1.1612
  724TIP3   OH223662   0.954   0.226   2.941  0.2835  0.0033 -0.7383
  724TIP3    H123663   0.970   0.319   2.952  0.9318  0.0028 -1.5701
  724TIP3    H223664   0.997   0.184   3.015 -1.4743  0.4652  0.6077
  725TIP3   OH223665   1.946   6.052   1.967  0.2664 -0.3458 -0.0920
  725TIP3    H123666   1.949   6.124   2.030  0.9707  0.5231 -1.1019
  725TIP3    H223667   1.870   6.071   1.912  0.7827 -0.0622 -0.7161
  726TIP3   OH223668   0.769   6.411   2.718  0.0034 -0.2440 -0.8110
  726TIP3    H123669   0.848   6.373   2.680  0.4676  0.7391 -0.8743
  726TIP3    H223670   0.782   6.506   2.710  0.7302  0.1213  2.9601
  727TIP3   OH223671   3.564   1.349   6.581  0.3445 -0.4841 -0.5270
  727TIP3    H123672   3.527   1.323   6.666  0.2292  1.4599  0.0621
  727TIP3    H223673   3.526   1.287   6.519  1.7432 -3.0284  1.0140
  728TIP3   OH223674   1.758   0.810   2.192 -0.1125 -0.0898  0.5325
  728TIP3    H123675   1.705   0.756   2.251 -1.0526  0.1504 -0.0751
  728TIP3    H223676   1.706   0.889   2.178  0.5321  0.2794  0.1377
  729TIP3   OH223677   0.822   4.275  14.863  0.1474  0.0212 -0.0310
  729TIP3    H123678   0.855   4.365  14.869  0.6359  0.0880 -2.7230
  729TIP3    H223679   0.797   4.265  14.772  1.1424 -2.9487 -0.0735
  730TIP3   OH223680   1.521   5.914   0.662  0.1231  0.0625  0.2520
  730TIP3    H123681   1.490   5.848   0.601 -1.3998  2.3435 -1.6052
  730TIP3    H223682   1.617   5.909   0.656  0.0150 -0.5668 -1.4560
  731TIP3   OH223683   2.723   5.159  15.188  0.0504 -0.1106 -0.2602
  731TIP3    H123684   2.724   5.185  15.280  0.9227  0.4744 -0.4228
  731TIP3    H223685   2.703   5.065  15.189  0.7375 -0.2539  0.5643
  732TIP3   OH223686   4.982   2.981  11.301 -0.4020  0.0903 -0.1507
  732TIP3    H123687   5.001   2.897  11.260 -0.3830 -0.5447  1.0991
  732TIP3    H223688   4.915   3.021  11.245 -1.0224 -1.1322 -0.3210
  733TIP3   OH223689   5.930   1.913   5.865 -0.1334 -0.1468 -0.1504
  733TIP3    H123690   5.864   1.868   5.918  0.9650 -2.2093 -0.4273
  733TIP3    H223691   5.998   1.937   5.928 -0.7245  1.2206 -0.0013
  734TIP3   OH223692   5.647   6.151   3.845  0.4763  0.3668 -0.1811
  734TIP3    H123693   5.570   6.207   3.858  0.3423  0.0289  0.5387
  734TIP3    H223694   5.617   6.084   3.784  0.1885  0.2309  0.1043
  735TIP3   OH223695   1.559   2.103  14.240  0.0468  0.6706  0.0237
  735TIP3    H123696   1.465   2.113  14.258 -0.3760 -0.0097 -1.6595
  735TIP3    H223697   1.576   2.009  14.251  0.6232  0.8340  0.6323
  736TIP3   OH223698   6.584   2.558  11.421  0.3091 -0.1180  0.2189
  736TIP3    H123699   6.573   2.476  11.373 -0.4382  0.8150 -1.2659
  736TIP3    H223700   6.675   2.584  11.405  0.1690 -0.0003 -0.3851
  737TIP3   OH223701   3.582   1.697   3.756 -0.0288 -0.4357  0.2800
  737TIP3    H123702   3.559   1.715   3.847  2.0745 -0.4548  0.8701
  737TIP3    H223703   3.678   1.699   3.754  0.0827  2.9124 -2.5915
  738TIP3   OH223704   0.262   5.289  12.604  0.2056  0.2776  0.2758
  738TIP3    H123705   0.213   5.245  12.672 -0.6182 -0.1425 -0.5685
  738TIP3    H223706   0.197   5.314  12.538  1.0612  0.0290 -0.7008
  739TIP3   OH223707   1.404   4.466   4.034 -0.3367  0.0056 -0.1453
  739TIP3    H123708   1.418   4.379   4.071  3.2936  0.6226  0.3156
  739TIP3    H223709   1.413   4.526   4.109  1.8889  0.9694 -1.1062
  740TIP3   OH223710   5.927   0.918   0.389  0.2806  0.4306 -0.2693
  740TIP3    H123711   6.007   0.879   0.354  0.1345 -0.5263  0.4183
  740TIP3    H223712   5.958   0.991   0.443  0.5558  1.3128 -1.5801
  741TIP3   OH223713   5.031   4.997  15.161 -0.1809 -0.5216  0.2506
  741TIP3    H123714   4.973   5.040  15.098  0.1304  0.2370  0.4776
  741TIP3    H223715   5.113   5.047  15.157  0.0447 -0.8352  0.8205
  742TIP3   OH223716   4.225   3.114  10.837 -0.2543 -0.7013 -0.7875
  742TIP3    H123717   4.198   3.086  10.924 -0.6777 -0.2554 -0.7693
  742TIP3    H223718   4.252   3.034  10.793  0.1051 -0.9102 -0.1983
  743TIP3   OH223719   2.699   4.338   5.299 -0.0452  0.0885  0.7990
  743TIP3    H123720   2.638   4.265   5.292  1.7676 -1.4609  0.5605
  743TIP3    H223721   2.673   4.397   5.228 -0.3667 -1.2216 -0.2096
  744TIP3   OH223722   0.359   3.950   2.944 -0.3089 -0.0340  0.5370
  744TIP3    H123723   0.381   4.007   3.018  1.9342  0.4038 -0.3945
  744TIP3    H223724   0.403   3.868   2.963 -1.9051 -0.8494  0.9094
  745TIP3   OH223725   5.081   4.226  12.132  0.7130 -0.1788 -0.2075
  745TIP3    H123726   5.151   4.170  12.164  1.1192  0.4695  0.0390
  745TIP3    H223727   5.109   4.252  12.044 -0.2600 -1.7115 -1.0173
  746TIP3   OH223728   4.945   3.724  13.408  0.3640  0.2585  0.0509
  746TIP3    H123729   4.874   3.751  13.351  0.8129  1.9112  0.2100
  746TIP3    H223730   4.970   3.637  13.378 -0.1013  0.6701 -1.5851
  747TIP3   OH223731   6.325   1.827   2.471  0.3873 -0.1722  0.1862
  747TIP3    H123732   6.361   1.871   2.393 -0.7118 -0.8900 -0.7606
  747TIP3    H223733   6.336   1.891   2.541  1.3896  0.5080 -0.5499
  748TIP3   OH223734   4.155   5.322   1.208  0.2541 -0.4856 -0.0578
  748TIP3    H123735   4.117   5.265   1.275  0.4806 -1.3491 -0.6432
  748TIP3    H223736   4.085   5.384   1.187  0.1413 -0.2824  0.8819
  749TIP3   OH223737   2.905   4.234   1.637 -0.0813 -0.1516  0.1039
  749TIP3    H123738   2.818   4.248   1.675 -0.4064  0.4165 -0.8128
  749TIP3    H223739   2.949   4.319   1.644  0.3631 -0.4060  0.4554
  750TIP3   OH223740   6.748   0.384  11.465  0.0145 -0.1196 -0.0405
  750TIP3    H123741   6.796   0.324  11.407  0.4782  0.1653  0.0398
  750TIP3    H223742   6.817   0.432  11.511 -0.3476  0.5986 -0.2332
  751TIP3   OH223743   2.456   2.155  10.930  0.2286 -0.1792  0.4868
  751TIP3    H123744   2.470   2.064  10.902 -1.7950 -0.4252  0.1559
  751TIP3    H223745   2.545   2.190  10.941  1.0903 -2.5403  1.8682
  752TIP3   OH223746   0.118   4.683   2.021  0.2062 -0.2595  0.3671
  752TIP3    H123747   0.117   4.761   1.965  1.1844 -1.0641 -0.8129
  752TIP3    H223748   0.199   4.691   2.071 -0.8085  0.6076  1.9518
  753TIP3   OH223749   3.020   6.560  13.682  0.1722 -0.1179  0.6282
  753TIP3    H123750   3.031   6.534  13.590  0.6614 -0.3199  0.7409
  753TIP3    H223751   2.953   6.500  13.715 -0.9444  0.7852  0.0718
  754TIP3   OH223752   4.011   3.152  14.358 -0.5061  0.0031  0.6794
  754TIP3    H123753   3.987   3.214  14.427 -0.2914  0.5068  0.3066
  754TIP3    H223754   3.928   3.131  14.316 -0.6879 -0.5790  1.3049
  755TIP3   OH223755   2.355   6.687  14.523  0.0957  0.0987 -0.4908
  755TIP3    H123756   2.346   6.600  14.484 -0.7736 -0.0415 -0.0109
  755TIP3    H223757   2.267   6.726  14.514  0.4503  0.8853 -0.6030
  756TIP3   OH223758   3.783   3.120  16.365 -0.4486 -0.2202 -0.1622
  756TIP3    H123759   3.740   3.191  16.413 -0.2897 -0.3516  0.1740
  756TIP3    H223760   3.875   3.148  16.358 -0.5241 -0.0765 -0.6237
  757TIP3   OH223761   3.695   1.949  16.711  0.1863 -0.4895 -0.3998
  757TIP3    H123762   3.658   2.037  16.699 -0.3945 -0.2338  2.6342
  757TIP3    H223763   3.619   1.892  16.722  0.5745 -1.3411 -1.8902
  758TIP3   OH223764   6.032   5.771  14.328 -0.9728  0.0709 -0.2135
  758TIP3    H123765   5.998   5.842  14.382  0.0682  0.0043  0.5563
  758TIP3    H223766   5.969   5.699  14.340 -0.2003 -0.3315  1.8164
  759TIP3   OH223767   4.719   4.785  11.792  0.1408  0.4638  0.0563
  759TIP3    H123768   4.695   4.830  11.711  2.2729  0.1444 -0.8425
  759TIP3    H223769   4.764   4.851  11.844  0.7537  0.1245 -0.0253
  760TIP3   OH223770   2.396   6.335  12.489 -0.9100 -0.4140  0.0000
  760TIP3    H123771   2.328   6.402  12.492  0.1336  0.7890 -1.4693
  760TIP3    H223772   2.472   6.380  12.452  1.0228 -1.4454  2.4109
  761TIP3   OH223773   3.002   6.169   4.556 -0.4036 -0.2875 -0.2324
  761TIP3    H123774   3.024   6.215   4.474  2.7116  0.2147  0.7688
  761TIP3    H223775   3.071   6.194   4.617 -0.5353 -3.5416  1.4774
  762TIP3   OH223776   0.623   1.157  12.603  0.6517  0.2219 -0.4958
  762TIP3    H123777   0.612   1.133  12.695 -0.5451  0.4847 -0.5589
  762TIP3    H223778   0.552   1.112  12.558 -0.7840  2.6399 -0.8226
  763TIP3   OH223779   0.870   4.282  16.288  0.4677 -0.1662  0.0735
  763TIP3    H123780   0.886   4.327  16.205  1.0910  0.5336  0.5553
  763TIP3    H223781   0.846   4.352  16.349  1.4092 -0.4757  0.8280
  764TIP3   OH223782   1.596   6.010  16.906 -0.0843  0.0348  0.8570
  764TIP3    H123783   1.683   6.038  16.934  0.1681 -3.3583  4.1989
  764TIP3    H223784   1.563   5.957  16.978 -4.0121 -0.7741 -1.2508
  765TIP3   OH223785   5.924   3.785   5.905  0.0002 -0.1174  0.1966
  765TIP3    H123786   5.957   3.873   5.920  0.1445 -0.5240  2.7599
  765TIP3    H223787   5.830   3.797   5.889  0.1429  0.5305 -0.2072
  766TIP3   OH223788   5.270   1.692  15.614  0.3515  0.3978 -0.8014
  766TIP3    H123789   5.206   1.736  15.558 -0.2221 -0.8604 -1.1919
  766TIP3    H223790   5.230   1.692  15.701 -0.3696 -0.6705 -1.1083
  767TIP3   OH223791   2.901   1.761  11.689  0.3125  0.0406  0.3450
  767TIP3    H123792   2.933   1.741  11.777 -0.3409 -0.4703  0.4729
  767TIP3    H223793   2.836   1.693  11.670  1.3061 -0.5777 -1.0217
  768TIP3   OH223794   5.503   3.068  13.755  0.5733  0.4951  0.2423
  768TIP3    H123795   5.541   3.057  13.842  2.2619  1.6983 -0.2977
  768TIP3    H223796   5.512   2.982  13.714  0.0348 -0.0027  1.1301
  769TIP3   OH223797   4.006   1.565  16.395 -0.1496  0.0211 -0.1214
  769TIP3    H123798   3.937   1.631  16.385  1.3681  1.3732 -2.7106
  769TIP3    H223799   3.976   1.490  16.345 -0.8086 -0.3588  0.8225
  770TIP3   OH223800   5.807   6.154  16.276  0.9765 -0.2083  0.0325
  770TIP3    H123801   5.735   6.170  16.215  1.4852 -1.9338 -1.1128
  770TIP3    H223802   5.770   6.168  16.363 -0.1056  1.1486 -0.6224
  771TIP3   OH223803   5.400   3.566   0.665  0.4860  0.4291  0.3900
  771TIP3    H123804   5.342   3.565   0.588  2.3641 -0.7753 -1.1271
  771TIP3    H223805   5.357   3.508   0.728 -0.8703  1.0588  0.0806
  772TIP3   OH223806   5.533   4.190   0.995 -0.0749  0.1725  0.8363
  772TIP3    H123807   5.492   4.272   1.022 -2.3851 -0.7819  0.3895
  772TIP3    H223808   5.465   4.124   1.004  1.5042 -1.6071  0.4664
  773TIP3   OH223809   1.753   3.185  10.908 -0.4060  0.2932  0.2438
  773TIP3    H123810   1.699   3.115  10.871 -2.5773  0.3548  2.9298
  773TIP3    H223811   1.842   3.166  10.878 -1.3766 -1.8404 -1.5590
  774TIP3   OH223812   4.215   2.095  11.023 -0.4502  0.2616  0.1579
  774TIP3    H123813   4.169   2.080  11.106  0.8408  1.0276  1.0503
  774TIP3    H223814   4.158   2.055  10.957 -0.0168 -3.2323  1.6828
  775TIP3   OH223815   0.933   0.555   1.525 -0.3664  0.0209 -0.2909
  775TIP3    H123816   0.955   0.603   1.445 -1.4247  0.0630 -0.5626
  775TIP3    H223817   0.983   0.600   1.594  0.4273  0.0855 -0.8914
  776TIP3   OH223818   3.645   4.215   2.697  0.1714 -0.1085 -0.5094
  776TIP3    H123819   3.692   4.291   2.663 -0.7397  1.0552  0.7339
  776TIP3    H223820   3.638   4.155   2.622  0.2338  1.3618 -1.7373
  777TIP3   OH223821   3.673   1.880  11.762  0.6026 -0.0809  0.4244
  777TIP3    H123822   3.697   1.809  11.822  1.0055  0.2331  0.6456
  777TIP3    H223823   3.653   1.954  11.819 -2.7858 -0.7947  0.3703
  778TIP3   OH223824   6.185   4.070   1.922  0.3388 -0.2534 -0.6576
  778TIP3    H123825   6.100   4.093   1.885  1.2360  3.7326 -0.7403
  778TIP3    H223826   6.176   4.086   2.016  1.7843  4.2622 -1.0256
  779TIP3   OH223827   5.855   6.598   4.949  0.4312  0.3238  0.0134
  779TIP3    H123828   5.818   6.509   4.950  0.3159  0.3738  0.4576
  779TIP3    H223829   5.912   6.599   4.873  2.7413 -1.0960  1.5889
  780TIP3   OH223830   2.776   4.780   1.350  0.2992 -0.1306 -0.2875
  780TIP3    H123831   2.728   4.705   1.385 -0.4435 -0.2090 -1.4163
  780TIP3    H223832   2.714   4.824   1.293  1.2765  0.3308 -1.0271
  781TIP3   OH223833   0.043   0.132   1.971 -0.4001  0.0960 -0.2174
  781TIP3    H123834   0.105   0.071   2.011  1.8878  1.7916 -0.9666
  781TIP3    H223835   0.066   0.217   2.008 -1.7415  0.9129 -1.1794
  782TIP3   OH223836   1.590   2.719   9.811  0.0909  0.2597 -0.2570
  782TIP3    H123837   1.511   2.675   9.841  0.8124 -0.8760  0.0212
  782TIP3    H223838   1.646   2.649   9.778  1.5362  0.8634  0.7867
  783TIP3   OH223839   0.527   1.987  14.254  0.6875  0.0767 -0.6908
  783TIP3    H123840   0.582   2.066  14.257  0.0125  0.5619 -0.7103
  783TIP3    H223841   0.589   1.914  14.252  1.4372  0.6364 -4.0948
  784TIP3   OH223842   3.900   2.150   4.967 -0.6284  0.0583 -0.6377
  784TIP3    H123843   3.959   2.217   4.934 -0.5157  0.6639  0.7265
  784TIP3    H223844   3.958   2.082   5.002 -0.7364  0.1337 -0.3073
  785TIP3   OH223845   6.840   3.758  12.914 -0.2015 -0.4996 -0.1004
  785TIP3    H123846   6.935   3.752  12.900 -0.2011 -1.7697  0.2663
  785TIP3    H223847   6.811   3.666  12.917 -1.0812 -0.2225  2.1245
  786TIP3   OH223848   3.381   1.175   0.311  0.2921 -0.0973  0.1142
  786TIP3    H123849   3.323   1.104   0.340 -0.1629  0.3428  0.2860
  786TIP3    H223850   3.451   1.178   0.377  0.9239 -1.1092 -0.4764
  787TIP3   OH223851   0.654   5.368   5.775  0.3548 -0.3956 -0.1910
  787TIP3    H123852   0.720   5.324   5.720  1.0799  0.1667  0.2027
  787TIP3    H223853   0.703   5.398   5.851  0.3557  2.7532 -1.2698
  788TIP3   OH223854   1.596   3.929  10.933 -0.0747 -0.1027 -0.1237
  788TIP3    H123855   1.588   3.840  10.900  1.4899  0.4435 -2.2204
  788TIP3    H223856   1.523   3.977  10.893  0.9419  0.2159 -1.6933
  789TIP3   OH223857   3.241   0.781   1.353  0.1525  0.1313  0.2727
  789TIP3    H123858   3.312   0.772   1.417  0.6039 -0.7270 -0.3312
  789TIP3    H223859   3.212   0.691   1.336  0.8922  0.2052 -1.6508
  790TIP3   OH223860   4.141   1.459   4.001 -0.3243  0.4415 -0.3371
  790TIP3    H123861   4.185   1.427   4.080  0.9937  1.9805 -0.3941
  790TIP3    H223862   4.086   1.530   4.032  0.8941  1.6644 -0.8758
  791TIP3   OH223863   6.767   4.501  11.849 -0.1483 -0.4196 -0.0967
  791TIP3    H123864   6.843   4.511  11.792  0.1040 -1.9457 -0.0870
  791TIP3    H223865   6.700   4.558  11.811  0.4157 -0.4572 -1.1993
  792TIP3   OH223866   3.529   5.050   4.342  0.3328  0.2170  0.3376
  792TIP3    H123867   3.559   5.110   4.410 -3.1066 -0.3639  2.6134
  792TIP3    H223868   3.442   5.081   4.320 -0.6910 -2.6058  0.0066
  793TIP3   OH223869   4.620   1.120   4.820 -0.0882  0.0218 -0.0708
  793TIP3    H123870   4.660   1.034   4.832 -1.7498 -0.8915 -0.7620
  793TIP3    H223871   4.694   1.181   4.822  1.3169 -1.5479 -1.2038
  794TIP3   OH223872   5.353   2.087   2.734  0.0112  0.2178 -0.4371
  794TIP3    H123873   5.277   2.114   2.785  0.9970  0.2111  1.1278
  794TIP3    H223874   5.425   2.141   2.769  1.1665 -1.3835 -0.2248
  795TIP3   OH223875   2.615   2.535  16.949  0.2898  0.1428  0.5043
  795TIP3    H123876   2.683   2.574  16.894  0.3073  1.0960  1.1825
  795TIP3    H223877   2.661   2.473  17.005  0.4248 -0.0656  0.1627
  796TIP3   OH223878   5.618   1.198   0.077  0.2365 -0.0373  0.6201
  796TIP3    H123879   5.702   1.220   0.037  0.3852 -0.7177  0.5509
  796TIP3    H223880   5.601   1.108   0.051 -0.9241  0.3590 -0.0416
  797TIP3   OH223881   5.109   4.374   4.703 -0.0480 -0.0615  0.1782
  797TIP3    H123882   5.165   4.451   4.714  1.7031 -1.2758  0.1228
  797TIP3    H223883   5.028   4.409   4.665  1.1571  1.5979 -1.0216
  798TIP3   OH223884   2.544   6.297  12.787 -0.1003 -0.4365  0.2210
  798TIP3    H123885   2.608   6.242  12.832  3.0526  1.7858 -1.2100
  798TIP3    H223886   2.538   6.258  12.700  2.1026  1.2500 -0.7793
  799TIP3   OH223887   3.992   6.658  15.638  0.0732  0.5470 -0.0284
  799TIP3    H123888   4.078   6.670  15.599  0.1429 -0.9978 -0.4374
  799TIP3    H223889   3.935   6.720  15.593  0.5780  0.2228 -1.1517
  800TIP3   OH223890   5.570   1.363  13.366  0.0608 -0.2777 -0.0006
  800TIP3    H123891   5.625   1.316  13.427 -0.4204 -0.0732  0.6065
  800TIP3    H223892   5.508   1.411  13.421 -1.7557 -1.7151 -0.6417
  801TIP3   OH223893   0.560   0.511   3.948  0.2801  0.3056 -0.0622
  801TIP3    H123894   0.582   0.511   3.855  1.1051  0.9707  0.1250
  801TIP3    H223895   0.470   0.479   3.950 -0.1664  1.3761 -1.2012
  802TIP3   OH223896   3.453   1.914  16.344 -0.1566  0.3403 -0.5171
  802TIP3    H123897   3.384   1.940  16.405  0.3137  1.5856 -0.4831
  802TIP3    H223898   3.528   1.968  16.368  0.3508  0.1250 -1.5521
  803TIP3   OH223899   4.353   4.849  15.104  0.3636  0.4102 -0.1376
  803TIP3    H123900   4.422   4.790  15.134  0.2836 -0.2574 -1.1881
  803TIP3    H223901   4.355   4.922  15.165  2.9724  1.1203 -0.9579
  804TIP3   OH223902   5.728   2.700   1.477  0.3908 -0.3039  0.0574
  804TIP3    H123903   5.778   2.629   1.518  3.0466  1.7580  0.6626
  804TIP3    H223904   5.747   2.693   1.384  0.4700 -0.4945  0.0888
  805TIP3   OH223905   6.268   6.265   1.484  0.1221 -0.4727  0.5308
  805TIP3    H123906   6.186   6.297   1.520 -0.3438 -1.5857  0.4955
  805TIP3    H223907   6.243   6.210   1.409  0.9904  0.5426 -0.5527
  806TIP3   OH223908   4.588   6.145   1.351 -0.6275  0.4314  0.6128
  806TIP3    H123909   4.514   6.170   1.407  0.3945 -0.1331  2.2836
  806TIP3    H223910   4.549   6.134   1.264 -2.2060  1.7246  1.1011
  807TIP3   OH223911   5.695   0.329   4.766  0.5674 -0.1363  0.4384
  807TIP3    H123912   5.740   0.254   4.727 -1.3838 -0.5760 -1.1469
  807TIP3    H223913   5.666   0.298   4.852 -1.7065 -1.9053 -0.8467
  808TIP3   OH223914   5.740   2.602   0.522  0.1605 -0.1072  0.2540
  808TIP3    H123915   5.705   2.691   0.528  1.3348  0.4468 -0.6953
  808TIP3    H223916   5.723   2.576   0.432 -1.5760 -1.4876  0.9315
  809TIP3   OH223917   2.503   4.516  12.969  0.2832  0.1976  0.0529
  809TIP3    H123918   2.460   4.434  12.943  1.1402 -1.3003  2.9166
  809TIP3    H223919   2.466   4.582  12.910 -1.5876 -1.9598 -1.3885
  810TIP3   OH223920   2.203   2.176  13.456 -0.1930  0.7940  0.1092
  810TIP3    H123921   2.196   2.161  13.550 -0.5668  2.5394  0.3985
  810TIP3    H223922   2.169   2.097  13.416 -1.5526  0.6618  1.4503
  811TIP3   OH223923   3.871   5.344  13.892 -0.6733  0.1970  0.0383
  811TIP3    H123924   3.856   5.258  13.852 -1.8611  0.5395 -0.2783
  811TIP3    H223925   3.967   5.349  13.900 -0.6091 -1.4472  0.7347
  812TIP3   OH223926   2.679   2.623  16.569 -0.2128  0.1369 -0.0532
  812TIP3    H123927   2.617   2.696  16.573 -1.5220 -0.7700 -1.9777
  812TIP3    H223928   2.628   2.546  16.596  0.0478 -0.5943 -1.5044
  813TIP3   OH223929   4.585   2.102   3.271  0.0659  1.2741  0.2221
  813TIP3    H123930   4.570   2.153   3.351 -3.2193  2.0174 -0.7487
  813TIP3    H223931   4.537   2.020   3.285  0.2680  0.9944 -0.6399
  814TIP3   OH223932   5.066   2.068   4.528 -0.2434 -0.0516 -0.4336
  814TIP3    H123933   5.095   2.158   4.515  0.7888 -0.5471 -1.8319
  814TIP3    H223934   5.040   2.064   4.620 -0.5353  1.7219 -0.4122
  815TIP3   OH223935   2.251   5.647  12.668  0.3881  0.5569  0.1220
  815TIP3    H123936   2.295   5.591  12.604 -0.9896 -0.1946 -0.1964
  815TIP3    H223937   2.252   5.596  12.749 -0.7152  0.1232 -0.1256
  816TIP3   OH223938   6.800   1.987  10.906  0.4771  0.3262 -0.2534
  816TIP3    H123939   6.877   1.936  10.880 -0.5065 -1.6520  0.4959
  816TIP3    H223940   6.833   2.049  10.971  1.5710 -0.0200 -0.4600
  817TIP3   OH223941   3.660   2.788   2.966  0.4585  0.3207  0.4479
  817TIP3    H123942   3.627   2.863   3.015 -1.7121 -0.6327  0.5800
  817TIP3    H223943   3.600   2.717   2.989  0.0807 -0.4916 -2.6364
  818TIP3   OH223944   3.423   4.310  10.708  0.0955 -0.0199 -0.1315
  818TIP3    H123945   3.413   4.245  10.639 -1.5251  1.9056 -1.8680
  818TIP3    H223946   3.333   4.337  10.729  0.5830 -0.0868  2.3231
  819TIP3   OH223947   5.533   3.068  14.090  0.6205 -0.4256 -0.1013
  819TIP3    H123948   5.623   3.042  14.107  1.1674  0.6322 -1.2414
  819TIP3    H223949   5.492   3.069  14.177  1.9863  0.1432  0.5689
  820TIP3   OH223950   1.891   6.743  13.077  0.0459 -0.6554  0.0567
  820TIP3    H123951   1.965   6.729  13.018 -0.3714 -0.3685 -0.5417
  820TIP3    H223952   1.875   6.838  13.072  0.8497 -0.3970  1.6495
  821TIP3   OH223953   3.462   4.797  15.953 -0.2642  0.4337 -0.3548
  821TIP3    H123954   3.513   4.724  15.918  0.2788 -0.1503  1.5046
  821TIP3    H223955   3.376   4.759  15.973 -0.3721  0.6003 -0.5046
  822TIP3   OH223956   3.736   4.038   4.387  0.4926  0.6459 -0.0397
  822TIP3    H123957   3.829   4.045   4.365  0.4666  0.6359 -0.1547
  822TIP3    H223958   3.733   3.971   4.455  0.4953  0.1237 -0.5377
  823TIP3   OH223959   3.179   4.423   2.585  0.1827 -0.5862 -0.8039
  823TIP3    H123960   3.085   4.422   2.565  0.5319  0.3336 -2.7878
  823TIP3    H223961   3.221   4.416   2.499  1.9216  0.4390 -0.0794
  824TIP3   OH223962   0.892   2.876   4.248  0.4195  0.1881 -0.2503
  824TIP3    H123963   0.833   2.950   4.245 -1.6673 -1.3892 -0.1971
  824TIP3    H223964   0.927   2.869   4.159  1.4317  1.7913 -0.0052
  825TIP3   OH223965   0.140   0.781  12.246  0.2762  0.4510 -0.1274
  825TIP3    H123966   0.212   0.723  12.221  0.6630  0.6633  0.4716
  825TIP3    H223967   0.062   0.724  12.246  0.4721  0.1763 -0.5778
  826TIP3   OH223968   3.450   4.397   3.918 -0.3952  0.2445  0.5472
  826TIP3    H123969   3.439   4.473   3.861 -2.0867 -0.2222  0.2051
  826TIP3    H223970   3.444   4.433   4.006  0.4339  0.7211  0.4205
  827TIP3   OH223971   0.106   0.303  17.006  0.0877 -0.4625  0.2664
  827TIP3    H123972   0.177   0.355  16.969  0.9193 -1.1213  0.8951
  827TIP3    H223973   0.142   0.214  17.010 -0.9562 -0.9004  0.1324
  828TIP3   OH223974   1.379   3.314  10.562  0.2552 -0.2942 -0.4331
  828TIP3    H123975   1.376   3.266  10.479 -1.7406  1.2355 -1.3703
  828TIP3    H223976   1.325   3.262  10.622  0.9666 -0.9466 -0.3421
  829TIP3   OH223977   4.544   5.299   4.853 -0.6324  0.3731 -0.2146
  829TIP3    H123978   4.574   5.211   4.873 -1.2257  0.6958  2.5489
  829TIP3    H223979   4.613   5.337   4.799 -0.2005 -1.6166 -1.1312
  830TIP3   OH223980   6.387   6.332   2.008  0.0205 -0.2950 -0.4005
  830TIP3    H123981   6.301   6.352   2.044  0.5404 -0.9969  1.3866
  830TIP3    H223982   6.386   6.238   1.993  0.0368 -0.1069 -1.6971
  831TIP3   OH223983   3.870   2.588   2.368 -0.0104 -0.2991  0.8382
  831TIP3    H123984   3.809   2.622   2.302 -0.0452 -1.3450  0.2976
  831TIP3    H223985   3.879   2.659   2.431 -1.2295  0.1510  0.5466
  832TIP3   OH223986   2.250   1.670  13.442  0.1495 -0.0804 -0.1544
  832TIP3    H123987   2.225   1.668  13.535 -0.5096 -0.4491 -0.3319
  832TIP3    H223988   2.338   1.633  13.441 -0.2625 -1.1214  0.2061
  833TIP3   OH223989   5.086   6.638   1.748  0.1303  0.3424  0.1987
  833TIP3    H123990   5.150   6.643   1.819  1.5855 -0.8734 -0.9489
  833TIP3    H223991   5.073   6.544   1.734 -0.6991  0.5665 -0.6577
  834TIP3   OH223992   6.062   1.191   3.470  0.2596 -0.3217 -0.0909
  834TIP3    H123993   6.114   1.221   3.395 -0.7954 -0.6394 -0.9720
  834TIP3    H223994   6.007   1.122   3.434 -1.3150  0.5270  0.6363
  835TIP3   OH223995   2.437   2.774  15.551 -0.6737  0.1487  0.0463
  835TIP3    H123996   2.495   2.755  15.625 -0.8218 -4.8269 -0.7944
  835TIP3    H223997   2.496   2.809  15.483  0.4906 -0.4504  0.7237
  836TIP3   OH223998   5.552   5.317  14.486 -0.6709  0.3393  0.1911
  836TIP3    H123999   5.528   5.236  14.531 -0.8416  0.2373 -0.0806
  836TIP3    H224000   5.631   5.295  14.437  0.9265  1.0786  2.2860
  837TIP3   OH224001   6.765   0.080   4.729  0.4025  0.0490 -0.3053
  837TIP3    H124002   6.778   0.114   4.818 -0.6355  1.7023 -0.7504
  837TIP3    H224003   6.753  -0.014   4.742  0.1336  0.2642  1.3361
  838TIP3   OH224004   1.511   4.824  15.030 -0.4101 -0.2753  0.5699
  838TIP3    H124005   1.539   4.837  15.121 -1.6638 -1.3903  1.1410
  838TIP3    H224006   1.510   4.913  14.993  1.6456  0.0332  1.1490
  839TIP3   OH224007   5.434   4.054   0.245  0.0686 -0.0200  0.2810
  839TIP3    H124008   5.488   4.085   0.173  0.6115 -0.8243  0.3331
  839TIP3    H224009   5.467   3.966   0.264 -0.1276  0.1402  1.4417
  840TIP3   OH224010   6.670   2.559   3.312  0.1683 -0.5512  0.1602
  840TIP3    H124011   6.619   2.608   3.376  0.2775  1.2673 -1.0610
  840TIP3    H224012   6.753   2.606   3.305  0.6602 -1.4530 -0.4077
  841TIP3   OH224013   5.475   2.239  16.849 -0.1520  0.5764 -0.0915
  841TIP3    H124014   5.397   2.291  16.871 -0.1217  1.2623 -1.5083
  841TIP3    H224015   5.456   2.152  16.884 -1.9751  0.4801 -1.1951
  842TIP3   OH224016   4.549   2.580   0.074  0.6214 -0.1083  0.3710
  842TIP3    H124017   4.487   2.612   0.139  1.6950 -0.3569  1.5387
  842TIP3    H224018   4.631   2.624   0.094  1.6362 -2.0889  0.8214
  843TIP3   OH224019   3.154   6.120   0.910  0.8300  0.1363 -0.3325
  843TIP3    H124020   3.164   6.046   0.971  0.6733  0.0950 -0.3571
  843TIP3    H224021   3.063   6.147   0.921  0.3483 -0.8546 -1.6750
  844TIP3   OH224022   6.385   4.415  13.372 -0.3062 -0.2394  0.0247
  844TIP3    H124023   6.319   4.438  13.308 -1.2750  0.1453  1.1303
  844TIP3    H224024   6.467   4.413  13.322 -1.0667 -0.2715 -1.2701
  845TIP3   OH224025   6.818   6.692  11.289  0.0546  0.6412 -0.2173
  845TIP3    H124026   6.904   6.654  11.273  0.5157  1.1132  1.0231
  845TIP3    H224027   6.835   6.784  11.307 -0.7335  0.7740 -0.1098
  846TIP3   OH224028   6.524   1.593   2.736 -0.1146 -0.4111 -0.1822
  846TIP3    H124029   6.585   1.574   2.808 -0.0717 -1.4480 -0.4782
  846TIP3    H224030   6.480   1.674   2.763  1.8082  0.7164 -0.2508
  847TIP3   OH224031   1.105   1.785   1.619  0.3480  0.3364 -0.8061
  847TIP3    H124032   1.143   1.707   1.580 -0.9692 -1.7372  1.7187
  847TIP3    H224033   1.030   1.806   1.564  1.4114  0.6234 -2.1951
  848TIP3   OH224034   3.354   3.344  10.173 -0.0910  0.3494 -0.1813
  848TIP3    H124035   3.280   3.382  10.125 -0.1773  0.9027  0.3767
  848TIP3    H224036   3.325   3.342  10.264 -0.0286 -0.9421 -0.1822
  849TIP3   OH224037   2.743   2.976  13.869  0.0207 -0.2770 -0.2507
  849TIP3    H124038   2.689   2.956  13.946 -0.6309  3.0754  0.3300
  849TIP3    H224039   2.682   2.971  13.796 -0.8687  2.0732  0.2331
  850TIP3   OH224040   5.780   4.387  13.311  0.0094 -0.1937 -0.0765
  850TIP3    H124041   5.746   4.345  13.232  0.2593 -3.2840  1.3213
  850TIP3    H224042   5.875   4.388  13.299 -0.0691  2.4407 -1.1573
  851TIP3   OH224043   6.398   4.062  11.080 -0.1441  0.9091  0.0791
  851TIP3    H124044   6.427   3.980  11.121 -0.9865  0.5910  0.0503
  851TIP3    H224045   6.408   4.048  10.986 -2.3928 -0.0071 -0.0660
  852TIP3   OH224046   0.563   0.265   2.548  0.6434 -0.1517  0.8462
  852TIP3    H124047   0.569   0.281   2.642  0.2093  0.2585  0.8152
  852TIP3    H224048   0.644   0.221   2.525  0.3721 -1.0458  1.5693
  853TIP3   OH224049   4.430   0.559  15.972  0.3306 -0.4657 -0.2253
  853TIP3    H124050   4.380   0.640  15.978  2.5732  1.3212 -3.2666
  853TIP3    H224051   4.489   0.561  16.047  0.2951  0.6877 -0.2203
  854TIP3   OH224052   0.207   3.413  11.692 -0.5012  0.1906 -0.2607
  854TIP3    H124053   0.172   3.460  11.768  0.4958 -1.4652  1.3279
  854TIP3    H224054   0.292   3.453  11.676 -0.3499  0.0130  0.0664
  855TIP3   OH224055   5.011   5.173   2.275 -0.5300  0.0098 -0.4044
  855TIP3    H124056   4.984   5.220   2.353 -1.3305 -0.4531 -0.3804
  855TIP3    H224057   5.096   5.135   2.297  0.8595  2.5852 -0.9267
  856TIP3   OH224058   2.029   5.561  13.083  0.2015 -0.3324 -0.4291
  856TIP3    H124059   1.985   5.644  13.064  2.9010  1.4039  0.3888
  856TIP3    H224060   1.999   5.537  13.171  0.0753  0.2265 -0.3203
  857TIP3   OH224061   6.595   0.206  10.510  0.0351 -0.3099  0.3290
  857TIP3    H124062   6.538   0.133  10.486  0.1343 -0.3664  0.2648
  857TIP3    H224063   6.566   0.278  10.454  0.8822 -0.6991 -0.6555
  858TIP3   OH224064   4.417   4.627   2.592  0.2920  0.4450  0.0344
  858TIP3    H124065   4.463   4.576   2.525  0.5931  0.9626 -0.1562
  858TIP3    H224066   4.477   4.627   2.666  0.5215  0.9555 -0.1467
  859TIP3   OH224067   2.066   1.271  16.962  0.3850 -0.4310 -0.3987
  859TIP3    H124068   1.980   1.276  16.922  0.5742 -1.2196 -0.9077
  859TIP3    H224069   2.110   1.351  16.933  0.6462 -1.1436 -2.0886
  860TIP3   OH224070   1.125   6.574   5.701  0.3765 -0.5048  0.3225
  860TIP3    H124071   1.200   6.576   5.761  1.1112  2.2236 -0.5167
  860TIP3    H224072   1.165   6.573   5.614 -0.2897  3.3164 -0.2219
  861TIP3   OH224073   1.691   2.477   2.162  0.2553  0.3145 -0.2552
  861TIP3    H124074   1.652   2.501   2.079 -1.2763 -0.2205  0.2777
  861TIP3    H224075   1.754   2.407   2.140 -0.4286 -0.1062 -0.9106
  862TIP3   OH224076   0.507   0.454   1.575 -0.0099 -0.1324 -0.6516
  862TIP3    H124077   0.570   0.465   1.646 -0.2541  1.7680 -0.6812
  862TIP3    H224078   0.551   0.394   1.514  0.2286 -1.7442  1.0133
  863TIP3   OH224079   3.891   5.252  16.737  1.0530 -0.0448  0.1066
  863TIP3    H124080   3.880   5.319  16.805 -0.1764 -1.0820  0.9911
  863TIP3    H224081   3.819   5.191  16.753  0.9702 -0.5289 -1.9110
  864TIP3   OH224082   2.127   2.480  14.901 -0.3092 -0.6282  0.5387
  864TIP3    H124083   2.060   2.418  14.872 -0.5524  0.1288 -0.5743
  864TIP3    H224084   2.209   2.444  14.868 -0.6305  0.4794 -1.6669
  865TIP3   OH224085   3.006   5.323   0.397 -0.1079 -0.1825  0.0265
  865TIP3    H124086   3.062   5.394   0.366 -0.0150 -0.5827 -0.7463
  865TIP3    H224087   3.039   5.245   0.352 -1.0397 -0.4937 -0.1414
  866TIP3   OH224088   2.917   5.810  13.013 -0.0859  0.5238 -0.1938
  866TIP3    H124089   2.828   5.805  13.047 -0.6348  3.1270 -0.9846
  866TIP3    H224090   2.971   5.826  13.090 -0.4717  0.1883  0.1485
  867TIP3   OH224091   4.786   1.015   4.063  0.2890  0.0991  0.0459
  867TIP3    H124092   4.877   1.008   4.034  0.5154  0.6588  0.6057
  867TIP3    H224093   4.791   1.056   4.149 -0.5446  0.8930 -0.2643
  868TIP3   OH224094   4.182   5.789   1.691 -0.2145  0.3459  0.6509
  868TIP3    H124095   4.183   5.819   1.782 -0.2300 -3.1442  1.9677
  868TIP3    H224096   4.230   5.706   1.693 -1.0790 -0.3492 -2.3564
  869TIP3   OH224097   1.838   4.602  15.294 -0.6992  0.0650  0.2102
  869TIP3    H124098   1.888   4.556  15.361  2.1850  0.4509 -1.5492
  869TIP3    H224099   1.810   4.683  15.337  0.6055  0.0599  1.1381
  870TIP3   OH224100   3.592   4.102   2.459  0.3762  0.3421  0.2189
  870TIP3    H124101   3.680   4.066   2.470  0.6931  0.9560 -0.2697
  870TIP3    H224102   3.604   4.181   2.407 -0.5642 -0.0188 -0.5797
  871TIP3   OH224103   0.287   4.310  10.770 -0.0583 -0.0696  0.2892
  871TIP3    H124104   0.209   4.263  10.800  0.3007  0.2301  1.7517
  871TIP3    H224105   0.272   4.322  10.676 -1.1710 -1.1505  0.2904
  872TIP3   OH224106   1.924   1.119   5.515 -0.7809 -0.0680  0.2133
  872TIP3    H124107   1.882   1.094   5.598  0.8722  0.8393  1.3783
  872TIP3    H224108   1.901   1.211   5.505  0.6308  0.3580  0.7120
  873TIP3   OH224109   0.854   3.231   0.188 -0.2162  0.2919  0.2781
  873TIP3    H124110   0.874   3.278   0.269 -1.7229 -0.0755  0.8986
  873TIP3    H224111   0.903   3.278   0.121  0.0039  1.4334  1.2013
  874TIP3   OH224112   3.451   2.024  13.324  0.1164  0.0851 -0.5034
  874TIP3    H124113   3.490   1.940  13.348 -0.4813 -0.0551  0.0108
  874TIP3    H224114   3.502   2.089  13.372 -2.1604 -0.3039  2.7544
  875TIP3   OH224115   6.541   0.033  14.396 -0.4357 -0.2419 -0.2196
  875TIP3    H124116   6.602  -0.029  14.435  0.1468 -0.0657 -0.8241
  875TIP3    H224117   6.455  -0.006  14.408 -0.2314 -0.3844  0.8598
  876TIP3   OH224118   1.198   0.432   5.013  0.3778  0.2492 -0.5133
  876TIP3    H124119   1.262   0.476   5.070 -1.5806  1.6754  0.7013
  876TIP3    H224120   1.208   0.475   4.928 -0.4094  2.0204  0.2475
  877TIP3   OH224121   0.236   4.328  10.206 -0.5476 -1.0145  0.0106
  877TIP3    H124122   0.205   4.238  10.202  0.6014 -1.4344  0.4439
  877TIP3    H224123   0.305   4.334  10.141  0.0516 -0.7234  0.6534
  878TIP3   OH224124   3.155   2.538   5.315  0.4350 -0.1673  0.1444
  878TIP3    H124125   3.236   2.522   5.364 -0.2895  0.5876  1.6680
  878TIP3    H224126   3.181   2.596   5.243  1.4306 -0.8449 -0.0584
  879TIP3   OH224127   5.565   3.776  12.408 -0.1064  0.2533  0.0918
  879TIP3    H124128   5.631   3.844  12.393 -0.2198  0.2192 -0.5685
  879TIP3    H224129   5.483   3.824  12.418  0.3626  0.6314  4.2014
  880TIP3   OH224130   2.994   3.437   2.623  0.3240  0.5740  0.0239
  880TIP3    H124131   3.012   3.399   2.709 -0.5105  0.1585  0.0204
  880TIP3    H224132   2.952   3.520   2.642 -0.2079  0.3094  0.0225
  881TIP3   OH224133   4.779   3.609   2.393  0.5176  0.2151 -0.0176
  881TIP3    H124134   4.684   3.602   2.392  0.5344 -0.1928  0.6310
  881TIP3    H224135   4.806   3.567   2.474  1.2853 -0.0705 -0.4041
  882TIP3   OH224136   2.030   3.514   1.862 -0.5238 -0.3635  0.8118
  882TIP3    H124137   1.944   3.478   1.884 -0.2755 -0.0071  2.5114
  882TIP3    H224138   2.046   3.580   1.929  0.7645  0.1036  0.0796
  883TIP3   OH224139   4.526   3.417   2.949  0.4211 -0.0356 -0.0720
  883TIP3    H124140   4.620   3.396   2.948  0.7188  1.2180 -0.3473
  883TIP3    H224141   4.483   3.333   2.959  1.5731 -0.6631 -0.1941
  884TIP3   OH224142   5.747   4.964  15.223 -0.1280  0.2748  0.2135
  884TIP3    H124143   5.743   5.028  15.294  0.7567  1.9879 -1.2091
  884TIP3    H224144   5.796   5.008  15.153 -0.0823 -1.7143 -1.0955
  885TIP3   OH224145   1.522   5.282   6.359  0.7667 -0.3566 -0.5858
  885TIP3    H124146   1.498   5.364   6.401  1.1184 -1.0842  1.0859
  885TIP3    H224147   1.439   5.236   6.347  0.8319 -1.0175  1.2341
  886TIP3   OH224148   6.649   1.148  15.306  0.0967  0.5251  0.0862
  886TIP3    H124149   6.727   1.145  15.361 -0.3732  2.0965  0.9146
  886TIP3    H224150   6.615   1.237  15.318 -2.0776 -0.2454  0.1287
  887TIP3   OH224151   3.323   6.713   2.936  0.4844  0.6299 -0.4199
  887TIP3    H124152   3.327   6.661   2.856  2.9493  0.0367 -0.0074
  887TIP3    H224153   3.394   6.777   2.926  0.9584  0.4278  1.3332
  888TIP3   OH224154   5.864   6.454   0.262  0.2541  0.2446 -0.8997
  888TIP3    H124155   5.854   6.520   0.331  1.2331  0.1405 -0.6525
  888TIP3    H224156   5.911   6.382   0.303  1.3135  0.3934 -1.7936
  889TIP3   OH224157   4.878   5.495   0.358 -0.5858 -0.0409  0.1177
  889TIP3    H124158   4.860   5.413   0.312 -0.6211 -0.2623  0.5129
  889TIP3    H224159   4.886   5.561   0.289 -1.4567 -0.2094 -0.1515
  890TIP3   OH224160   3.460   6.002   2.498  0.2757 -0.1893 -0.1126
  890TIP3    H124161   3.454   5.906   2.504 -1.3752 -0.0714  1.1343
  890TIP3    H224162   3.412   6.033   2.575 -0.3216  1.6499 -1.1546
  891TIP3   OH224163   4.751   5.705  13.779  0.2759 -0.2342 -0.0717
  891TIP3    H124164   4.767   5.612  13.759  0.3841 -0.0100 -1.0639
  891TIP3    H224165   4.834   5.748  13.759  0.0433  0.1665 -0.1657
  892TIP3   OH224166   3.533   3.428   1.741  0.0695  0.0427 -0.2890
  892TIP3    H124167   3.444   3.444   1.774  1.0845  0.0038  2.7803
  892TIP3    H224168   3.538   3.332   1.734 -0.4593  0.0948 -1.5899
  893TIP3   OH224169   4.886   0.720   4.527 -0.6951  0.0792 -0.1943
  893TIP3    H124170   4.963   0.769   4.498 -1.4243 -0.0102 -2.4752
  893TIP3    H224171   4.825   0.787   4.558 -1.0923  0.5562 -1.8696
  894TIP3   OH224172   6.140   4.750  13.617  0.0227  0.1433 -0.2795
  894TIP3    H124173   6.110   4.665  13.647 -1.6188 -0.0722 -2.3491
  894TIP3    H224174   6.220   4.766  13.668 -0.5544 -1.8155  1.3787
  895TIP3   OH224175   1.141   0.905   5.048  0.4958  0.7724 -0.1263
  895TIP3    H124176   1.198   0.855   4.990 -1.5229  0.4979 -2.0130
  895TIP3    H224177   1.069   0.845   5.069 -0.3577  1.8479  0.1363
  896TIP3   OH224178   2.987   0.099   3.674  0.2858 -0.0954 -0.2352
  896TIP3    H124179   2.955   0.165   3.736  0.1365 -0.1898 -0.2119
  896TIP3    H224180   3.082   0.105   3.680  0.2829  0.7259 -0.8780
  897TIP3   OH224181   6.586   5.707  12.616 -0.1850 -0.0033 -0.0546
  897TIP3    H124182   6.548   5.769  12.553 -1.1583  0.2552  0.7674
  897TIP3    H224183   6.551   5.735  12.701  0.9804 -0.4465  0.5898
  898TIP3   OH224184   2.918   3.807  15.875 -0.2168  0.4387 -0.0152
  898TIP3    H124185   2.965   3.730  15.907 -2.3178 -1.1438 -0.4691
  898TIP3    H224186   2.909   3.863  15.952 -0.6819 -0.8857  0.9317
  899TIP3   OH224187   2.790   0.403   2.827  0.2801  0.5913  0.3216
  899TIP3    H124188   2.832   0.396   2.741  0.5862 -0.5568  0.5480
  899TIP3    H224189   2.813   0.491   2.858  2.1440  0.1735  0.2305
  900TIP3   OH224190   4.746   3.777   3.902  0.0587 -0.0573  0.4264
  900TIP3    H124191   4.838   3.758   3.884  0.2141  0.9128  0.1819
  900TIP3    H224192   4.745   3.868   3.931 -0.6210 -0.5556  2.0501
  901TIP3   OH224193   2.830   4.453  12.897  0.4239 -0.1301 -0.2584
  901TIP3    H124194   2.918   4.482  12.872  1.1837 -1.6496  0.5482
  901TIP3    H224195   2.827   4.464  12.992 -0.0476 -0.6298 -0.2109
  902TIP3   OH224196   3.271   2.022   5.103 -0.3047 -0.5598 -0.1373
  902TIP3    H124197   3.183   2.058   5.102 -0.2647 -0.4021 -1.9272
  902TIP3    H224198   3.325   2.092   5.140 -0.7887 -0.3157  0.1187
  903TIP3   OH224199   0.517   5.972  12.506  0.0796 -0.0777 -0.9852
  903TIP3    H124200   0.460   5.928  12.443  1.3425 -3.0035 -0.2523
  903TIP3    H224201   0.469   5.969  12.589 -0.2750  0.9164 -1.1508
  904TIP3   OH224202   6.187   2.169   2.515  0.7561 -0.0546 -0.0636
  904TIP3    H124203   6.221   2.140   2.431 -1.8705 -0.0166 -1.2447
  904TIP3    H224204   6.170   2.263   2.503  0.7439  0.0445  0.6673
  905TIP3   OH224205   0.802   0.703   5.310  0.5358 -0.1586 -0.4369
  905TIP3    H124206   0.781   0.622   5.355 -0.9364 -0.2431 -1.2128
  905TIP3    H224207   0.788   0.683   5.217  0.3422  0.9201 -0.6516
  906TIP3   OH224208   1.996   6.717  11.599 -0.5860  0.2374  0.7367
  906TIP3    H124209   2.075   6.770  11.608 -1.0807  1.0384  0.4504
  906TIP3    H224210   2.011   6.664  11.521 -0.3828  0.4802  0.6107
  907TIP3   OH224211   2.234   4.099  14.041  0.0928 -0.0191 -0.0471
  907TIP3    H124212   2.252   4.179  14.090  2.2529 -0.6743  0.3175
  907TIP3    H224213   2.254   4.122  13.950  1.6323 -0.3596  0.1781
  908TIP3   OH224214   4.218   2.525  16.221 -0.1402 -0.2567  0.1512
  908TIP3    H124215   4.169   2.602  16.251  0.7476  0.1768  0.5235
  908TIP3    H224216   4.289   2.561  16.168  1.6619 -0.6414  2.2063
  909TIP3   OH224217   2.493   2.319  11.218 -0.4406 -0.0430  0.2392
  909TIP3    H124218   2.482   2.224  11.218 -0.4305 -0.0552  1.5655
  909TIP3    H224219   2.577   2.334  11.174 -0.2288 -0.6731  0.4238
  910TIP3   OH224220   5.106   1.536   5.362  0.3433  0.2790 -0.4493
  910TIP3    H124221   5.074   1.527   5.273 -1.3662  1.1420  0.0268
  910TIP3    H224222   5.045   1.485   5.415  1.6263 -0.6460  0.2027
  911TIP3   OH224223   1.439   3.896   3.095  0.4913 -0.0682 -0.6815
  911TIP3    H124224   1.494   3.946   3.155  1.7445  0.1301 -1.9588
  911TIP3    H224225   1.495   3.826   3.063 -0.0724 -0.0527 -1.7743
  912TIP3   OH224226   2.451   3.408  16.823 -0.0433 -0.3960  0.2120
  912TIP3    H124227   2.520   3.472  16.804  0.7092 -1.3048 -0.2078
  912TIP3    H224228   2.401   3.403  16.741  0.1934 -0.6910  0.0827
  913TIP3   OH224229   5.122   4.276   3.886 -0.1508 -0.8852 -0.3000
  913TIP3    H124230   5.100   4.298   3.795  2.1852  3.1579 -0.1082
  913TIP3    H224231   5.083   4.346   3.938  3.8101  0.6346  1.0080
  914TIP3   OH224232   3.229   1.421  13.915 -0.2759  0.0716  0.7729
  914TIP3    H124233   3.214   1.372  13.995  1.4102 -0.0166  1.0748
  914TIP3    H224234   3.205   1.361  13.844  0.2035 -0.5999  1.1726
  915TIP3   OH224235   6.344   3.911  11.389  0.0922  0.5167  0.7005
  915TIP3    H124236   6.430   3.906  11.429  2.4057 -0.6267 -3.7042
  915TIP3    H224237   6.334   3.827  11.344 -3.0004  0.9107  0.4459
  916TIP3   OH224238   3.877   3.930  16.000 -0.4737  0.0563  0.2795
  916TIP3    H124239   3.859   3.984  15.923 -2.8995 -1.5041 -0.3713
  916TIP3    H224240   3.964   3.894  15.985  0.6287  2.5713  0.0795
  917TIP3   OH224241   4.794   2.564  13.048 -0.3831 -0.5270  0.0972
  917TIP3    H124242   4.878   2.528  13.075 -0.0659 -1.1042 -1.5420
  917TIP3    H224243   4.730   2.520  13.104  0.4119  0.4407  1.8554
  918TIP3   OH224244   3.082   4.316  16.396 -0.1886  0.2584 -0.5254
  918TIP3    H124245   3.033   4.341  16.318 -1.5630 -0.0803  0.2054
  918TIP3    H224246   3.127   4.396  16.423  0.2101  0.4033 -1.5914
  919TIP3   OH224247   0.242   1.064  11.421  0.3275 -0.2877  0.2797
  919TIP3    H124248   0.204   1.087  11.336  1.0595  1.3221  0.3513
  919TIP3    H224249   0.169   1.068  11.482 -0.0698 -0.7709 -0.1511
  920TIP3   OH224250   4.523   1.873   0.829  0.1323 -0.7344  0.3323
  920TIP3    H124251   4.445   1.873   0.884 -0.1616 -0.5963 -0.0753
  920TIP3    H224252   4.493   1.909   0.745  1.0942  1.3885  0.8224
  921TIP3   OH224253   2.287   4.761  15.958 -0.0169  0.1003 -0.8819
  921TIP3    H124254   2.342   4.771  15.880  1.9565  0.9292  0.5378
  921TIP3    H224255   2.280   4.850  15.994 -0.0736 -0.3978  0.3994
  922TIP3   OH224256   0.775   4.876  12.711  0.3328  0.1910  0.6444
  922TIP3    H124257   0.746   4.887  12.620  0.2200  0.6641  0.7337
  922TIP3    H224258   0.870   4.875  12.706  0.3578 -2.2868  0.2370
  923TIP3   OH224259   2.727   1.791   0.336 -0.6193  0.8674  0.3717
  923TIP3    H124260   2.633   1.809   0.335 -0.6687  0.6470  0.7488
  923TIP3    H224261   2.751   1.793   0.429 -0.5997 -0.7564  0.4396
  924TIP3   OH224262   3.916   6.011   3.349  0.0883 -0.4291 -0.0485
  924TIP3    H124263   3.869   6.019   3.266  0.4477 -1.2984 -0.3431
  924TIP3    H224264   3.967   5.931   3.340  2.5722  1.0795 -0.2059
  925TIP3   OH224265   3.690   2.940  15.003 -0.2409  0.2667  0.6601
  925TIP3    H124266   3.762   2.948  14.940  0.4291 -0.9706  1.2497
  925TIP3    H224267   3.717   2.995  15.077  0.3202 -0.5468  1.0695
  926TIP3   OH224268   1.267   4.817   4.754  0.0169 -0.2368 -0.2043
  926TIP3    H124269   1.278   4.727   4.726 -0.7312  0.2575 -2.2733
  926TIP3    H224270   1.200   4.852   4.696 -1.3230  1.0605  1.9592
  927TIP3   OH224271   1.675   3.997   4.871  0.3492  0.3498 -0.0454
  927TIP3    H124272   1.763   3.960   4.867  0.3497  0.3049  0.3436
  927TIP3    H224273   1.680   4.075   4.816  0.1805 -0.5435 -1.3934
  928TIP3   OH224274   5.693   1.252   1.414  0.0108  0.3877  0.2242
  928TIP3    H124275   5.772   1.223   1.370 -1.1741 -2.5895 -0.1818
  928TIP3    H224276   5.693   1.205   1.498 -0.7884  1.1817  0.6925
  929TIP3   OH224277   4.109   0.367  15.937 -0.3143  0.0388 -0.5459
  929TIP3    H124278   4.189   0.350  15.888  0.1744 -1.1638  0.5855
  929TIP3    H224279   4.139   0.405  16.020 -0.8233 -0.9883  0.1439
  930TIP3   OH224280   1.683   6.512  12.751 -0.3830  0.3209  0.3458
  930TIP3    H124281   1.642   6.488  12.834  2.2136 -2.2795  1.0680
  930TIP3    H224282   1.683   6.608  12.751 -1.4287  0.4070  2.8425
  931TIP3   OH224283   0.618   1.727   1.798  0.1000 -0.0397  0.1396
  931TIP3    H124284   0.668   1.686   1.869  1.5389 -0.2695 -0.9518
  931TIP3    H224285   0.558   1.659   1.768 -1.7592  0.5788  2.1928
  932TIP3   OH224286   3.148   5.297  11.741  0.2912 -0.0862 -0.2935
  932TIP3    H124287   3.151   5.348  11.660  1.0061  1.0648  0.4271
  932TIP3    H224288   3.164   5.361  11.810 -0.0470 -1.0916  0.7497
  933TIP3   OH224289   2.202   4.764  13.387  0.0890 -0.1774  0.0693
  933TIP3    H124290   2.238   4.796  13.304  0.1681 -0.0299  0.1606
  933TIP3    H224291   2.122   4.718  13.362  0.3887 -0.5946 -0.1493
  934TIP3   OH224292   4.326   3.538  15.080 -0.1493  0.4408 -0.4348
  934TIP3    H124293   4.321   3.462  15.139 -1.6598  0.2478 -0.7843
  934TIP3    H224294   4.415   3.535  15.046  0.3794 -0.1482  0.9044
  935TIP3   OH224295   1.008   4.540  13.693 -0.0398 -0.4874  0.0613
  935TIP3    H124296   1.095   4.567  13.666  0.2997  0.4058  1.8654
  935TIP3    H224297   0.966   4.621  13.722 -0.0084 -1.3936  2.9600
  936TIP3   OH224298   2.007   2.362  12.547 -0.0518  0.1792 -0.0176
  936TIP3    H124299   1.937   2.420  12.579  0.1192 -0.5453  1.7813
  936TIP3    H224300   2.058   2.341  12.625  1.2699 -0.5506 -1.0448
  937TIP3   OH224301   4.462   4.295  10.430  0.1238 -0.0987  0.5173
  937TIP3    H124302   4.494   4.375  10.471  0.6557  0.2236 -0.4830
  937TIP3    H224303   4.523   4.228  10.458  0.9876  0.2797 -0.3850
  938TIP3   OH224304   2.337   1.182   1.950 -0.0614 -0.3049 -0.2296
  938TIP3    H124305   2.331   1.268   1.908  0.8872 -1.4115 -2.8813
  938TIP3    H224306   2.268   1.182   2.016  0.2764  2.6638  0.2784
  939TIP3   OH224307   5.878   0.043   0.614  0.3629 -0.3939  0.5007
  939TIP3    H124308   5.968   0.070   0.598  0.3281 -0.9529 -0.7924
  939TIP3    H224309   5.825   0.119   0.587  0.4234 -0.2416  0.8068
  940TIP3   OH224310   2.333   6.522   3.969 -0.0604  0.1699  0.4386
  940TIP3    H124311   2.412   6.521   4.024  0.3744  0.5583 -0.1695
  940TIP3    H224312   2.267   6.478   4.022  0.4425  0.2419  1.1426
  941TIP3   OH224313   3.753   6.016  16.396  0.2406 -0.8439 -0.4055
  941TIP3    H124314   3.746   6.072  16.473 -1.1074 -2.5881  0.8299
  941TIP3    H224315   3.670   6.028  16.350  1.2603  0.6299 -1.9920
  942TIP3   OH224316   1.344   0.403   4.111 -0.1766 -0.5464  0.1901
  942TIP3    H124317   1.276   0.359   4.059 -1.4412  0.0284  1.2806
  942TIP3    H224318   1.355   0.488   4.068 -0.1198 -0.6508 -0.0047
  943TIP3   OH224319   5.612   6.388  16.136 -0.1708  0.0259 -0.0251
  943TIP3    H124320   5.538   6.448  16.131 -0.3012 -0.0666  0.6254
  943TIP3    H224321   5.664   6.421  16.210  0.0822 -0.3004 -0.0523
  944TIP3   OH224322   4.924   1.128   1.960 -0.0641 -0.1295  0.1754
  944TIP3    H124323   4.942   1.039   1.929  0.3298 -0.2549  0.7455
  944TIP3    H224324   4.856   1.161   1.901  0.7162 -0.3311 -0.8623
  945TIP3   OH224325   2.052   6.492  16.389 -1.0124  0.3246  0.9861
  945TIP3    H124326   1.963   6.463  16.411 -1.2389  0.7037  0.5840
  945TIP3    H224327   2.042   6.537  16.305 -0.6874  1.6390  1.6275
  946TIP3   OH224328   4.033   5.734  10.794 -0.4147 -0.2348 -0.5463
  946TIP3    H124329   3.993   5.804  10.742  0.7467  0.2535 -0.8112
  946TIP3    H224330   4.109   5.775  10.836  0.8750 -1.5389 -1.4784
  947TIP3   OH224331   1.399   1.007  14.167 -0.3120 -0.5231  0.3638
  947TIP3    H124332   1.410   0.991  14.260 -0.9653  3.0466  1.2044
  947TIP3    H224333   1.474   1.062  14.143 -0.9454 -0.1310 -0.8097
  948TIP3   OH224334   0.573   3.213  15.471  0.0548 -0.8141 -0.0129
  948TIP3    H124335   0.526   3.177  15.395 -0.6152 -1.2773  0.6100
  948TIP3    H224336   0.659   3.171  15.468 -0.1583 -1.2426 -0.2106
  949TIP3   OH224337   4.507   3.101  15.924  0.9024 -0.0276 -0.0379
  949TIP3    H124338   4.442   3.089  15.854  2.3758 -1.1195 -1.2809
  949TIP3    H224339   4.536   3.013  15.946  2.5206  0.4672 -0.0658
  950TIP3   OH224340   3.764   4.827  15.166 -0.4092  0.3205  0.1193
  950TIP3    H124341   3.834   4.842  15.229 -1.2330 -0.3358  1.2400
  950TIP3    H224342   3.759   4.909  15.116 -0.0244  1.0424  1.2141
  951TIP3   OH224343   5.147   1.445   4.889 -0.3825  0.2937  0.2463
  951TIP3    H124344   5.203   1.503   4.940 -1.9527  1.7830  0.3705
  951TIP3    H224345   5.202   1.417   4.816  2.1552 -2.3942  2.8838
  952TIP3   OH224346   5.255   0.469   6.368  0.4576 -0.7691 -0.1162
  952TIP3    H124347   5.338   0.423   6.383  0.6349 -0.6885 -0.8304
  952TIP3    H224348   5.258   0.495   6.276  0.5601  1.0568  0.3467
  953TIP3   OH224349   5.285   0.141   3.650  0.1608 -0.0362 -0.2162
  953TIP3    H124350   5.197   0.148   3.613  0.1069  0.2695 -0.0296
  953TIP3    H224351   5.291   0.213   3.713  1.1064  0.9805 -1.4071
  954TIP3   OH224352   0.053   2.668  13.806 -0.1233 -0.4345  0.1737
  954TIP3    H124353   0.025   2.580  13.783 -0.8584 -0.5311  1.3646
  954TIP3    H224354   0.095   2.702  13.727 -0.3598 -1.6291 -0.4757
  955TIP3   OH224355   0.243   3.899   2.045  0.4776  0.1846  0.3695
  955TIP3    H124356   0.253   3.814   2.088  1.4587  0.6163  1.0283
  955TIP3    H224357   0.254   3.963   2.116  1.5256  0.8959 -0.4136
  956TIP3   OH224358   1.188   5.307  15.826  0.6190 -0.1217  0.1384
  956TIP3    H124359   1.237   5.272  15.901  1.1519 -2.4692 -1.2111
  956TIP3    H224360   1.114   5.248  15.816  1.0462 -0.4072 -1.7186
  957TIP3   OH224361   0.131   6.550  15.834 -0.0044 -0.3176 -0.3369
  957TIP3    H124362   0.104   6.642  15.834  0.5644 -0.1415  0.5395
  957TIP3    H224363   0.113   6.520  15.923  1.4078 -0.5662 -0.1187
  958TIP3   OH224364   1.911   6.374  13.608 -0.5690  0.0527 -0.3527
  958TIP3    H124365   1.871   6.329  13.534 -0.6071  2.4028 -1.8684
  958TIP3    H224366   2.001   6.393  13.579 -0.5568  0.9412  0.2274
  959TIP3   OH224367   1.336   3.134  14.399 -0.1603  0.7696 -0.1159
  959TIP3    H124368   1.346   3.120  14.305  0.7383 -0.0181  0.0753
  959TIP3    H224369   1.401   3.201  14.421  0.9219 -0.3541  0.2224
  960TIP3   OH224370   1.642   3.194   1.714 -0.6824  0.3192 -0.6142
  960TIP3    H124371   1.618   3.188   1.621 -1.8153  0.6708 -0.3605
  960TIP3    H224372   1.666   3.105   1.739 -1.3354  0.0282 -0.9979
  961TIP3   OH224373   2.371   0.948  16.562  0.2387  0.1776  0.0946
  961TIP3    H124374   2.402   0.896  16.487 -1.7078 -0.0479 -0.5954
  961TIP3    H224375   2.452   0.978  16.604  1.4220 -1.9222 -0.5176
  962TIP3   OH224376   2.635   6.834  11.191 -0.6656  0.5861 -0.3019
  962TIP3    H124377   2.579   6.757  11.177 -1.6737  1.4237 -0.9959
  962TIP3    H224378   2.708   6.822  11.130 -1.0020  0.3564 -0.6629
  963TIP3   OH224379   4.658   0.640   0.019 -0.1436 -0.1940 -0.6889
  963TIP3    H124380   4.598   0.644   0.093  0.5387  1.3804 -0.1741
  963TIP3    H224381   4.742   0.616   0.058  0.9128  3.3866 -0.3668
  964TIP3   OH224382   5.031   6.765  11.736  0.0002 -0.1023  0.1839
  964TIP3    H124383   4.999   6.849  11.769  0.6945 -0.4669  1.8961
  964TIP3    H224384   4.951   6.718  11.711 -0.5174  0.4301  0.7772
  965TIP3   OH224385   5.777   6.694   5.828  0.6192 -0.2462  0.2522
  965TIP3    H124386   5.843   6.721   5.764  0.9169  2.9928  1.7149
  965TIP3    H224387   5.823   6.698   5.912 -0.7805 -0.4198  1.0587
  966TIP3   OH224388   1.928   1.856   4.503  0.0310  0.1673 -0.8520
  966TIP3    H124389   1.911   1.909   4.581  0.9233 -0.8095  0.0430
  966TIP3    H224390   1.989   1.908   4.451 -0.3194  0.6860 -0.7575
  967TIP3   OH224391   5.290   1.255   3.108  0.4099  0.1868  0.0072
  967TIP3    H124392   5.317   1.344   3.085 -2.3393  1.0755 -0.0463
  967TIP3    H224393   5.265   1.216   3.024 -1.5154  0.5445  0.3658
  968TIP3   OH224394   3.562   4.901   3.672 -0.3078  0.6865  0.7091
  968TIP3    H124395   3.543   4.949   3.752 -0.8976 -1.0080  1.6362
  968TIP3    H224396   3.496   4.932   3.609  0.6425  2.5946  0.5884
  969TIP3   OH224397   6.581   1.705   2.228  0.6695  0.3022  1.2377
  969TIP3    H124398   6.604   1.684   2.319  1.3052 -0.0405  1.0020
  969TIP3    H224399   6.542   1.792   2.234 -2.2257 -0.9517  2.2518
  970TIP3   OH224400   5.054   1.072  13.335  0.0068  0.6954 -0.5746
  970TIP3    H124401   5.112   0.995  13.339  1.3049  1.6486 -0.0330
  970TIP3    H224402   5.053   1.104  13.425  0.0001  1.6664 -0.9160
  971TIP3   OH224403   6.141   0.687  13.009  0.8725  0.3328 -0.4080
  971TIP3    H124404   6.220   0.714  12.963  2.4934  2.7825  3.3662
  971TIP3    H224405   6.153   0.593  13.023  1.8440  0.1685 -1.9965
  972TIP3   OH224406   5.237   2.276   0.483  0.1254 -0.0958 -0.0280
  972TIP3    H124407   5.213   2.187   0.459  1.2323 -0.9161  1.6798
  972TIP3    H224408   5.325   2.288   0.446 -0.6416  0.8980 -1.6104
  973TIP3   OH224409   2.093   5.080   0.494 -0.1276 -0.3449 -0.1652
  973TIP3    H124410   2.075   4.986   0.488 -1.4226 -0.1514  0.3285
  973TIP3    H224411   2.019   5.121   0.450 -0.3137  0.4815  0.8776
  974TIP3   OH224412   1.433   4.521  14.943 -0.5272 -1.0145 -0.2043
  974TIP3    H124413   1.460   4.566  14.863 -1.0775  2.1540  1.2476
  974TIP3    H224414   1.363   4.575  14.979  0.0367 -2.0090  2.6706
  975TIP3   OH224415   3.708   2.441  15.457 -0.2165 -0.4719 -0.7196
  975TIP3    H124416   3.638   2.385  15.491 -0.0216 -0.5381 -0.4254
  975TIP3    H224417   3.673   2.476  15.375 -1.4164  1.1442  0.4230
  976TIP3   OH224418   1.008   1.076   5.847  0.7627  0.0188  0.2029
  976TIP3    H124419   0.963   1.086   5.931  0.2703 -0.4386 -0.0059
  976TIP3    H224420   1.060   1.156   5.839 -0.1531  0.6503  0.3655
  977TIP3   OH224421   2.401   4.271  12.935  0.3295 -0.0809  0.0921
  977TIP3    H124422   2.469   4.230  12.987 -0.5606 -0.7274  0.7888
  977TIP3    H224423   2.322   4.264  12.989 -0.6621 -0.8893 -1.3599
  978TIP3   OH224424   2.034   4.614   3.965  0.2638 -0.0062  0.2932
  978TIP3    H124425   2.118   4.579   3.936 -0.4252 -0.7610 -0.8631
  978TIP3    H224426   1.988   4.634   3.884 -0.8674 -0.0686  0.9107
  979TIP3   OH224427   3.118   4.087  12.782  0.3387  0.3244  0.0710
  979TIP3    H124428   3.191   4.148  12.791 -0.3837  1.7272 -2.6290
  979TIP3    H224429   3.040   4.143  12.782 -0.5618 -0.8903  0.2841
  980TIP3   OH224430   0.195   1.760   2.641  0.0087  0.2798  0.2051
  980TIP3    H124431   0.242   1.785   2.562  1.3586 -1.6538  0.3251
  980TIP3    H224432   0.106   1.740   2.612  0.3448  0.1234 -0.7368
  981TIP3   OH224433   2.387   2.615   1.956  0.1309  0.2608 -0.2148
  981TIP3    H124434   2.431   2.534   1.929 -0.9440 -0.8718  1.2799
  981TIP3    H224435   2.294   2.596   1.944 -0.0996  2.7402 -3.6894
  982TIP3   OH224436   2.613   5.647   0.033  0.0477 -0.5589 -0.0308
  982TIP3    H124437   2.541   5.676   0.088  0.6712  0.4999  0.2572
  982TIP3    H224438   2.690   5.652   0.089  0.4630 -0.9193 -0.5610
  983TIP3   OH224439   6.767   5.171   5.442  0.1983  0.5078  0.4118
  983TIP3    H124440   6.847   5.215   5.413  1.4581 -1.6752  0.3616
  983TIP3    H224441   6.770   5.173   5.537 -0.9417  2.4704  0.4646
  984TIP3   OH224442   3.442   0.265   5.179  0.2000  0.3762 -0.6087
  984TIP3    H124443   3.357   0.279   5.221 -0.0583 -1.6028 -0.3709
  984TIP3    H224444   3.466   0.351   5.145 -2.4403  0.7680 -1.7161
  985TIP3   OH224445   4.870   3.633   0.422  0.2159  0.0164  0.6678
  985TIP3    H124446   4.879   3.693   0.497 -0.1928  1.3355 -0.3059
  985TIP3    H224447   4.902   3.683   0.347 -2.7647  0.1045 -0.6808
  986TIP3   OH224448   3.639   2.361  11.409  0.1363  0.3121 -0.3809
  986TIP3    H124449   3.729   2.386  11.432 -0.3595  1.3147  0.5678
  986TIP3    H224450   3.641   2.351  11.314  1.5793 -1.0909 -0.2535
  987TIP3   OH224451   4.167   0.561  12.914  0.3239  0.5865  0.1404
  987TIP3    H124452   4.087   0.509  12.918  0.5948  0.2580  2.5251
  987TIP3    H224453   4.154   0.630  12.980  3.4078 -1.7138  3.5336
  988TIP3   OH224454   1.837   1.349   0.071 -0.1434  0.0761 -0.6053
  988TIP3    H124455   1.799   1.312  -0.009 -0.2590  0.1277 -0.5749
  988TIP3    H224456   1.842   1.443   0.053 -2.6653  0.4881  0.4369
  989TIP3   OH224457   4.942   3.184   5.378  0.4512  0.0424  0.0746
  989TIP3    H124458   4.915   3.105   5.332  0.7173 -0.9326  1.5322
  989TIP3    H224459   4.981   3.152   5.459 -2.2233  1.7125  2.1773
  990TIP3   OH224460   0.182   2.952  15.297  0.2614 -0.1281 -0.2429
  990TIP3    H124461   0.183   2.968  15.203  2.6285 -0.4688 -0.3291
  990TIP3    H224462   0.107   2.894  15.311 -1.4570  1.6461 -1.5545
  991TIP3   OH224463   4.418   5.588  11.189 -0.0746  0.3061 -0.1051
  991TIP3    H124464   4.505   5.550  11.204 -0.6072 -0.9223 -0.0053
  991TIP3    H224465   4.435   5.665  11.134  1.0661  0.0463 -0.1458
  992TIP3   OH224466   6.430   0.750   4.992 -0.1395 -0.0873  0.1588
  992TIP3    H124467   6.502   0.690   5.009  0.8944  1.3176  1.0282
  992TIP3    H224468   6.366   0.731   5.061  0.1111 -0.2825  0.3398
  993TIP3   OH224469   5.900   5.079   0.373 -0.1045 -0.6001 -0.5093
  993TIP3    H124470   5.847   5.151   0.408  1.2307  0.7307 -1.1462
  993TIP3    H224471   5.857   5.000   0.406 -2.9696  0.3605 -1.6209
  994TIP3   OH224472   1.986   2.108  12.445 -0.2082 -0.0961 -0.2259
  994TIP3    H124473   2.007   2.192  12.486  0.2583  0.3623 -1.3442
  994TIP3    H224474   1.891   2.107  12.440 -0.2159  0.4135 -0.2657
  995TIP3   OH224475   5.804   4.946  14.311  0.1389 -0.3124 -0.5257
  995TIP3    H124476   5.767   4.867  14.350  0.1324  1.6055  4.0042
  995TIP3    H224477   5.729   5.003  14.295  0.4037  0.1800 -0.0531
  996TIP3   OH224478   4.488   4.653  14.004 -0.1797  0.2663  0.2357
  996TIP3    H124479   4.453   4.733  14.044 -1.0032  0.4047 -0.7172
  996TIP3    H224480   4.438   4.582  14.045 -1.9517  0.4867 -1.4016
  997TIP3   OH224481   4.305   3.448   3.854  0.5996  0.1557  0.8594
  997TIP3    H124482   4.352   3.370   3.823  2.0928  1.0084  0.8969
  997TIP3    H224483   4.370   3.518   3.851 -0.7642  1.4630  0.6452
  998TIP3   OH224484   0.453   6.066   5.011  0.0401  0.1484 -0.1692
  998TIP3    H124485   0.501   5.984   5.018 -0.7663 -0.3731 -0.6063
  998TIP3    H224486   0.407   6.075   5.095 -1.1782 -0.7081 -0.7044
  999TIP3   OH224487   1.603   3.384  16.529  0.3416 -0.1911  0.3929
  999TIP3    H124488   1.685   3.424  16.499  1.1710 -2.2755 -0.2786
  999TIP3    H224489   1.623   3.349  16.616  0.0111 -0.3038  0.4261
 1000TIP3   OH224490   1.348   0.099  14.536 -0.3047 -0.2586 -0.2598
 1000TIP3    H124491   1.365   0.185  14.498  1.2740  0.3928  1.7222
 1000TIP3    H224492   1.402   0.039  14.484  0.5026  0.3393 -0.1357
 1001TIP3   OH224493   0.651   2.730  12.953 -0.2958 -0.0216  0.0895
 1001TIP3    H124494   0.618   2.732  12.864 -0.2237  1.1659  0.0701
 1001TIP3    H224495   0.693   2.645  12.962 -0.2667 -0.1310 -1.0237
 1002TIP3   OH224496   6.725   3.621  16.414  0.4442  0.1309  0.4345
 1002TIP3    H124497   6.755   3.564  16.485  1.0945 -1.6332 -1.1644
 1002TIP3    H224498   6.748   3.573  16.334 -1.2381  1.5235 -0.9576
 1003TIP3   OH224499   1.394   3.599   2.727 -0.3390 -0.0834 -0.0558
 1003TIP3    H124500   1.411   3.692   2.742  0.6770 -0.3521  0.5235
 1003TIP3    H224501   1.309   3.584   2.767 -0.5934  0.6284 -0.3050
 1004TIP3   OH224502   5.500   0.821   2.890  0.4821  0.5296  0.6126
 1004TIP3    H124503   5.527   0.898   2.940  0.3695  1.2580 -0.4043
 1004TIP3    H224504   5.522   0.843   2.799 -1.2606  0.1453  0.0627
 1005TIP3   OH224505   0.524   6.447  13.324  0.0928 -0.0345  0.3626
 1005TIP3    H124506   0.524   6.519  13.261  0.4358 -0.0676  0.3259
 1005TIP3    H224507   0.478   6.483  13.400 -0.3674 -0.0104  0.0797
 1006TIP3   OH224508   4.782   3.816   5.801 -0.2045 -0.0037 -0.3711
 1006TIP3    H124509   4.781   3.733   5.848  1.3637  0.6328  0.8693
 1006TIP3    H224510   4.809   3.881   5.866  0.7776  1.1231 -1.8315
 1007TIP3   OH224511   5.304   2.853  14.886  0.0489 -0.6861 -0.0338
 1007TIP3    H124512   5.217   2.853  14.845 -0.7464 -2.5847  1.5201
 1007TIP3    H224513   5.344   2.771  14.857  0.4206 -0.8972  1.0374
 1008TIP3   OH224514   6.555   6.186  12.517 -0.3170 -0.4455  0.2383
 1008TIP3    H124515   6.508   6.219  12.441 -0.8746 -2.0595 -0.1592
 1008TIP3    H224516   6.626   6.132  12.480  0.4334  0.0928  0.8566
 1009TIP3   OH224517   6.287   5.742  10.083  0.4426  0.2072  0.2271
 1009TIP3    H124518   6.239   5.660  10.067  0.3632  0.8265 -3.4712
 1009TIP3    H224519   6.225   5.796  10.132  0.6169 -1.8952  3.0885
 1010TIP3   OH224520   5.541   3.191   5.248  0.1182 -0.2323 -0.4486
 1010TIP3    H124521   5.486   3.235   5.313  0.2069 -0.2444 -0.3633
 1010TIP3    H224522   5.589   3.262   5.206  0.5244 -0.2725 -0.0635
 1011TIP3   OH224523   3.812   2.029  14.902 -0.1423 -0.6077 -0.3678
 1011TIP3    H124524   3.786   1.937  14.907 -2.5527  0.0678  2.7797
 1011TIP3    H224525   3.745   2.070  14.847 -0.7152 -0.3010  0.5438
 1012TIP3   OH224526   6.065   3.688   4.809 -0.1103  0.0007 -0.5253
 1012TIP3    H124527   6.101   3.671   4.896  0.3187 -0.9567 -0.8770
 1012TIP3    H224528   6.109   3.768   4.779  0.8581 -0.4933 -0.4635
 1013TIP3   OH224529   0.575   4.490   3.782  0.4020 -0.0648  0.0687
 1013TIP3    H124530   0.517   4.464   3.711 -0.2683 -0.2922  0.6947
 1013TIP3    H224531   0.573   4.417   3.844  0.8924  0.1768  0.3793
 1014TIP3   OH224532   5.514   2.878  12.366 -0.3061  0.3638 -0.2078
 1014TIP3    H124533   5.592   2.921  12.401  0.0359 -0.0750 -0.4265
 1014TIP3    H224534   5.523   2.787  12.393 -1.6268  0.6271  1.3293
 1015TIP3   OH224535   3.697   5.059   3.219  0.1964 -0.1141 -0.3253
 1015TIP3    H124536   3.706   5.026   3.308 -0.9560 -0.3320 -0.2771
 1015TIP3    H224537   3.669   5.150   3.230 -1.7737 -0.6616 -0.4266
 1016TIP3   OH224538   0.822   1.948  14.577  0.5456  0.2378  0.8071
 1016TIP3    H124539   0.755   1.923  14.641 -0.1934 -0.8641 -0.3410
 1016TIP3    H224540   0.899   1.898  14.603 -0.2093 -1.4448 -0.0283
 1017TIP3   OH224541   5.086   2.199   2.808  0.3255  0.3905  0.8420
 1017TIP3    H124542   5.066   2.277   2.860 -2.2221 -0.5671  1.4261
 1017TIP3    H224543   5.022   2.134   2.836 -0.7608 -0.4433 -2.9883
 1018TIP3   OH224544   1.783   6.099   5.471 -0.2938  1.2027  0.2902
 1018TIP3    H124545   1.774   6.157   5.546  0.9201  0.9741  0.6370
 1018TIP3    H224546   1.800   6.158   5.397  3.2315  1.3229  1.0018
 1019TIP3   OH224547   2.815   4.563  15.748 -0.2060  0.2684  0.3465
 1019TIP3    H124548   2.891   4.610  15.714  0.5228 -0.5493  0.7864
 1019TIP3    H224549   2.815   4.582  15.842 -0.6791  0.4538  0.3080
 1020TIP3   OH224550   4.520   0.243   1.309 -0.0161 -0.1921 -0.3287
 1020TIP3    H124551   4.590   0.284   1.258 -0.9469  0.0470 -1.4759
 1020TIP3    H224552   4.525   0.150   1.287 -0.4019 -0.0925 -0.8782
 1021TIP3   OH224553   1.996   4.386   0.749 -0.4705 -0.2539 -0.6716
 1021TIP3    H124554   1.989   4.466   0.802 -0.0831 -1.5136  1.3833
 1021TIP3    H224555   1.911   4.379   0.706 -0.3185  1.5402 -1.3794
 1022TIP3   OH224556   6.152   4.509  12.185  0.4362 -0.1563 -0.3645
 1022TIP3    H124557   6.189   4.560  12.258 -0.8967  0.7489 -0.2811
 1022TIP3    H224558   6.150   4.571  12.112 -1.1619 -0.0704 -0.2778
 1023TIP3   OH224559   5.572   0.307  14.736  0.1948 -0.3211 -0.0729
 1023TIP3    H124560   5.495   0.328  14.789 -1.1957 -0.7150 -1.8650
 1023TIP3    H224561   5.613   0.391  14.718 -0.0461 -0.0695  0.5311
 1024TIP3   OH224562   4.623   1.884   4.216 -0.0651 -0.3230  0.5071
 1024TIP3    H124563   4.665   1.950   4.161  0.5735 -2.7199 -2.1426
 1024TIP3    H224564   4.691   1.858   4.279 -0.0691  0.9367  1.0494
 1025TIP3   OH224565   3.035   1.992   1.055  0.2562  0.1948 -0.1467
 1025TIP3    H124566   2.941   1.995   1.072  0.2921  3.2163  0.1086
 1025TIP3    H224567   3.074   2.030   1.134  1.4801  1.3045 -1.2431
 1026TIP3   OH224568   0.138   0.802  11.885  0.4339 -0.5714 -0.2042
 1026TIP3    H124569   0.125   0.834  11.796 -4.2117  1.5289  0.9428
 1026TIP3    H224570   0.212   0.853  11.919  0.7243  0.3363 -2.1171
 1027TIP3   OH224571   4.002   4.051   3.111 -0.3491 -0.3228  0.1311
 1027TIP3    H124572   3.950   4.040   3.191 -0.3589 -2.2062 -0.0883
 1027TIP3    H224573   4.090   4.073   3.142 -0.9730  1.8904  0.5335
 1028TIP3   OH224574   1.313   2.241  10.933 -0.0003 -0.4732 -0.0315
 1028TIP3    H124575   1.280   2.199  10.854  0.3130 -0.5795 -0.1100
 1028TIP3    H224576   1.371   2.310  10.900 -1.4444  0.8295  0.0756
 1029TIP3   OH224577   0.166   0.679   5.352 -0.2324  0.5511  0.4185
 1029TIP3    H124578   0.174   0.711   5.262 -1.1503  0.2207  0.2161
 1029TIP3    H224579   0.254   0.688   5.388  0.6764 -1.3861 -1.1871
 1030TIP3   OH224580   1.565   2.910   0.466 -0.4662 -0.4520  0.2272
 1030TIP3    H124581   1.491   2.922   0.524 -0.6603  0.0101 -0.1067
 1030TIP3    H224582   1.555   2.821   0.431 -0.1235 -0.8837  1.1954
 1031TIP3   OH224583   4.296   5.317  11.206 -0.3310  0.1761  0.0837
 1031TIP3    H124584   4.300   5.353  11.118 -0.6405  0.4782  0.1886
 1031TIP3    H224585   4.288   5.394  11.263  2.2257  0.1746  0.5778
 1032TIP3   OH224586   3.218   5.178   5.207  0.2160 -0.0258 -0.3572
 1032TIP3    H124587   3.275   5.254   5.218 -0.8761  0.6404  0.9923
 1032TIP3    H224588   3.151   5.206   5.144 -1.8700  1.2325  2.2402
 1033TIP3   OH224589   0.310   0.297   4.716 -0.2701  0.4488  0.2018
 1033TIP3    H124590   0.252   0.236   4.670  1.9058 -0.7008 -1.2523
 1033TIP3    H224591   0.306   0.270   4.808 -1.1083 -0.3796 -0.0670
 1034TIP3   OH224592   1.309   4.229  15.582  0.0224  0.0617  0.2889
 1034TIP3    H124593   1.386   4.275  15.616  0.5085  0.8522 -1.7667
 1034TIP3    H224594   1.238   4.293  15.589 -0.2922 -0.3663  1.3413
 1035TIP3   OH224595   1.115   1.632   5.571  0.2029  0.6253  0.0779
 1035TIP3    H124596   1.194   1.644   5.624 -0.5569 -0.7895  1.6265
 1035TIP3    H224597   1.066   1.563   5.616 -0.8414 -0.1557 -2.1181
 1036TIP3   OH224598   0.139   6.349   6.373 -0.0186  0.0747 -0.1450
 1036TIP3    H124599   0.067   6.393   6.419 -1.9159 -3.2184  0.3274
 1036TIP3    H224600   0.217   6.399   6.399 -1.8166  2.4051  1.2065
 1037TIP3   OH224601   2.495   5.233  14.540  0.1149 -0.5483  0.1070
 1037TIP3    H124602   2.574   5.249  14.488 -0.6502 -2.0503 -1.6355
 1037TIP3    H224603   2.470   5.143  14.519 -0.7631 -0.9082  2.4545
 1038TIP3   OH224604   2.632   4.073  15.260 -0.3882  0.1417  0.4139
 1038TIP3    H124605   2.704   4.077  15.197 -1.1062  0.3009 -0.4145
 1038TIP3    H224606   2.555   4.051  15.207 -0.7500 -1.2272  1.4461
 1039TIP3   OH224607   0.816   4.316  11.895 -0.0587  0.1075  0.2772
 1039TIP3    H124608   0.867   4.243  11.931 -0.7923 -0.6446 -0.1952
 1039TIP3    H224609   0.787   4.365  11.972  1.7967  0.8603  0.5484
 1040TIP3   OH224610   1.389   6.558   0.165 -0.4860 -0.2086  0.0719
 1040TIP3    H124611   1.382   6.473   0.123  1.1604  0.0233 -0.7634
 1040TIP3    H224612   1.335   6.616   0.110 -1.9037 -0.7560  0.8530
 1041TIP3   OH224613   4.254   3.428   4.111  0.4028 -0.2250  0.4621
 1041TIP3    H124614   4.269   3.452   4.019  0.7433  1.9564  1.0355
 1041TIP3    H224615   4.158   3.424   4.119  0.3762 -1.1027 -0.1217
 1042TIP3   OH224616   2.549   4.981  14.410 -0.2683  0.0913  0.1493
 1042TIP3    H124617   2.581   4.904  14.363 -1.0079  0.7130 -1.4473
 1042TIP3    H224618   2.614   4.997  14.478  0.8919 -0.7943 -0.7224
 1043TIP3   OH224619   1.938   4.124  13.699 -0.0950  0.0965  0.2162
 1043TIP3    H124620   1.892   4.202  13.729 -0.6847  0.8671 -2.4425
 1043TIP3    H224621   2.019   4.158  13.660  0.2792 -0.7427  0.2508
 1044TIP3   OH224622   2.062   4.776   0.520 -0.2449  0.4254 -0.1196
 1044TIP3    H124623   2.070   4.727   0.439 -0.4230 -0.8917  0.6260
 1044TIP3    H224624   1.974   4.754   0.553 -0.5903  1.7759 -0.0943
 1045TIP3   OH224625   4.441   2.210  13.839  0.0325 -0.0277  0.6181
 1045TIP3    H124626   4.498   2.172  13.772  1.3631  0.4294  1.4485
 1045TIP3    H224627   4.414   2.135  13.893  0.9485 -0.0931  1.0054
 1046TIP3   OH224628   5.871   0.890  11.444 -0.2606 -0.0225 -0.4948
 1046TIP3    H124629   5.803   0.916  11.507  1.5068  0.5493  1.2747
 1046TIP3    H224630   5.840   0.807  11.408 -1.4909 -0.2199  0.9172
 1047TIP3   OH224631   2.970   4.650   3.911  0.9807  0.4595 -0.5750
 1047TIP3    H124632   3.021   4.621   3.835  0.2076 -1.1645 -0.5255
 1047TIP3    H224633   3.026   4.630   3.986  0.2535 -1.6007 -0.4984
 1048TIP3   OH224634   6.551   3.704  11.770  0.2512 -0.2144 -0.1726
 1048TIP3    H124635   6.599   3.748  11.840  1.0670 -0.0097 -0.8554
 1048TIP3    H224636   6.462   3.739  11.776  0.3392 -0.1211  0.6863
 1049TIP3   OH224637   6.279   2.087  16.148 -0.1650  0.2628 -0.0826
 1049TIP3    H124638   6.214   2.154  16.127 -0.3601  0.2726  0.5252
 1049TIP3    H224639   6.226   2.009  16.166 -0.0307  0.3465  0.7053
 1050TIP3   OH224640   1.302   0.920  15.284  0.1386 -0.4145  0.2805
 1050TIP3    H124641   1.280   0.998  15.335  0.9833 -0.3696  0.5930
 1050TIP3    H224642   1.241   0.921  15.211 -1.7509 -0.9917  1.7552
 1051TIP3   OH224643   1.941   5.671   2.429 -0.6647  0.1201 -0.0923
 1051TIP3    H124644   1.895   5.597   2.390 -0.3455 -0.4474  0.5779
 1051TIP3    H224645   1.942   5.652   2.523 -0.1589  0.7354  0.0368
 1052TIP3   OH224646   5.929   5.406   1.914 -0.1564  0.2073 -0.3521
 1052TIP3    H124647   6.014   5.423   1.955  0.4743 -0.5079 -1.3442
 1052TIP3    H224648   5.945   5.336   1.852 -0.9216  1.6716 -2.3251
 1053TIP3   OH224649   3.485   0.115  14.252 -0.5604  0.0727  0.2509
 1053TIP3    H124650   3.508   0.027  14.282 -0.6545  0.7030  2.2657
 1053TIP3    H224651   3.511   0.173  14.323 -0.2166  1.7443 -1.1534
 1054TIP3   OH224652   3.671   2.453   3.259 -0.0371 -0.2038  0.7926
 1054TIP3    H124653   3.644   2.472   3.349  0.3143 -0.1790  0.8984
 1054TIP3    H224654   3.673   2.357   3.254 -1.5779 -0.2333  0.3308
 1055TIP3   OH224655   1.297   2.419  14.935  0.2399 -0.5306  0.0590
 1055TIP3    H124656   1.384   2.379  14.943  0.1927 -0.9040 -1.1324
 1055TIP3    H224657   1.313   2.507  14.904  0.1994 -0.5316  0.0351
 1056TIP3   OH224658   5.739   6.797  14.476 -1.0779  0.0654  0.3544
 1056TIP3    H124659   5.680   6.860  14.517 -0.3995  1.6497 -1.0123
 1056TIP3    H224660   5.819   6.800  14.528 -0.5726  1.3466 -0.4565
 1057TIP3   OH224661   3.169   0.902  16.387 -0.2913  0.3995 -0.0819
 1057TIP3    H124662   3.123   0.873  16.466 -1.4638  3.4186  0.4853
 1057TIP3    H224663   3.098   0.924  16.325  0.5005  1.1283 -0.7581
 1058TIP3   OH224664   4.038   5.941   0.197  0.0286 -0.0332  0.0894
 1058TIP3    H124665   4.123   5.977   0.173 -0.1664 -0.6174 -1.7024
 1058TIP3    H224666   4.049   5.908   0.286  1.0646  1.6856  0.6387
 1059TIP3   OH224667   3.931   3.290  10.455 -0.0905  0.4514 -0.7028
 1059TIP3    H124668   3.959   3.313  10.367 -0.7823  0.1315 -1.0107
 1059TIP3    H224669   3.981   3.211  10.476  1.6604  1.6898  0.0318
 1060TIP3   OH224670   4.332   2.719  15.711 -0.2030 -0.0874 -0.2868
 1060TIP3    H124671   4.416   2.674  15.719 -0.3318 -0.6159 -1.5776
 1060TIP3    H224672   4.270   2.666  15.761 -0.1105 -0.6924 -0.8003
 1061TIP3   OH224673   0.998   3.796  16.464 -0.7609  0.2323  0.2734
 1061TIP3    H124674   1.036   3.744  16.535 -1.4493  0.5285  0.8724
 1061TIP3    H224675   0.939   3.857  16.508 -3.6115 -1.6197 -0.7099
 1062TIP3   OH224676   3.138   1.775   2.919 -0.1032 -0.0212 -0.1652
 1062TIP3    H124677   3.160   1.846   2.859  0.0043  0.4581  0.4359
 1062TIP3    H224678   3.044   1.786   2.935 -0.4834 -1.0956 -1.4608
 1063TIP3   OH224679   3.805   0.602  15.203 -0.2714  0.1201 -0.0770
 1063TIP3    H124680   3.769   0.513  15.202  0.0328 -0.0023  0.1528
 1063TIP3    H224681   3.822   0.621  15.110 -0.1825 -0.1199 -0.1108
 1064TIP3   OH224682   3.723   4.410   3.191  0.0879  0.5615 -0.6428
 1064TIP3    H124683   3.767   4.385   3.272 -1.2362 -0.0445 -0.0834
 1064TIP3    H224684   3.745   4.341   3.129 -0.7835 -0.2093 -0.1045
 1065TIP3   OH224685   1.017   3.079  17.037  0.0910 -0.3507 -0.2148
 1065TIP3    H124686   1.084   3.131  17.083 -1.0826 -0.1870  1.4092
 1065TIP3    H224687   1.056   3.061  16.951  1.6693  0.8502  0.1862
 1066TIP3   OH224688   3.613   6.757   1.887 -0.0257  0.6913 -0.3973
 1066TIP3    H124689   3.658   6.755   1.803 -1.3851 -0.2755 -1.1312
 1066TIP3    H224690   3.598   6.666   1.910 -2.0173  0.9455 -0.4443
 1067TIP3   OH224691   4.385   1.725  12.373  0.9379 -0.6455  0.5175
 1067TIP3    H124692   4.479   1.740  12.386  0.6946  1.2022  0.4081
 1067TIP3    H224693   4.348   1.726  12.461  0.7159  1.2348  0.4512
 1068TIP3   OH224694   2.243   1.313  12.162 -0.6370  0.1404 -0.0096
 1068TIP3    H124695   2.207   1.272  12.240 -0.3374 -1.0658 -0.4882
 1068TIP3    H224696   2.218   1.405  12.170 -1.2190 -0.0996  1.1466
 1069TIP3   OH224697   1.110   1.575  10.936  0.0857 -0.2206 -0.0446
 1069TIP3    H124698   1.109   1.605  11.027  1.0668  1.8029 -0.6422
 1069TIP3    H224699   1.039   1.623  10.894 -0.6981 -1.5290 -0.2773
 1070TIP3   OH224700   2.883   3.748   4.515  0.4919  0.3879 -0.2764
 1070TIP3    H124701   2.884   3.841   4.539  0.1194  0.3102  0.0412
 1070TIP3    H224702   2.879   3.749   4.419  2.4814  0.6939 -0.3959
 1071TIP3   OH224703   2.872   1.721  11.365  0.3755  0.3040  0.3529
 1071TIP3    H124704   2.783   1.728  11.398  0.2591  0.2769  0.0450
 1071TIP3    H224705   2.918   1.796  11.402 -0.0988  1.0468 -0.5200
 1072TIP3   OH224706   3.834   6.369  12.155 -0.0746 -0.3869  0.2344
 1072TIP3    H124707   3.753   6.418  12.163 -0.8847 -1.3110 -1.6233
 1072TIP3    H224708   3.872   6.398  12.072  0.8812 -0.8393  0.4932
 1073TIP3   OH224709   3.042   2.161  11.036 -0.1550  0.4396  0.0893
 1073TIP3    H124710   3.064   2.170  10.944  2.7003  0.2167  0.6705
 1073TIP3    H224711   3.031   2.066  11.049  2.6215  0.0869  0.5180
 1074TIP3   OH224712   6.318   0.979  11.212 -0.1843  0.4373 -0.2153
 1074TIP3    H124713   6.254   0.926  11.163  2.2430 -1.0134 -2.0672
 1074TIP3    H224714   6.286   1.068  11.203 -1.8401 -0.2067 -1.2492
 1075TIP3   OH224715   4.770   3.218  12.351  0.0703  0.2944 -0.3721
 1075TIP3    H124716   4.737   3.305  12.326  1.4263  0.9492  0.0257
 1075TIP3    H224717   4.702   3.158  12.321 -1.7503  1.6046  0.9133
 1076TIP3   OH224718   4.762   0.012   4.822 -0.8317  0.0220 -0.4395
 1076TIP3    H124719   4.768  -0.077   4.857  2.0216 -0.0713 -0.9022
 1076TIP3    H224720   4.702   0.004   4.747 -2.4275 -0.9721  0.8711
 1077TIP3   OH224721   0.644   6.516  16.961  0.6126 -0.8243  0.6182
 1077TIP3    H124722   0.631   6.456  17.035 -1.0276  0.1547  1.1864
 1077TIP3    H224723   0.572   6.497  16.902  2.0521 -1.7667 -0.9082
 1078TIP3   OH224724   1.618   0.524   0.621  0.0850 -0.0260  0.4906
 1078TIP3    H124725   1.528   0.551   0.641 -0.9534 -1.6855 -1.5125
 1078TIP3    H224726   1.619   0.430   0.637  1.4231 -0.0556  0.2993
 1079TIP3   OH224727   3.854   4.473   0.957 -0.3848  0.0409  0.4895
 1079TIP3    H124728   3.777   4.499   1.006 -1.9372  1.7181 -2.5240
 1079TIP3    H224729   3.911   4.551   0.959  0.5156 -0.6217  1.3511
 1080TIP3   OH224730   5.701   0.337   4.025  0.3297 -0.3066 -0.0930
 1080TIP3    H124731   5.767   0.268   4.015  1.6423  0.7145  1.0760
 1080TIP3    H224732   5.648   0.310   4.099 -1.0832 -1.4802 -1.4683
 1081TIP3   OH224733   4.007   2.067  14.495  0.7774 -0.9006 -0.2535
 1081TIP3    H124734   3.920   2.094  14.464  0.9373  0.2064  0.2103
 1081TIP3    H224735   4.068   2.120  14.444  1.0446  0.9262  1.7953
 1082TIP3   OH224736   1.915   1.212   2.982  0.1772  0.3806  0.1068
 1082TIP3    H124737   1.947   1.128   2.951  0.9350  1.2512 -1.6192
 1082TIP3    H224738   1.823   1.214   2.955 -0.9462 -1.2665  3.2596
 1083TIP3   OH224739   5.306   0.072  13.843  0.5661  0.7312  0.1192
 1083TIP3    H124740   5.318   0.164  13.869  0.6841  0.9908 -0.8008
 1083TIP3    H224741   5.288   0.077  13.749 -1.8785  0.0112  0.4662
 1084TIP3   OH224742   6.510   3.787  14.096 -0.2703 -0.5302  0.3142
 1084TIP3    H124743   6.417   3.800  14.116  0.1479  0.7789  1.6267
 1084TIP3    H224744   6.538   3.871  14.059 -0.2500 -1.8675 -3.0911
 1085TIP3   OH224745   6.199   2.158  16.703  0.1485  0.3264  0.0492
 1085TIP3    H124746   6.208   2.141  16.609  2.3801  0.2508  0.2107
 1085TIP3    H224747   6.272   2.217  16.723  0.4337 -0.6091  1.9326
 1086TIP3   OH224748   6.525   1.845  11.324  0.3771 -0.0805  0.4623
 1086TIP3    H124749   6.573   1.866  11.244 -0.9694  0.3113 -0.2811
 1086TIP3    H224750   6.466   1.774  11.299  1.5581 -1.5824  1.7438
 1087TIP3   OH224751   2.792   6.018  16.547  0.0068  0.1152  0.2143
 1087TIP3    H124752   2.870   6.064  16.516 -0.5648  1.2005  0.3371
 1087TIP3    H224753   2.809   5.926  16.526  1.6648  0.2137  0.9722
 1088TIP3   OH224754   4.309   6.177   3.489  0.2898  0.2720  0.6447
 1088TIP3    H124755   4.306   6.130   3.405 -2.2642  0.3571  0.5958
 1088TIP3    H224756   4.309   6.107   3.555  2.4394  0.2027  0.6356
 1089TIP3   OH224757   2.575   5.711   3.862 -0.0029  0.2635  0.1077
 1089TIP3    H124758   2.531   5.788   3.899 -0.1065  0.3455 -0.1847
 1089TIP3    H224759   2.596   5.736   3.772 -0.0289 -0.0461  0.0136
 1090TIP3   OH224760   1.250   4.560  15.523  0.0417 -0.4142 -0.1803
 1090TIP3    H124761   1.268   4.590  15.434  0.1961  0.5776  0.1759
 1090TIP3    H224762   1.336   4.534  15.557  0.5701  2.2449  0.7588
 1091TIP3   OH224763   5.785   4.660  10.717  0.5014  0.0017 -0.1399
 1091TIP3    H124764   5.863   4.618  10.680  0.9483  0.6843 -0.0036
 1091TIP3    H224765   5.758   4.602  10.788  0.1623 -0.8594 -0.9539
 1092TIP3   OH224766   3.937   2.146   0.811 -0.1103 -0.2894  0.1902
 1092TIP3    H124767   3.884   2.068   0.793 -0.3477 -0.0668 -0.0987
 1092TIP3    H224768   4.026   2.120   0.789 -0.0993 -0.6602  0.6512
 1093TIP3   OH224769   0.074   4.664   5.627  1.4062  0.3462 -0.2832
 1093TIP3    H124770   0.079   4.680   5.721 -0.1963  0.7944 -0.2375
 1093TIP3    H224771   0.018   4.587   5.618  0.7884  0.8482 -0.8894
 1094TIP3   OH224772   0.874   2.850  16.596  0.1055  0.6372 -0.0259
 1094TIP3    H124773   0.928   2.816  16.668  0.1691  1.2739  0.2340
 1094TIP3    H224774   0.934   2.854  16.521  0.1219  0.2813 -0.0347
 1095TIP3   OH224775   1.496   1.242   5.692  0.0767  0.1813  0.1677
 1095TIP3    H124776   1.509   1.298   5.768  1.2998 -0.6878  0.6300
 1095TIP3    H224777   1.450   1.165   5.726 -0.9749  0.5672 -0.3315
 1096TIP3   OH224778   4.972   3.554  14.766 -0.2187  0.1673 -0.4074
 1096TIP3    H124779   5.038   3.494  14.733 -0.2614  0.1249 -0.4158
 1096TIP3    H224780   4.890   3.504  14.764 -0.2419  0.2024 -0.3475
 1097TIP3   OH224781   2.136   6.605   1.526  0.2333 -0.0337 -0.3952
 1097TIP3    H124782   2.136   6.561   1.611 -0.7714 -0.6413 -0.7008
 1097TIP3    H224783   2.175   6.691   1.544 -0.0181 -0.1330  0.6844
 1098TIP3   OH224784   5.225   4.236   3.270 -0.1843 -0.1883 -0.0430
 1098TIP3    H124785   5.238   4.141   3.266  0.2865 -0.1440  0.2867
 1098TIP3    H224786   5.279   4.271   3.200  1.5703 -0.0034  1.3241
 1099TIP3   OH224787   6.200   5.710  15.978 -0.3615 -0.0828  0.5749
 1099TIP3    H124788   6.283   5.676  15.946  1.3200  1.5643  2.8285
 1099TIP3    H224789   6.168   5.643  16.039  0.8077  0.4308  1.8160
 1100TIP3   OH224790   3.809   2.277  12.263 -0.5372 -0.0648  0.0911
 1100TIP3    H124791   3.724   2.239  12.283 -1.0206  1.1298  0.4341
 1100TIP3    H224792   3.789   2.365  12.232  0.4725 -0.4013 -1.6521
 1101TIP3   OH224793   1.732   6.293   2.993  0.0418 -0.2532  0.0148
 1101TIP3    H124794   1.733   6.244   2.911  0.7257  0.1311 -0.2144
 1101TIP3    H224795   1.817   6.277   3.032  0.6132  1.3737 -0.4567
 1102TIP3   OH224796   3.207   3.744  15.708  0.1020  0.0326 -0.6117
 1102TIP3    H124797   3.285   3.696  15.682 -1.0190 -1.4422 -1.4080
 1102TIP3    H224798   3.166   3.770  15.626 -0.7254 -0.0043 -0.2207
 1103TIP3   OH224799   1.940   1.013  16.797  0.1475  0.2707 -0.5493
 1103TIP3    H124800   1.932   1.097  16.842 -0.7882  0.9291 -1.8859
 1103TIP3    H224801   2.016   1.023  16.740  1.1673 -0.4681  0.6321
 1104TIP3   OH224802   1.622   0.131  12.841 -0.3658  0.1074 -0.8663
 1104TIP3    H124803   1.648   0.209  12.793 -5.5259  2.6802 -0.2654
 1104TIP3    H224804   1.668   0.138  12.925 -2.0064  3.8666 -0.0462
 1105TIP3   OH224805   0.217   2.988   3.824  0.0653  0.1599 -0.3948
 1105TIP3    H124806   0.309   2.963   3.837 -0.1512 -2.2337 -2.6476
 1105TIP3    H224807   0.171   2.951   3.899  0.8391  1.0140  0.5341
 1106TIP3   OH224808   5.196   1.849   3.826 -0.2920  0.0950 -0.6927
 1106TIP3    H124809   5.279   1.807   3.847  1.3185  2.9045 -1.0039
 1106TIP3    H224810   5.181   1.828   3.734 -0.8802 -1.7946 -0.2269
 1107TIP3   OH224811   4.135   4.173   4.834 -0.4329  0.4048  0.0593
 1107TIP3    H124812   4.069   4.218   4.781 -0.0205  1.5157  0.4523
 1107TIP3    H224813   4.095   4.164   4.920 -0.9907 -1.1368 -0.3367
 1108TIP3   OH224814   5.802   2.286  14.623  0.0734  0.6229  0.3022
 1108TIP3    H124815   5.855   2.206  14.635  1.8819  1.6671 -0.3322
 1108TIP3    H224816   5.737   2.262  14.557 -1.0423 -1.0272  1.8894
 1109TIP3   OH224817   6.479   6.059  12.038  0.5058  0.3586  0.3050
 1109TIP3    H124818   6.564   6.028  12.070 -0.2191 -0.2484  1.7314
 1109TIP3    H224819   6.429   5.979  12.021  0.4886  0.6933 -1.3563
 1110TIP3   OH224820   2.546   5.610   4.409  0.0590  0.6342 -0.0135
 1110TIP3    H124821   2.564   5.607   4.503  0.6060  2.4690 -0.0294
 1110TIP3    H224822   2.451   5.601   4.403  0.1431 -1.0753  0.5777
 1111TIP3   OH224823   2.108   3.710  11.271  0.5889 -0.0913 -0.3870
 1111TIP3    H124824   2.182   3.770  11.277  0.1342  0.4327  0.1692
 1111TIP3    H224825   2.134   3.646  11.205  1.0663  0.7495 -1.0470
 1112TIP3   OH224826   3.379   4.506  15.691 -0.2915  0.6933  0.3474
 1112TIP3    H124827   3.383   4.593  15.731  1.1836  0.5376  0.5881
 1112TIP3    H224828   3.324   4.519  15.613 -1.2330  1.5185  1.1042
 1113TIP3   OH224829   5.771   0.431  10.957 -0.3378 -0.3162  0.4711
 1113TIP3    H124830   5.780   0.521  10.991 -0.7824 -0.9015  2.2353
 1113TIP3    H224831   5.710   0.440  10.884  0.5793  0.9891 -0.1853
 1114TIP3   OH224832   2.353   3.731  16.994 -0.4806  0.3214 -0.0265
 1114TIP3    H124833   2.401   3.748  16.913 -0.3126  0.6215  0.1324
 1114TIP3    H224834   2.419   3.697  17.055 -0.4882  0.6406  0.1605
 1115TIP3   OH224835   3.142   3.435   5.557 -0.6333  0.0021  0.0107
 1115TIP3    H124836   3.184   3.398   5.634  0.0001 -0.5138 -0.5644
 1115TIP3    H224837   3.080   3.498   5.591  1.4894  1.7501  0.8904
 1116TIP3   OH224838   6.519   5.186   1.349  0.3534  0.1962  0.5847
 1116TIP3    H124839   6.612   5.189   1.327 -0.0084 -1.7711 -1.5065
 1116TIP3    H224840   6.513   5.116   1.414  0.4097  0.8720  1.3331
 1117TIP3   OH224841   6.652   2.041   4.747  0.3482 -0.2769  0.3310
 1117TIP3    H124842   6.748   2.046   4.742  0.2155  1.2165 -1.5982
 1117TIP3    H224843   6.636   1.967   4.807  2.6780 -0.9279  0.2776
 1118TIP3   OH224844   5.211   2.180   5.132  0.3040 -0.0219 -0.2448
 1118TIP3    H124845   5.256   2.175   5.217  0.9247 -0.1135 -0.5715
 1118TIP3    H224846   5.120   2.159   5.152 -0.0594  2.1784  0.7954
 1119TIP3   OH224847   0.037   2.562   5.685 -0.3700  0.1891  0.3882
 1119TIP3    H124848  -0.017   2.596   5.756 -2.0385  0.6067 -1.0099
 1119TIP3    H224849   0.013   2.469   5.679  0.9033 -0.2236  1.3276
 1120TIP3   OH224850   5.171   2.077   5.990 -0.0993 -0.3622  0.2747
 1120TIP3    H124851   5.243   2.131   5.954  0.0983  1.0967  2.6311
 1120TIP3    H224852   5.209   2.035   6.067 -1.3801 -0.6692  0.7653
 1121TIP3   OH224853   6.211   3.689  14.810  0.2155  0.6797 -0.0885
 1121TIP3    H124854   6.305   3.699  14.802  0.2299  0.0042 -0.9370
 1121TIP3    H224855   6.194   3.694  14.904  1.2474 -0.3710  0.1759
 1122TIP3   OH224856   0.584   3.905   4.904  0.1933 -0.3431 -0.2563
 1122TIP3    H124857   0.575   3.876   4.813 -1.5848  0.0755 -0.2587
 1122TIP3    H224858   0.506   3.871   4.947 -1.6538  3.6138 -0.0582
 1123TIP3   OH224859   3.040   5.328   4.770 -0.0171 -0.4327  0.1323
 1123TIP3    H124860   3.063   5.243   4.731 -0.5736 -0.5945  0.1494
 1123TIP3    H224861   2.986   5.307   4.845 -1.2967 -0.0275 -0.6468
 1124TIP3   OH224862   3.654   4.332  14.716 -0.3852  0.0309 -0.6514
 1124TIP3    H124863   3.712   4.300  14.786 -1.7872  1.3295  1.2113
 1124TIP3    H224864   3.698   4.307  14.635  2.1492 -0.1373  0.6742
 1125TIP3   OH224865   6.152   2.917   3.927  0.1474 -0.4651  0.3400
 1125TIP3    H124866   6.161   2.826   3.954 -0.1431 -0.4538  0.4817
 1125TIP3    H224867   6.113   2.961   4.002  2.1124  0.2046  1.0338
 1126TIP3   OH224868   5.468   3.188  11.431 -0.3521 -0.3597  0.1323
 1126TIP3    H124869   5.411   3.203  11.507 -1.1716  0.5542 -0.6406
 1126TIP3    H224870   5.409   3.167  11.360  0.0195  2.4144 -1.1520
 1127TIP3   OH224871   4.667   1.389   2.054 -0.0764  0.3843 -0.8097
 1127TIP3    H124872   4.675   1.304   2.009 -1.6132 -3.5958  5.2366
 1127TIP3    H224873   4.745   1.393   2.109 -1.8834  0.6961  1.9061
 1128TIP3   OH224874   4.439   4.486   1.194 -0.1248 -0.1389 -0.3554
 1128TIP3    H124875   4.370   4.428   1.226 -2.4907  2.0944 -1.0851
 1128TIP3    H224876   4.488   4.509   1.273 -0.5747 -1.2907  0.2959
 1129TIP3   OH224877   3.692   4.491  12.771 -0.1988  0.4995  0.0647
 1129TIP3    H124878   3.646   4.542  12.704  1.1993  1.1203 -0.4623
 1129TIP3    H224879   3.737   4.557  12.823 -2.6257  0.1971  2.7866
 1130TIP3   OH224880   6.795   0.945  15.854 -0.3203 -0.4663 -0.4399
 1130TIP3    H124881   6.858   0.875  15.873  1.2341  0.6166 -1.2947
 1130TIP3    H224882   6.743   0.911  15.781 -1.1154 -1.5821  0.6136
 1131TIP3   OH224883   5.611   1.323   2.228 -0.2448  0.3135 -0.3462
 1131TIP3    H124884   5.666   1.371   2.165 -0.2620  0.2692 -0.3952
 1131TIP3    H224885   5.652   1.341   2.313  1.4477 -1.8272 -0.6159
 1132TIP3   OH224886   4.495   5.261  16.980 -0.1772 -0.6496  0.0042
 1132TIP3    H124887   4.534   5.325  17.040 -0.7887  0.4610 -0.7603
 1132TIP3    H224888   4.493   5.180  17.030  0.6292 -0.0818  0.9941
 1133TIP3   OH224889   4.922   1.615  16.639 -0.2005 -0.3501  0.3767
 1133TIP3    H124890   4.846   1.626  16.582 -0.5011 -0.0670  0.8227
 1133TIP3    H224891   4.994   1.590  16.580 -1.2625 -3.5258  0.2018
 1134TIP3   OH224892   0.752   6.401  13.731 -0.2137 -0.0639 -0.1992
 1134TIP3    H124893   0.693   6.410  13.806 -0.2613  0.9526 -0.3498
 1134TIP3    H224894   0.835   6.373  13.768 -1.0020 -2.4389 -0.0648
 1135TIP3   OH224895   6.540   4.584  12.617  0.0979  0.0851 -0.4595
 1135TIP3    H124896   6.557   4.674  12.589 -0.3935  0.2888 -0.1183
 1135TIP3    H224897   6.564   4.582  12.709 -2.5846  0.6618  0.3271
 1136TIP3   OH224898   4.955   1.356  15.602 -0.2631  0.0629 -0.1942
 1136TIP3    H124899   4.867   1.346  15.638 -0.1583  0.7521  0.2776
 1136TIP3    H224900   4.958   1.295  15.528 -1.4876  0.7328 -0.8430
 1137TIP3   OH224901   1.087   1.769  15.861  0.2522  0.0768  0.1956
 1137TIP3    H124902   1.168   1.727  15.830 -0.1219 -1.2918  1.0332
 1137TIP3    H224903   1.102   1.862  15.845  2.1525 -0.1068  0.6667
 1138TIP3   OH224904   2.498   2.509  12.845  0.1946 -0.7274  0.2550
 1138TIP3    H124905   2.468   2.524  12.934  0.1578  0.7548  0.0243
 1138TIP3    H224906   2.420   2.523  12.791 -0.1244 -2.9974  0.0555
 1139TIP3   OH224907   6.037   4.226   3.694  0.6579  0.6673 -0.3251
 1139TIP3    H124908   6.041   4.286   3.768  0.8161  1.6422 -1.0983
 1139TIP3    H224909   6.106   4.257   3.635 -1.4727  1.8970 -2.3210
 1140TIP3   OH224910   1.976   3.827  16.572 -0.5838 -0.0675  0.4103
 1140TIP3    H124911   1.989   3.771  16.495 -0.6409 -1.0323  1.0882
 1140TIP3    H224912   1.935   3.906  16.537  0.6018  0.0766 -0.7427
 1141TIP3   OH224913   3.269   2.500  11.503 -0.8903 -0.5458 -0.0457
 1141TIP3    H124914   3.330   2.500  11.578 -0.6888  0.1411 -0.2029
 1141TIP3    H224915   3.322   2.531  11.430 -1.3458 -0.2825 -0.2636
 1142TIP3   OH224916   6.555   5.825  10.262 -0.4169  0.1030  0.4429
 1142TIP3    H124917   6.597   5.746  10.228 -0.6268 -0.4728  1.4855
 1142TIP3    H224918   6.518   5.867  10.185  0.0686 -0.5848 -0.1854
 1143TIP3   OH224919   2.586   1.233   0.800  0.5036  0.1101 -0.5433
 1143TIP3    H124920   2.616   1.303   0.858  2.0339 -0.4988 -0.5652
 1143TIP3    H224921   2.492   1.227   0.816  0.4218  1.8536 -0.2027
 1144TIP3   OH224922   3.153   5.317  10.419 -0.8592  0.0330 -0.1897
 1144TIP3    H124923   3.203   5.342  10.341 -0.6117 -0.1294 -0.0854
 1144TIP3    H224924   3.069   5.286  10.385 -0.9961  0.5678 -0.3515
 1145TIP3   OH224925   4.453   2.023   2.264  0.3614 -0.1295  0.0662
 1145TIP3    H124926   4.536   2.070   2.277  0.5216 -0.2938 -0.3694
 1145TIP3    H224927   4.452   1.958   2.334  0.4835  0.0311  0.2215
 1146TIP3   OH224928   0.336   3.001   1.859  0.0473 -0.1515 -0.4943
 1146TIP3    H124929   0.265   3.063   1.840 -0.0869  0.5815  2.0710
 1146TIP3    H224930   0.415   3.054   1.859  0.3760 -0.6221 -1.4997
 1147TIP3   OH224931   4.514   2.954   1.013 -0.1347 -0.6278  0.0655
 1147TIP3    H124932   4.492   2.869   0.976 -2.0857  0.6560 -2.0024
 1147TIP3    H224933   4.462   2.959   1.094 -1.1887 -0.8378 -0.5799
 1148TIP3   OH224934   1.233   1.449   4.721 -0.4389  0.6845  0.2390
 1148TIP3    H124935   1.291   1.467   4.795 -0.1901  1.2893 -0.1021
 1148TIP3    H224936   1.158   1.507   4.735 -1.3535 -0.6386  1.0963
 1149TIP3   OH224937   0.479   0.095  13.780  0.5541  0.4995 -0.0556
 1149TIP3    H124938   0.465   0.184  13.813 -0.8135  0.8829 -1.5294
 1149TIP3    H224939   0.427   0.039  13.838  1.0645  0.7121  0.6100
 1150TIP3   OH224940   1.512   3.724  10.398  0.7921  0.3649  0.3554
 1150TIP3    H124941   1.466   3.642  10.380  1.9978 -0.1631 -0.4519
 1150TIP3    H224942   1.604   3.699  10.406  1.2945  1.7167 -0.7001
 1151TIP3   OH224943   1.722   4.111  10.410 -0.7883  0.1101  0.1476
 1151TIP3    H124944   1.773   4.133  10.488 -0.7259  0.2990  0.0534
 1151TIP3    H224945   1.716   4.193  10.361 -1.3620  0.1358  0.2564
 1152TIP3   OH224946   1.026   4.747  13.461  0.1579  0.1260 -0.4453
 1152TIP3    H124947   0.986   4.832  13.478 -1.7054 -0.9497  0.8107
 1152TIP3    H224948   0.954   4.684  13.464  1.3432 -1.4421 -2.1935
 1153TIP3   OH224949   3.510   1.776  15.207 -0.1297 -0.1761  0.2304
 1153TIP3    H124950   3.532   1.818  15.290 -0.1517  0.5226 -0.1011
 1153TIP3    H224951   3.425   1.734  15.223  0.2780 -0.7898  0.8026
 1154TIP3   OH224952   0.535   4.927   2.894 -0.3154 -0.0922  0.5733
 1154TIP3    H124953   0.570   4.838   2.895  1.8877  0.6473 -1.3877
 1154TIP3    H224954   0.489   4.934   2.810 -0.5377  0.6068  0.7404
 1155TIP3   OH224955   6.651   4.759  14.390 -0.2357  0.2869 -0.4246
 1155TIP3    H124956   6.736   4.803  14.387  0.0655 -0.3247 -1.8702
 1155TIP3    H224957   6.592   4.816  14.342 -0.2413 -0.0832 -0.8614
 1156TIP3   OH224958   0.199   6.682  12.458 -0.0476 -0.2005 -0.7628
 1156TIP3    H124959   0.286   6.720  12.443 -0.4890  0.6597 -1.1959
 1156TIP3    H224960   0.217   6.593  12.490  0.9860 -0.2663 -1.4765
 1157TIP3   OH224961   4.563   2.195  14.939 -0.0599  0.6183  0.1069
 1157TIP3    H124962   4.479   2.225  14.906  0.2746  0.8131 -0.5713
 1157TIP3    H224963   4.563   2.101  14.923 -0.6104  0.4183  1.1491
 1158TIP3   OH224964   0.507   5.215  16.177 -0.3258  0.1093  0.3487
 1158TIP3    H124965   0.530   5.123  16.170 -1.8406 -0.2173 -1.3929
 1158TIP3    H224966   0.467   5.224  16.263 -2.7135 -1.5866 -0.4662
 1159TIP3   OH224967   2.937   5.231  12.590  0.2302  0.2805 -0.1567
 1159TIP3    H124968   3.013   5.219  12.534 -0.3120  2.8807 -1.5986
 1159TIP3    H224969   2.862   5.213  12.534 -0.2854  1.9395 -0.0725
 1160TIP3   OH224970   4.784   0.572   1.403  0.2426  0.1189  0.0420
 1160TIP3    H124971   4.861   0.594   1.351 -1.1566  2.2187 -1.3381
 1160TIP3    H224972   4.802   0.610   1.489  1.2761 -0.6175  0.1732
 1161TIP3   OH224973   6.239   5.247  16.257  0.1636  0.3084  0.1176
 1161TIP3    H124974   6.159   5.251  16.205 -0.7567 -1.0147  1.3707
 1161TIP3    H224975   6.214   5.202  16.337  2.2901 -0.5903  0.3419
 1162TIP3   OH224976   5.254   2.337  16.953  0.3499  0.0231  0.2228
 1162TIP3    H124977   5.219   2.307  17.037 -0.4024 -0.9769 -0.4366
 1162TIP3    H224978   5.193   2.304  16.888  1.5816 -0.2780 -0.8272
 1163TIP3   OH224979   3.923   4.520  15.506 -0.0102 -0.3572  0.1878
 1163TIP3    H124980   4.003   4.550  15.463  0.8368 -0.2812  1.7680
 1163TIP3    H224981   3.867   4.492  15.434  1.1130  0.3463 -1.0036
 1164TIP3   OH224982   3.364   5.113  15.565  0.2626 -0.0801  0.3768
 1164TIP3    H124983   3.399   5.139  15.479 -0.6192  1.2959  0.4071
 1164TIP3    H224984   3.442   5.105  15.621  0.8354 -0.8484 -0.4877
 1165TIP3   OH224985   0.149   2.527   1.174  0.0833 -0.3625  0.1241
 1165TIP3    H124986   0.056   2.524   1.151 -0.4125 -1.2222  2.0285
 1165TIP3    H224987   0.158   2.606   1.227  0.6821  0.2828 -0.9122
 1166TIP3   OH224988   5.932   4.820  17.127  0.2135  0.0440  0.0165
 1166TIP3    H124989   5.903   4.858  17.209  1.8569  0.2660  0.5211
 1166TIP3    H224990   5.964   4.732  17.151 -0.0333 -0.1967 -0.5148
 1167TIP3   OH224991   2.963   5.741   2.266 -0.7322 -0.4592  0.0158
 1167TIP3    H124992   2.928   5.829   2.255 -1.7103 -0.7646  0.4909
 1167TIP3    H224993   2.904   5.686   2.215  0.0099 -0.8148 -0.4667
 1168TIP3   OH224994   1.039   2.013  10.714 -0.1729  0.2282  0.1275
 1168TIP3    H124995   0.950   2.012  10.749 -0.6354  3.1715 -0.6672
 1168TIP3    H224996   1.039   2.087  10.652  1.9951 -1.5550 -2.2005
 1169TIP3   OH224997   0.808   0.675  15.861 -0.0322  0.4238  0.4375
 1169TIP3    H124998   0.803   0.760  15.905  2.0645  1.4588 -1.1477
 1169TIP3    H224999   0.856   0.692  15.780  1.0669 -2.3996  0.3686
 1170TIP3   OH225000   0.257   6.165  12.019  0.5867  0.3347  0.0272
 1170TIP3    H125001   0.299   6.079  12.018  1.2434  0.6452 -1.0963
 1170TIP3    H225002   0.324   6.224  12.053 -0.1290  0.2923  1.5605
 1171TIP3   OH225003   0.816   5.986   4.880 -0.2781 -0.0060 -0.0125
 1171TIP3    H125004   0.748   5.921   4.899 -1.4247  1.3539  0.7886
 1171TIP3    H225005   0.770   6.070   4.884  1.5460  1.0120  1.0048
 1172TIP3   OH225006   3.427   3.291   4.078  0.4613  0.0137  0.0382
 1172TIP3    H125007   3.460   3.287   3.988  0.6311 -1.2014  0.1319
 1172TIP3    H225008   3.481   3.227   4.126  0.5493  0.8269  1.0669
 1173TIP3   OH225009   0.169   2.452  12.464  0.3765  0.1324 -0.1685
 1173TIP3    H125010   0.142   2.524  12.408 -0.6582 -0.2748 -0.2155
 1173TIP3    H225011   0.216   2.493  12.536 -2.1490  1.1282  1.0304
 1174TIP3   OH225012   4.212   2.904   2.660  0.0680  0.0131  0.1072
 1174TIP3    H125013   4.261   2.841   2.712 -0.6045 -1.0644 -0.5346
 1174TIP3    H225014   4.193   2.976   2.721  1.7287  0.1048  0.5737
 1175TIP3   OH225015   4.369   1.553   4.384  0.0551 -0.0866  0.2828
 1175TIP3    H125016   4.361   1.647   4.403  0.9099 -0.2134  1.3531
 1175TIP3    H225017   4.452   1.527   4.424  0.0561 -1.2100 -0.4013
 1176TIP3   OH225018   4.859   3.466   5.353  0.0949  0.4826  0.3391
 1176TIP3    H125019   4.848   3.371   5.349  0.8443  0.4063 -0.2819
 1176TIP3    H225020   4.954   3.478   5.352  0.1044  1.1580  3.0083
 1177TIP3   OH225021   4.559   1.279   4.182 -0.4176  0.1629 -0.6829
 1177TIP3    H125022   4.487   1.242   4.233 -0.4883 -0.4792 -1.2302
 1177TIP3    H225023   4.637   1.260   4.234 -0.7509  2.3446  0.7583
 1178TIP3   OH225024   4.712   4.793   3.089 -0.3171  0.4285  0.2787
 1178TIP3    H125025   4.686   4.873   3.044  0.4772  0.5762  0.0718
 1178TIP3    H225026   4.797   4.813   3.127  0.8171 -0.9097 -1.4062
 1179TIP3   OH225027   6.287   2.134   2.264 -0.1980 -0.0020  0.4097
 1179TIP3    H125028   6.349   2.206   2.258 -1.1910  0.8984  0.7144
 1179TIP3    H225029   6.231   2.142   2.187  0.9633 -1.7137 -0.6785
 1180TIP3   OH225030   6.745   5.522   4.465  0.2418 -0.2699  0.4448
 1180TIP3    H125031   6.665   5.470   4.475 -0.3588  0.5463 -0.0669
 1180TIP3    H225032   6.716   5.613   4.472  0.5343  0.2291 -3.1172
 1181TIP3   OH225033   6.338   5.064   1.644  0.1712 -0.1250  0.5420
 1181TIP3    H125034   6.419   5.115   1.656  0.4853 -0.7222  1.0110
 1181TIP3    H225035   6.360   4.999   1.578 -0.2536  0.3839 -0.1100
 1182TIP3   OH225036   1.500   0.545  12.909 -0.8272  0.0338  0.2214
 1182TIP3    H125037   1.443   0.485  12.863  0.7648 -1.5372  0.1960
 1182TIP3    H225038   1.461   0.554  12.996 -2.5814  1.2052 -0.6332
 1183TIP3   OH225039   3.597   3.490  10.240 -0.3854 -0.7292 -0.1702
 1183TIP3    H125040   3.612   3.446  10.324  0.3817 -1.2302 -0.5496
 1183TIP3    H225041   3.539   3.432  10.192  0.6607 -1.3923 -0.6873
 1184TIP3   OH225042   2.630   1.309  10.536  0.4788  0.1038  0.2093
 1184TIP3    H125043   2.714   1.292  10.492  0.8828 -0.2400  1.0929
 1184TIP3    H225044   2.624   1.241  10.603  0.5244  1.4074  1.5803
 1185TIP3   OH225045   4.830   0.345   2.437  0.1198 -0.3512 -0.3448
 1185TIP3    H125046   4.914   0.313   2.467  0.3825  0.4656 -0.1900
 1185TIP3    H225047   4.843   0.439   2.424 -0.4260 -0.4183 -1.4912
 1186TIP3   OH225048   1.667   3.438  12.634 -0.4576 -0.0737  0.1878
 1186TIP3    H125049   1.757   3.415  12.610 -0.3101 -0.5864  1.1904
 1186TIP3    H225050   1.614   3.402  12.563  0.1028 -0.0108 -0.2709
 1187TIP3   OH225051   1.295   4.632  15.266 -0.0575 -0.0906 -0.0279
 1187TIP3    H125052   1.306   4.726  15.278 -0.6606 -0.2229  1.8443
 1187TIP3    H225053   1.363   4.608  15.203  1.4205  1.2838  0.9568
 1188TIP3   OH225054   1.361   3.030  16.554 -0.5077 -0.2560 -0.3730
 1188TIP3    H125055   1.296   3.080  16.505 -1.9702 -2.4879 -0.8687
 1188TIP3    H225056   1.424   3.002  16.488 -1.7965 -2.2037 -0.8709
 1189TIP3   OH225057   5.522   1.698   0.923 -0.4418 -0.3773  0.3932
 1189TIP3    H125058   5.525   1.602   0.928  3.0398 -0.3641  1.0689
 1189TIP3    H225059   5.539   1.727   1.012  1.8076  0.7385 -0.3082
 1190TIP3   OH225060   3.220   2.631  13.502  0.7469  0.0326  0.4021
 1190TIP3    H125061   3.303   2.655  13.542  1.0653 -1.1618  0.4903
 1190TIP3    H225062   3.167   2.597  13.574  0.1907  0.7226  0.3363
 1191TIP3   OH225063   6.407   2.848   3.391  0.7964  0.1648  0.0729
 1191TIP3    H125064   6.341   2.874   3.455 -1.3241 -4.0295 -0.0892
 1191TIP3    H225065   6.473   2.802   3.443  1.6626  1.0132 -0.2454
 1192TIP3   OH225066   1.738   1.021  13.380 -0.1397  0.1379 -0.5001
 1192TIP3    H125067   1.792   1.100  13.381  0.3675 -0.1871 -1.2080
 1192TIP3    H225068   1.751   0.982  13.467 -0.2970  0.7644 -0.1936
 1193TIP3   OH225069   0.724   5.159  11.248  0.0794 -0.1845  0.3224
 1193TIP3    H125070   0.675   5.077  11.241 -1.1942  0.3413  2.1798
 1193TIP3    H225071   0.735   5.188  11.158  0.3669 -2.2690 -0.3545
 1194TIP3   OH225072   4.785   2.709   3.708  0.0706 -0.2098 -0.2412
 1194TIP3    H125073   4.863   2.658   3.686  0.2356  0.3863 -1.1381
 1194TIP3    H225074   4.712   2.656   3.676  0.2768  0.3648 -1.7492
 1195TIP3   OH225075   5.717   3.556  16.098 -0.1864 -0.4814  0.6228
 1195TIP3    H125076   5.677   3.479  16.139  0.4069 -0.5026  1.1883
 1195TIP3    H225077   5.811   3.540  16.106 -0.0626  0.2188  0.5762
 1196TIP3   OH225078   0.046   3.914   1.090 -0.1008  0.1531  0.3054
 1196TIP3    H125079   0.000   3.980   1.039  0.2692  0.7774  0.7669
 1196TIP3    H225080   0.139   3.926   1.068  0.0102  0.0784  0.7090
 1197TIP3   OH225081   6.821   4.299  10.881 -0.5211  0.6949  0.0681
 1197TIP3    H125082   6.814   4.203  10.875 -1.6846  0.8118 -0.6395
 1197TIP3    H225083   6.764   4.323  10.954  1.8453  0.6641  2.0949
 1198TIP3   OH225084   4.852   0.061   0.716 -0.0664 -0.6273 -0.4693
 1198TIP3    H125085   4.904  -0.004   0.667  2.9015  0.4962  0.9270
 1198TIP3    H225086   4.868   0.039   0.808 -2.0655 -0.1226  0.0337
 1199TIP3   OH225087   5.021   5.816  10.626  0.0827 -0.2917 -0.2538
 1199TIP3    H125088   4.992   5.877  10.559 -0.2178 -1.2391 -1.0049
 1199TIP3    H225089   4.952   5.750  10.630 -0.3737  0.2258  1.6508
 1200TIP3   OH225090   1.815   4.202  15.762  0.5447  0.3122  0.1441
 1200TIP3    H125091   1.896   4.159  15.789  0.5015  0.5746  0.7115
 1200TIP3    H225092   1.823   4.212  15.667  0.6514 -0.7316  0.0353
 1201TIP3   OH225093   6.222   4.609  14.594 -0.0864 -0.0137 -0.5951
 1201TIP3    H125094   6.191   4.586  14.506  1.6383  0.4732 -1.3662
 1201TIP3    H225095   6.216   4.705  14.597 -1.2151 -0.0860  0.2676
 1202TIP3   OH225096   1.365   1.580  14.865 -0.6969 -0.2742  0.6075
 1202TIP3    H125097   1.372   1.541  14.778 -0.7548  0.5495  0.2142
 1202TIP3    H225098   1.455   1.597  14.892 -0.7189  1.4991 -0.2742
 1203TIP3   OH225099   1.549   1.922  15.381 -0.2674 -0.2723  0.1519
 1203TIP3    H125100   1.515   1.838  15.350 -0.4419 -0.2464  0.2730
 1203TIP3    H225101   1.611   1.949  15.314 -1.8958  0.6138 -1.0784
 1204TIP3   OH225102   0.389   5.212  11.783  0.2067 -0.0446 -0.1635
 1204TIP3    H125103   0.465   5.176  11.829  0.1938  1.1788  0.8492
 1204TIP3    H225104   0.399   5.307  11.790  1.0448  0.3204 -4.0672
 1205TIP3   OH225105   3.593   1.294  16.755  0.6156 -0.4615 -0.0954
 1205TIP3    H125106   3.592   1.321  16.847 -0.5388  1.0621 -0.5155
 1205TIP3    H225107   3.507   1.256  16.739  1.7295 -3.2346  0.0984
 1206TIP3   OH225108   6.740   5.025  12.321  0.2465  0.6239  0.0900
 1206TIP3    H125109   6.702   5.110  12.298  0.8033  1.3108  1.5890
 1206TIP3    H225110   6.759   4.984  12.236  0.1326  2.0597 -0.6644
 1207TIP3   OH225111   4.154   2.595   1.048  0.1044  0.4698 -0.6513
 1207TIP3    H125112   4.171   2.585   0.954  1.7076  0.4366 -0.3856
 1207TIP3    H225113   4.217   2.537   1.090 -0.3853  0.7242  0.4623
 1208TIP3   OH225114   2.723   2.155  15.533  0.1679  0.1307 -0.1428
 1208TIP3    H125115   2.682   2.079  15.574 -0.1061  1.1016  1.4655
 1208TIP3    H225116   2.724   2.222  15.601  3.1417  0.6380 -0.5357
 1209TIP3   OH225117   2.045   3.720   0.725  0.1311  0.0703  0.2395
 1209TIP3    H125118   2.051   3.791   0.789  0.2217 -0.1268  0.4517
 1209TIP3    H225119   2.060   3.640   0.776 -1.3660 -0.2290  0.2826
 1210TIP3   OH225120   5.554   4.493  10.096 -0.2203  0.6197 -1.1917
 1210TIP3    H125121   5.566   4.583  10.068 -1.9643  0.8741 -1.2087
 1210TIP3    H225122   5.643   4.457  10.100  0.4172  1.9901 -2.2885
 1211TIP3   OH225123   4.818   4.481  10.898 -0.0858  0.3215 -0.3046
 1211TIP3    H125124   4.912   4.489  10.914 -0.1738  1.1894 -0.1453
 1211TIP3    H225125   4.789   4.415  10.961  0.3969  0.1458 -0.2636
 1212TIP3   OH225126   6.605   2.972  12.704 -0.5596  0.0380 -0.3332
 1212TIP3    H125127   6.671   3.013  12.648 -2.8877  0.5497 -2.9057
 1212TIP3    H225128   6.578   2.894  12.655 -0.1194 -1.6038  1.8925
 1213TIP3   OH225129   3.600   4.243   1.516  0.1149 -0.6806 -0.1579
 1213TIP3    H125130   3.533   4.176   1.534  0.3758 -1.5754 -2.2608
 1213TIP3    H225131   3.550   4.321   1.494 -0.2281 -0.9252 -0.2626
 1214TIP3   OH225132   1.415   4.556  12.973 -0.0041  0.5900  0.0947
 1214TIP3    H125133   1.479   4.625  12.952 -0.9802  1.3048 -0.5908
 1214TIP3    H225134   1.398   4.568  13.067  2.0468 -0.6535  0.7092
 1215TIP3   OH225135   1.495   0.722  12.300 -0.1067  0.6784  0.2965
 1215TIP3    H125136   1.472   0.735  12.208  2.3359 -0.7684 -0.6053
 1215TIP3    H225137   1.463   0.801  12.344  1.2720  2.8520 -2.2999
 1216TIP3   OH225138   1.587   2.276   3.830 -0.3700  0.4248  0.7154
 1216TIP3    H125139   1.589   2.216   3.904  0.9290 -2.7245 -1.6351
 1216TIP3    H225140   1.530   2.233   3.766 -0.3616  2.3226 -0.6525
 1217TIP3   OH225141   2.002   1.774  13.609 -0.7864 -0.3405  0.0263
 1217TIP3    H125142   2.020   1.761  13.702  1.8058 -1.8219 -0.5951
 1217TIP3    H225143   2.012   1.687  13.571 -2.7785  0.0475 -1.5514
 1218TIP3   OH225144   0.559   5.738   4.670 -0.5032 -0.0203 -0.2441
 1218TIP3    H125145   0.610   5.728   4.750  1.3585  2.0503 -1.0886
 1218TIP3    H225146   0.533   5.830   4.669 -0.6571 -0.0442 -1.9103
 1219TIP3   OH225147   6.219   1.452   1.940  0.6868 -0.2771 -0.6678
 1219TIP3    H125148   6.209   1.522   2.005  0.9742 -0.9221  0.0757
 1219TIP3    H225149   6.135   1.450   1.895  0.6148  0.4340 -0.5808
 1220TIP3   OH225150   3.360   1.189  13.038 -0.0128  0.4560 -0.2829
 1220TIP3    H125151   3.288   1.154  13.090 -0.0099  0.4993 -0.2506
 1220TIP3    H225152   3.332   1.175  12.947  0.2231 -0.1270 -0.2747
 1221TIP3   OH225153   1.285   4.320  16.335  0.4084 -0.1502 -0.7976
 1221TIP3    H125154   1.320   4.241  16.294 -0.3790 -0.9179 -0.0456
 1221TIP3    H225155   1.212   4.288  16.388  0.3722  1.0338 -0.1159
 1222TIP3   OH225156   3.980   6.461   0.180 -0.0878  0.0234 -0.0757
 1222TIP3    H125157   3.983   6.551   0.149  1.4224  0.6694  1.7753
 1222TIP3    H225158   3.892   6.451   0.216 -0.5658  0.4432 -1.0754
 1223TIP3   OH225159   5.696   1.455  16.669 -0.2705 -0.3370 -0.4111
 1223TIP3    H125160   5.723   1.410  16.749  2.2238  1.4088 -0.1838
 1223TIP3    H225161   5.741   1.408  16.599 -0.5250 -0.3727 -0.5525
 1224TIP3   OH225162   2.072   0.148   1.769  0.2724 -0.0244 -0.0940
 1224TIP3    H125163   2.004   0.216   1.765 -0.5832 -0.8788 -0.4435
 1224TIP3    H225164   2.105   0.142   1.679  0.5040  0.0820 -0.0163
 1225TIP3   OH225165   1.732   4.205  14.106 -0.2493  0.4930  0.3131
 1225TIP3    H125166   1.799   4.194  14.173 -0.3953 -2.3701  0.1086
 1225TIP3    H225167   1.673   4.131  14.119 -1.1135  0.6966 -2.0468
 1226TIP3   OH225168   3.801   4.479  15.743  0.5191  0.0726  0.1623
 1226TIP3    H125169   3.825   4.504  15.653 -0.9272 -1.9358 -0.8408
 1226TIP3    H225170   3.879   4.436  15.777  0.2278 -1.5886 -1.1460
 1227TIP3   OH225171   6.458   1.073  13.022 -0.3871 -0.1496  0.0240
 1227TIP3    H125172   6.389   1.139  13.013 -0.3461 -0.1505 -0.3060
 1227TIP3    H225173   6.511   1.083  12.943 -0.2011 -0.3729  0.1196
 1228TIP3   OH225174   5.169   1.412  12.728  0.2091 -0.2061 -0.5342
 1228TIP3    H125175   5.204   1.368  12.651  1.8558  0.0977 -0.0028
 1228TIP3    H225176   5.102   1.352  12.762  0.4371 -0.9725 -1.4085
 1229TIP3   OH225177   0.768   5.892  12.803 -0.3852  0.2686 -0.5096
 1229TIP3    H125178   0.694   5.910  12.861  0.6096  0.5652  0.7328
 1229TIP3    H225179   0.817   5.823  12.849  1.0800  1.3505 -0.3860
 1230TIP3   OH225180   5.007   6.477  10.564 -0.8132  0.1709 -1.0862
 1230TIP3    H125181   5.079   6.516  10.515 -0.7911 -0.1313 -1.2979
 1230TIP3    H225182   4.930   6.491  10.509 -0.8822  0.3070 -0.9580
 1231TIP3   OH225183   3.257   6.162  11.663 -0.0558 -0.3758  0.7019
 1231TIP3    H125184   3.211   6.081  11.643  0.8480 -0.8063  0.3241
 1231TIP3    H225185   3.307   6.143  11.743  1.9074 -0.9266 -0.6044
 1232TIP3   OH225186   0.742   4.193  11.489  0.4784  0.3200  0.0163
 1232TIP3    H125187   0.826   4.235  11.505  0.4968  0.1249  0.4637
 1232TIP3    H225188   0.721   4.215  11.398  2.2517 -1.7349 -1.0049
 1233TIP3   OH225189   1.575   1.911  12.926  0.0357 -0.0127  0.3766
 1233TIP3    H125190   1.494   1.861  12.926 -0.8543  1.3702 -1.2572
 1233TIP3    H225191   1.560   1.982  12.988 -0.1270  0.4122 -0.1420
 1234TIP3   OH225192   1.043   3.584   0.629  0.5065 -0.1951 -0.3483
 1234TIP3    H125193   1.113   3.631   0.675  0.3066 -1.8181  1.7443
 1234TIP3    H225194   0.980   3.563   0.697 -0.5567 -1.4093 -1.6539
 1235TIP3   OH225195   6.033   3.309  14.826 -0.2625 -0.3675  0.2832
 1235TIP3    H125196   6.023   3.305  14.731 -0.6038  2.7042  0.1017
 1235TIP3    H225197   6.058   3.399  14.844 -0.4860 -0.7828  3.1637
 1236TIP3   OH225198   1.662   1.070   6.245  0.2103 -0.1626 -0.9149
 1236TIP3    H125199   1.688   1.124   6.171  0.1064 -0.1275 -0.9257
 1236TIP3    H225200   1.569   1.051   6.230 -1.0844  3.4139  1.3788
 1237TIP3   OH225201   6.655   0.480  13.995  0.2005 -0.0773  0.1370
 1237TIP3    H125202   6.595   0.409  13.972  0.9516 -0.3405 -1.1113
 1237TIP3    H225203   6.609   0.560  13.970  1.2041 -0.3699 -3.0592
 1238TIP3   OH225204   0.484   0.222  16.185 -0.2081  0.7489 -0.4663
 1238TIP3    H125205   0.447   0.296  16.234 -1.0427  0.8740 -1.2623
 1238TIP3    H225206   0.429   0.215  16.107 -0.6467 -1.2419 -0.0099
 1239TIP3   OH225207   2.775   2.282   5.874  0.0998 -0.6664  0.1643
 1239TIP3    H125208   2.696   2.235   5.901 -0.5468 -0.0974 -0.6604
 1239TIP3    H225209   2.847   2.222   5.893 -0.3751 -0.6731  2.2006
 1240TIP3   OH225210   4.247   3.034   4.138  0.2141  0.9191  0.0104
 1240TIP3    H125211   4.230   3.086   4.060  0.4340  0.5083 -0.3164
 1240TIP3    H225212   4.311   3.085   4.188 -0.6509  1.6434  0.4042
 1241TIP3   OH225213   5.432   1.268   4.080  0.2213 -0.0077  0.4055
 1241TIP3    H125214   5.443   1.227   3.994 -1.9791  0.9359 -0.3992
 1241TIP3    H225215   5.486   1.347   4.076  1.6349 -0.9272  0.6388
 1242TIP3   OH225216   1.885   2.793  12.754  0.2534  0.7964 -0.0449
 1242TIP3    H125217   1.976   2.788  12.725  0.0187  3.1555 -1.4561
 1242TIP3    H225218   1.887   2.849  12.832  0.0740  0.1602  0.4315
 1243TIP3   OH225219   2.577   1.207  13.018  0.5712 -0.5133 -0.0648
 1243TIP3    H125220   2.529   1.288  13.000  0.1493  0.1265  3.2969
 1243TIP3    H225221   2.522   1.138  12.982 -0.3525  0.5276 -0.7097
 1244TIP3   OH225222   3.382   6.676  14.857  0.8085  0.1899 -0.1265
 1244TIP3    H125223   3.415   6.657  14.945  0.1882 -1.4882 -0.2188
 1244TIP3    H225224   3.446   6.635  14.798  1.4175  1.6158 -0.5012
 1245TIP3   OH225225   4.199   1.257  12.178  0.7256  0.0600 -0.1890
 1245TIP3    H125226   4.208   1.351  12.161  0.9817  0.2700  1.0227
 1245TIP3    H225227   4.275   1.217  12.137  0.5235  0.3596 -0.8607
 1246TIP3   OH225228   3.911   4.840  16.071  0.3192 -0.5435 -0.7114
 1246TIP3    H125229   3.888   4.764  16.124  2.7152 -1.6456 -1.1570
 1246TIP3    H225230   3.956   4.898  16.132 -1.9213  0.8498 -0.2505
 1247TIP3   OH225231   2.739   3.654   4.245  0.2500  0.6252  0.0357
 1247TIP3    H125232   2.659   3.707   4.249 -0.0181  0.2007  0.4354
 1247TIP3    H225233   2.774   3.670   4.157 -2.1920 -1.9104 -1.6179
 1248TIP3   OH225234   3.772   5.144  12.639 -0.4600  0.0081 -0.2868
 1248TIP3    H125235   3.759   5.080  12.710  2.6408  0.6062  0.9746
 1248TIP3    H225236   3.729   5.224  12.672 -1.3505 -0.4340 -0.3304
 1249TIP3   OH225237   6.822   0.620  10.591 -0.0196 -0.0706  0.2086
 1249TIP3    H125238   6.758   0.684  10.621  1.6900  2.1808 -0.7349
 1249TIP3    H225239   6.893   0.626  10.655  1.0193  0.4391 -0.9603
 1250TIP3   OH225240   1.455   1.858   0.773  0.3202 -0.1309  0.7114
 1250TIP3    H125241   1.401   1.780   0.764 -0.8213  0.6040  1.0099
 1250TIP3    H225242   1.527   1.845   0.712 -0.6270 -0.7713 -0.3018
 1251TIP3   OH225243   0.163   4.193   4.577  0.1955 -0.4503 -0.4878
 1251TIP3    H125244   0.167   4.273   4.629  1.3158 -0.7687 -0.0567
 1251TIP3    H225245   0.133   4.222   4.491  1.4771  0.6087 -0.6208
 1252TIP3   OH225246   3.475   2.439   2.758 -0.4482  0.3449  0.2085
 1252TIP3    H125247   3.556   2.389   2.756  0.9916  2.4757 -2.1261
 1252TIP3    H225248   3.501   2.526   2.789 -2.1126  0.7391  0.6381
 1253TIP3   OH225249   2.290   0.393  14.938  0.1428 -0.5450  0.2046
 1253TIP3    H125250   2.299   0.297  14.939  2.3443 -0.3942  1.7777
 1253TIP3    H225251   2.379   0.425  14.925 -0.1736  1.2892  2.0783
 1254TIP3   OH225252   1.247   5.930  15.288  0.5278  0.0476 -0.4211
 1254TIP3    H125253   1.186   6.001  15.271  0.4258  0.2526  0.7658
 1254TIP3    H225254   1.202   5.872  15.349  1.4830  0.1739  0.4371
 1255TIP3   OH225255   6.268   3.153   1.473  0.4995  0.3889 -0.1281
 1255TIP3    H125256   6.295   3.181   1.385  1.0534 -0.2761 -0.1790
 1255TIP3    H225257   6.288   3.060   1.475 -1.7767 -0.1344 -0.1407
 1256TIP3   OH225258   5.486   6.806   5.283 -0.3732  0.3555  0.0269
 1256TIP3    H125259   5.477   6.901   5.278 -1.1403  0.3270  0.7379
 1256TIP3    H225260   5.569   6.787   5.239 -0.7051  1.2529 -1.0185
 1257TIP3   OH225261   3.797   3.409  11.625 -0.0928 -0.2252  0.4654
 1257TIP3    H125262   3.706   3.399  11.653  0.1264 -0.3806  1.1346
 1257TIP3    H225263   3.791   3.425  11.531 -0.9711  2.5646  0.9127
 1258TIP3   OH225264   3.944   6.813   1.275 -0.5769 -0.2867  0.1020
 1258TIP3    H125265   4.009   6.883   1.273 -1.1513  0.2336 -1.9983
 1258TIP3    H225266   3.992   6.734   1.248  0.2821 -1.0128  3.2878
 1259TIP3   OH225267   2.707   3.149   0.048 -0.1930 -0.2742 -0.2095
 1259TIP3    H125268   2.696   3.063   0.088  0.5279 -0.7719 -1.0274
 1259TIP3    H225269   2.675   3.211   0.113  2.0410 -0.9396  1.6639
 1260TIP3   OH225270   3.385   1.066  16.191 -0.3612 -0.0722  0.3222
 1260TIP3    H125271   3.335   1.078  16.272  0.7467 -0.5359  1.1112
 1260TIP3    H225272   3.383   1.151  16.148  0.6991  0.7771  1.8499
 1261TIP3   OH225273   2.337   3.736  14.760 -0.2149 -0.0016  0.0355
 1261TIP3    H125274   2.407   3.740  14.826 -0.8219  0.2856  0.6753
 1261TIP3    H225275   2.278   3.668  14.793 -1.1202  0.9379  0.3991
 1262TIP3   OH225276   6.382   6.059  16.438  0.8900 -0.1788  0.3566
 1262TIP3    H125277   6.361   6.151  16.454  2.4747  0.1635  0.6151
 1262TIP3    H225278   6.344   6.041  16.352 -1.4090  0.0323  1.2446
 1263TIP3   OH225279   3.446   0.001   2.090  0.5350  0.3199 -0.5620
 1263TIP3    H125280   3.505  -0.012   2.016  1.6375  0.9374  0.1751
 1263TIP3    H225281   3.497  -0.023   2.167 -1.0430 -1.7144 -0.0411
 1264TIP3   OH225282   1.360   0.161   2.359 -0.2762  0.1000  0.2009
 1264TIP3    H125283   1.327   0.178   2.447 -1.7647  1.4877 -0.5857
 1264TIP3    H225284   1.287   0.121   2.312  0.1185  0.4125 -0.7257
 1265TIP3   OH225285   3.920   0.958  13.128 -0.0487 -0.1978  0.0313
 1265TIP3    H125286   3.945   0.974  13.037 -1.2899  1.8017 -0.0231
 1265TIP3    H225287   3.835   0.915  13.123  0.4248 -1.1811  0.2577
 1266TIP3   OH225288   0.727   2.941   3.238 -0.4362 -0.0280  0.5436
 1266TIP3    H125289   0.800   2.952   3.299  0.5590 -0.2053 -0.5630
 1266TIP3    H225290   0.694   2.853   3.255  0.3284 -0.3661  0.3157
 1267TIP3   OH225291   2.357   2.350  15.277 -0.3962 -0.0567  0.7690
 1267TIP3    H125292   2.307   2.359  15.196  0.6227  0.4171  0.1836
 1267TIP3    H225293   2.362   2.255  15.291  1.7641 -0.3202 -1.2439
 1268TIP3   OH225294   3.077   6.671  16.364  0.0601 -0.6411 -0.1399
 1268TIP3    H125295   2.992   6.688  16.321  0.9549  2.6045 -0.9353
 1268TIP3    H225296   3.088   6.744  16.425  1.4175 -2.1139  1.4840
 1269TIP3   OH225297   2.562   1.830   1.852 -0.4411  0.0176 -0.1798
 1269TIP3    H125298   2.558   1.914   1.898  3.5651 -0.2415  1.0277
 1269TIP3    H225299   2.574   1.765   1.922  1.2181 -0.9382 -1.2760
 1270TIP3   OH225300   0.500   3.918  13.087  0.0454  0.0926 -0.6888
 1270TIP3    H125301   0.484   3.922  13.181 -0.1979 -0.2549 -0.7126
 1270TIP3    H225302   0.517   4.008  13.061  1.5079  0.0298 -0.0706
 1271TIP3   OH225303   2.404   4.272  11.253  0.0962 -0.0822 -0.0658
 1271TIP3    H125304   2.438   4.299  11.167 -0.3857  0.9215  0.0337
 1271TIP3    H225305   2.309   4.268  11.240  0.0060  0.2810  0.4669
 1272TIP3   OH225306   1.966   3.458  14.394 -0.0123  0.2168  0.1958
 1272TIP3    H125307   1.978   3.508  14.313  0.4336  0.6046  0.4921
 1272TIP3    H225308   1.878   3.482  14.425 -0.3051 -0.1671 -0.3257
 1273TIP3   OH225309   6.169   6.507  10.483  0.6149 -0.0587  0.0082
 1273TIP3    H125310   6.185   6.580  10.543  0.6524  0.5610 -0.7472
 1273TIP3    H225311   6.165   6.430  10.540  0.4922  0.5369  0.8256
 1274TIP3   OH225312   2.913   5.918  15.098  0.2104  0.2460  0.2860
 1274TIP3    H125313   2.908   5.823  15.086  0.1980  0.2249  0.4565
 1274TIP3    H225314   3.003   5.933  15.127  0.0683  0.2322  0.7352
 1275TIP3   OH225315   6.016   6.324  12.697 -0.5252 -0.5583  0.6341
 1275TIP3    H125316   6.029   6.415  12.724 -1.1290 -0.4410  0.5246
 1275TIP3    H225317   6.087   6.276  12.741 -0.3388 -0.0708  0.8680
 1276TIP3   OH225318   3.464   3.031  13.685  0.0516  0.1391 -0.1552
 1276TIP3    H125319   3.486   3.007  13.774 -0.5149  1.3512  0.3284
 1276TIP3    H225320   3.431   2.949  13.646  0.8567 -0.5335  0.5463
 1277TIP3   OH225321   4.013   3.683  10.190  0.2502 -0.2027 -0.3427
 1277TIP3    H125322   3.946   3.735  10.234 -0.6498 -0.8408 -0.9164
 1277TIP3    H225323   3.963   3.617  10.140  1.2943 -0.5309 -0.9800
 1278TIP3   OH225324   4.174   4.781  14.623  0.0464  0.0845  0.3478
 1278TIP3    H125325   4.236   4.770  14.695 -0.1987 -1.0604  0.4044
 1278TIP3    H225326   4.097   4.731  14.650 -0.1594 -0.1181 -0.5822
 1279TIP3   OH225327   1.583   2.971   0.174  0.6073  0.2741 -0.2221
 1279TIP3    H125328   1.579   2.984   0.268  1.0097  3.6886 -0.5473
 1279TIP3    H225329   1.638   2.894   0.162 -0.6638 -1.1320  2.3123
 1280TIP3   OH225330   5.011   1.676  14.015 -0.1432  0.1470  0.0969
 1280TIP3    H125331   5.084   1.691  14.075 -0.6914 -0.4288  0.9211
 1280TIP3    H225332   5.049   1.627  13.942  0.3385  0.0426  0.4144
 1281TIP3   OH225333   1.980   5.011   4.653  0.3170 -0.1534  0.4037
 1281TIP3    H125334   1.893   5.026   4.615 -0.0792  0.9880  1.6877
 1281TIP3    H225335   1.964   4.956   4.730  1.0146 -1.7234 -0.5167
 1282TIP3   OH225336   2.676   4.999  11.674 -0.4442 -0.7308 -0.5053
 1282TIP3    H125337   2.770   4.982  11.667 -0.4254 -1.5454  1.2594
 1282TIP3    H225338   2.667   5.091  11.650  1.2871  0.3209  2.3690
 1283TIP3   OH225339   0.207   4.142   4.261  0.2373  0.0819 -0.0465
 1283TIP3    H125340   0.268   4.198   4.212  0.2507 -1.3297 -1.7840
 1283TIP3    H225341   0.132   4.198   4.279  0.0073  0.5818 -2.2277
 1284TIP3   OH225342   0.858   3.425  15.633 -0.0289 -0.5903  0.5322
 1284TIP3    H125343   0.868   3.454  15.724  0.5736  0.6697  0.0800
 1284TIP3    H225344   0.790   3.482  15.597  2.6419  1.9350 -0.9880
 1285TIP3   OH225345   3.144   0.906  14.359 -0.3439 -0.5958 -0.1201
 1285TIP3    H125346   3.164   0.993  14.392 -1.1953 -0.4978  0.1673
 1285TIP3    H225347   3.211   0.850  14.396  2.0642  0.3582 -2.6667
 1286TIP3   OH225348   6.373   0.775  12.870 -0.0311  0.1731 -0.2633
 1286TIP3    H125349   6.418   0.744  12.791 -0.2407 -0.3536 -0.1838
 1286TIP3    H225350   6.360   0.868  12.856  0.7098  0.2524 -0.4736
 1287TIP3   OH225351   5.794   3.635  14.533  0.5636  0.1406 -0.1113
 1287TIP3    H125352   5.739   3.616  14.457 -0.6136 -0.1042  0.7598
 1287TIP3    H225353   5.771   3.568  14.597  2.1007 -0.1251  0.1972
 1288TIP3   OH225354   2.193   2.893   0.530  0.0980 -0.1734 -0.1133
 1288TIP3    H125355   2.237   2.829   0.475 -0.3520  0.3306 -1.0726
 1288TIP3    H225356   2.099   2.880   0.514  0.0067  1.0615 -0.7303
 1289TIP3   OH225357   3.795   2.682   2.738 -0.1780 -0.3790  0.1798
 1289TIP3    H125358   3.729   2.713   2.676 -0.9520 -2.9010 -0.3601
 1289TIP3    H225359   3.763   2.713   2.823  0.7840  2.9345 -0.4913
 1290TIP3   OH225360   1.359   4.476   3.353  0.3450 -0.7884  0.7342
 1290TIP3    H125361   1.335   4.551   3.407 -1.3744 -1.6595  1.2573
 1290TIP3    H225362   1.288   4.468   3.290  0.5925 -1.8666  0.5682
 1291TIP3   OH225363   3.008   6.687   2.576  0.0057  0.0111  0.0862
 1291TIP3    H125364   2.974   6.694   2.487  0.9515 -2.0261 -0.4831
 1291TIP3    H225365   2.939   6.723   2.632 -1.4819 -0.5934 -1.3017
 1292TIP3   OH225366   0.469   0.338   1.330  0.3049 -0.5454 -0.1017
 1292TIP3    H125367   0.416   0.310   1.256  1.9862 -0.8543 -1.2280
 1292TIP3    H225368   0.463   0.265   1.392  1.1478 -1.5550 -1.1612
 1293TIP3   OH225369   2.355   6.174  14.359  0.6008  0.5406 -0.2040
 1293TIP3    H125370   2.408   6.097  14.377  1.2840  1.6418  3.1038
 1293TIP3    H225371   2.265   6.145  14.372  0.6349 -0.2690 -1.5662
 1294TIP3   OH225372   0.257   2.218   2.355 -0.0255 -0.2288 -0.1084
 1294TIP3    H125373   0.324   2.176   2.410 -0.6003 -0.6151  0.3092
 1294TIP3    H225374   0.305   2.283   2.305  1.1234 -2.0946 -1.6012
 1295TIP3   OH225375   3.999   0.343  15.482 -0.3373  0.3919 -0.1294
 1295TIP3    H125376   3.924   0.336  15.422 -0.4429 -1.2056  0.1515
 1295TIP3    H225377   3.976   0.287  15.556 -0.4091  2.6698  1.6790
 1296TIP3   OH225378   4.162   2.056   3.035  0.3876 -0.7137  0.0794
 1296TIP3    H125379   4.092   2.120   3.049 -0.9844 -2.4693  1.7787
 1296TIP3    H225380   4.138   2.012   2.953 -0.2122 -0.9306  0.3666
 1297TIP3   OH225381   5.617   5.588  11.897 -0.1022 -0.3696  0.6237
 1297TIP3    H125382   5.678   5.583  11.970  1.3216 -0.6136 -0.5482
 1297TIP3    H225383   5.604   5.682  11.884  0.0658 -0.3173  0.8217
 1298TIP3   OH225384   6.195   2.266  12.000  0.6379  0.3459  0.0167
 1298TIP3    H125385   6.234   2.332  12.057  0.1126 -1.1557  2.2542
 1298TIP3    H225386   6.264   2.248  11.935  1.5864  1.5353  0.6415
 1299TIP3   OH225387   0.077   1.418  10.490 -0.3868 -0.1934 -0.0517
 1299TIP3    H125388   0.025   1.445  10.415 -0.9330 -0.2102  0.3143
 1299TIP3    H225389   0.114   1.500  10.524 -2.5666  0.2809  1.4480
 1300TIP3   OH225390   1.888   6.202  16.861 -0.8863 -0.4329 -0.2505
 1300TIP3    H125391   1.848   6.253  16.931  2.0973  3.2925 -0.9217
 1300TIP3    H225392   1.888   6.261  16.785  0.7291 -2.3364 -1.8569
 1301TIP3   OH225393   1.881   5.156  12.437  0.5066 -0.4768  0.0479
 1301TIP3    H125394   1.908   5.070  12.470 -1.3933 -0.4106  1.9453
 1301TIP3    H225395   1.888   5.214  12.512  0.5092  0.7489 -0.8788
 1302TIP3   OH225396   0.704   1.183   4.766  0.6333 -0.0387  0.2014
 1302TIP3    H125397   0.622   1.227   4.743 -0.4677 -1.8418  0.5138
 1302TIP3    H225398   0.722   1.125   4.692 -0.2270 -2.1411  1.5509
 1303TIP3   OH225399   3.325   5.761   5.463 -0.1994  0.3925  0.3950
 1303TIP3    H125400   3.338   5.671   5.493  2.3218  0.6877  0.3361
 1303TIP3    H225401   3.290   5.806   5.540 -0.4411 -0.3902  0.7579
 1304TIP3   OH225402   1.085   2.931  14.479 -0.4357 -0.2251  0.2899
 1304TIP3    H125403   1.137   2.943  14.400  1.9302  1.8295  1.9661
 1304TIP3    H225404   1.149   2.930  14.550 -2.3909 -2.4743  2.2224
 1305TIP3   OH225405   1.067   1.151   1.857  0.0059  0.2918  0.5234
 1305TIP3    H125406   1.129   1.149   1.930  0.4346  0.9115  0.1912
 1305TIP3    H225407   1.114   1.199   1.788 -0.8004  0.6715  0.2296
 1306TIP3   OH225408   5.535   3.822  15.102 -0.0410  0.2410 -0.3860
 1306TIP3    H125409   5.441   3.821  15.118  0.0363 -0.5383  0.0622
 1306TIP3    H225410   5.567   3.899  15.149 -0.2430 -0.3450  0.7398
 1307TIP3   OH225411   1.689   0.043   0.872 -0.4637  0.4559 -0.0084
 1307TIP3    H125412   1.607   0.083   0.900 -1.3082 -2.1360  1.5205
 1307TIP3    H225413   1.664  -0.044   0.839  1.5438  0.0312 -0.5716
 1308TIP3   OH225414   1.606   3.245   4.927  1.0051  0.1416  0.1636
 1308TIP3    H125415   1.528   3.274   4.881  1.8832  0.4074 -1.1933
 1308TIP3    H225416   1.592   3.273   5.018 -1.9716 -2.7282  0.7848
 1309TIP3   OH225417   5.067   5.858  11.628 -0.4029  0.2061  0.2335
 1309TIP3    H125418   5.080   5.838  11.535  2.1019  0.7372  0.4013
 1309TIP3    H225419   5.110   5.942  11.640 -1.4567  0.5593  1.7225
 1310TIP3   OH225420   4.583   0.289   1.983  0.1077 -0.2386  0.1679
 1310TIP3    H125421   4.545   0.321   2.065 -0.4990  1.2264 -0.6326
 1310TIP3    H225422   4.533   0.211   1.962  0.7937 -1.0970  1.5710
 1311TIP3   OH225423   2.157   4.503  13.018  0.3288 -0.4264 -0.3353
 1311TIP3    H125424   2.164   4.447  12.941  1.7898 -0.3777 -0.2533
 1311TIP3    H225425   2.063   4.502  13.039 -0.4278  0.9674 -3.1444
 1312TIP3   OH225426   2.705   3.245  14.958  0.0288  0.7059  0.1435
 1312TIP3    H125427   2.628   3.260  15.013  0.9719 -1.7950  2.3753
 1312TIP3    H225428   2.676   3.180  14.894  0.0540  0.4570  0.3863
 1313TIP3   OH225429   4.889   6.221   4.665  0.5838 -0.6724 -0.3036
 1313TIP3    H125430   4.833   6.296   4.645  0.2888 -1.1656 -1.4569
 1313TIP3    H225431   4.977   6.258   4.668  0.4259 -0.2398 -0.7026
 1314TIP3   OH225432   3.135   3.967  13.250 -0.1034 -0.0650 -0.1175
 1314TIP3    H125433   3.064   3.975  13.314  0.7311  0.8386  0.7298
 1314TIP3    H225434   3.162   4.057  13.233  0.4875 -0.3715 -0.8341
 1315TIP3   OH225435   5.890   5.454  16.611 -0.4538 -0.0601 -0.2185
 1315TIP3    H125436   5.828   5.382  16.598 -0.5567  0.2730 -1.7990
 1315TIP3    H225437   5.917   5.478  16.522 -0.7573  2.1634  0.2287
 1316TIP3   OH225438   0.617   6.179   2.382 -0.2659  0.4379 -0.5388
 1316TIP3    H125439   0.580   6.265   2.362 -0.7039 -0.1533 -2.4852
 1316TIP3    H225440   0.550   6.117   2.355  0.6976 -0.5655 -0.6946
 1317TIP3   OH225441   3.513   3.316   3.823 -0.3849  0.8176 -0.2521
 1317TIP3    H125442   3.556   3.241   3.865  1.2536  1.6832 -0.3023
 1317TIP3    H225443   3.427   3.283   3.797  0.1224 -0.9048  0.1390
 1318TIP3   OH225444   2.528   6.201   3.634  0.0685 -0.4212 -0.1837
 1318TIP3    H125445   2.582   6.272   3.667  0.7138 -1.6749  1.5898
 1318TIP3    H225446   2.443   6.214   3.675  0.0584 -0.4099 -0.2087
 1319TIP3   OH225447   5.095   0.202   0.687 -0.2028  0.4501 -0.0827
 1319TIP3    H125448   5.001   0.206   0.708 -0.5608 -1.6322 -0.9576
 1319TIP3    H225449   5.129   0.133   0.744  0.7515  0.9939  0.0214
 1320TIP3   OH225450   2.361   5.602   3.497 -0.4231 -0.7686  0.1770
 1320TIP3    H125451   2.306   5.543   3.549 -1.0054 -1.9474 -1.6865
 1320TIP3    H225452   2.311   5.683   3.491 -0.6088 -0.8184  0.9330
 1321TIP3   OH225453   3.621   4.667  11.326 -0.5386 -0.4131  0.0350
 1321TIP3    H125454   3.525   4.664  11.334 -0.5916 -0.7833 -0.6496
 1321TIP3    H225455   3.652   4.609  11.396 -0.8553 -1.1051 -0.3881
 1322TIP3   OH225456   1.664   5.056   4.006  0.0237 -0.8024  0.0511
 1322TIP3    H125457   1.745   5.045   4.057 -0.0287 -0.7204  0.1519
 1322TIP3    H225458   1.685   5.018   3.920  0.1131 -0.9383  0.1323
 1323TIP3   OH225459   2.958   6.265   1.568 -0.2414 -0.0265  0.4500
 1323TIP3    H125460   2.883   6.282   1.625 -0.4538  0.5615  0.0014
 1323TIP3    H225461   2.976   6.349   1.526  1.6032  0.2534  1.6666
 1324TIP3   OH225462   0.719   6.579   0.273  0.3199 -0.1448 -0.6169
 1324TIP3    H125463   0.690   6.617   0.356  0.7674 -0.6180 -0.2401
 1324TIP3    H225464   0.695   6.486   0.280  1.0467 -0.3435 -0.6965
 1325TIP3   OH225465   0.971   0.925   2.985 -0.3687  0.3198  0.1496
 1325TIP3    H125466   0.976   1.017   2.957 -1.9972  0.2453 -0.4726
 1325TIP3    H225467   0.889   0.919   3.033  0.5437 -0.4522  1.6964
 1326TIP3   OH225468   1.323   2.128   3.907  0.2507  0.0231  0.2149
 1326TIP3    H125469   1.368   2.045   3.924 -0.3873 -0.6737 -1.2940
 1326TIP3    H225470   1.259   2.135   3.977  0.7744 -0.3989  0.7520
 1327TIP3   OH225471   6.810   5.980   1.577 -0.5758 -0.2383  0.5420
 1327TIP3    H125472   6.845   5.896   1.547 -0.7050  0.4385 -1.7062
 1327TIP3    H225473   6.750   6.007   1.507 -1.5388  1.1247  1.8297
 1328TIP3   OH225474   3.145   2.847  13.998 -0.3254 -0.3998 -0.2290
 1328TIP3    H125475   3.178   2.841  13.908 -0.0210  0.0086 -0.1506
 1328TIP3    H225476   3.069   2.789  14.000 -0.6692  0.0167 -0.9005
 1329TIP3   OH225477   5.771   2.178  15.637 -0.2651 -0.3036 -0.1725
 1329TIP3    H125478   5.737   2.168  15.549  1.9324 -0.6924 -1.0601
 1329TIP3    H225479   5.857   2.135  15.634  0.1883  0.3286  1.9508
 1330TIP3   OH225480   6.539   3.608   5.264  0.9799  0.9252 -0.0013
 1330TIP3    H125481   6.476   3.677   5.246  1.2485  0.8915 -1.1299
 1330TIP3    H225482   6.595   3.644   5.333  1.0765  1.8057 -0.5327
 1331TIP3   OH225483   0.663   1.451  16.820 -0.1438  0.1229  0.2591
 1331TIP3    H125484   0.619   1.454  16.905  0.0976  1.5561  0.3481
 1331TIP3    H225485   0.662   1.541  16.789 -0.3151 -0.3890 -1.3161
 1332TIP3   OH225486   4.241   1.367   4.238  0.2138 -0.6758  0.1957
 1332TIP3    H125487   4.273   1.433   4.300 -0.2100  0.2562 -0.5473
 1332TIP3    H225488   4.266   1.283   4.276  1.9644 -0.0436  0.5034
 1333TIP3   OH225489   4.524   4.230   5.020 -0.4277  0.1813 -0.2439
 1333TIP3    H125490   4.511   4.299   5.084 -0.8791  0.9212 -1.1072
 1333TIP3    H225491   4.609   4.191   5.043 -0.3458  0.7685  0.4699
 1334TIP3   OH225492   4.968   5.754  14.095  0.9760  0.2209 -0.3696
 1334TIP3    H125493   4.983   5.665  14.066  0.1677 -1.1464  2.9621
 1334TIP3    H225494   5.022   5.764  14.173  0.0626  2.1883  0.0879
 1335TIP3   OH225495   2.053   4.169   5.411  0.2976 -0.2387 -0.2772
 1335TIP3    H125496   2.015   4.093   5.454  2.2979  0.1906  2.5569
 1335TIP3    H225497   2.148   4.153   5.412  0.6821  1.7008 -0.7789
 1336TIP3   OH225498   0.944   3.090   3.921 -0.1343  0.3541 -0.5724
 1336TIP3    H125499   0.856   3.073   3.954  0.1223  0.1474  0.0142
 1336TIP3    H225500   0.996   3.016   3.951  0.1064  0.1593 -1.4522
 1337TIP3   OH225501   5.657   5.253   1.848  0.4465 -0.1048 -0.3636
 1337TIP3    H125502   5.610   5.319   1.899 -0.7456 -1.0815 -0.1207
 1337TIP3    H225503   5.643   5.277   1.757  0.7834  0.4729 -0.2632
 1338TIP3   OH225504   2.198   0.255   5.601 -0.5675 -0.7610 -0.2643
 1338TIP3    H125505   2.283   0.282   5.635 -0.1617 -0.6391 -1.3288
 1338TIP3    H225506   2.169   0.329   5.548 -2.6402  0.3542  2.2542
 1339TIP3   OH225507   1.144   6.030  14.927 -0.1372  0.2729 -0.5801
 1339TIP3    H125508   1.213   6.076  14.975  0.0170 -0.3573 -0.1703
 1339TIP3    H225509   1.145   6.069  14.840  0.6475  0.3694 -0.5382
 1340TIP3   OH225510   1.970   3.189  11.769  0.6367 -0.3459  0.1296
 1340TIP3    H125511   1.940   3.190  11.678  1.2823 -0.4911 -0.0872
 1340TIP3    H225512   2.063   3.166  11.763  1.2992  1.9582  0.6491
 1341TIP3   OH225513   0.415   1.851  12.153 -0.1858 -0.2971  0.0610
 1341TIP3    H125514   0.411   1.794  12.230  0.3004  0.7909  0.9060
 1341TIP3    H225515   0.401   1.939  12.188 -0.7532  0.1350 -1.2076
 1342TIP3   OH225516   5.305   6.156  15.895  0.2660 -0.3897  0.6095
 1342TIP3    H125517   5.258   6.164  15.813  0.9296 -1.2504  0.1335
 1342TIP3    H225518   5.239   6.128  15.959 -0.1623 -0.1110  0.2927
 1343TIP3   OH225519   6.129   0.093   4.545  0.2319 -0.1468  0.1698
 1343TIP3    H125520   6.057   0.071   4.485  0.2851 -0.8492  0.3540
 1343TIP3    H225521   6.098   0.171   4.591 -0.6715 -0.7725  0.6594
 1344TIP3   OH225522   0.763   3.880  13.658  0.5726 -0.5702 -0.4829
 1344TIP3    H125523   0.848   3.843  13.679  0.8289 -0.2120 -0.8699
 1344TIP3    H225524   0.770   3.907  13.567 -0.2146 -1.2555 -0.7550
 1345TIP3   OH225525   6.679   4.695  13.353 -0.1426 -0.2014 -0.1539
 1345TIP3    H125526   6.602   4.696  13.410 -1.2504  1.9113 -1.5525
 1345TIP3    H225527   6.712   4.785  13.357  1.1946 -0.6428 -0.9505
 1346TIP3   OH225528   6.221   2.841   2.811 -0.0835 -0.1866  0.1760
 1346TIP3    H125529   6.207   2.934   2.795 -3.4190 -0.4290  0.7705
 1346TIP3    H225530   6.159   2.820   2.881  2.2361 -2.4215  1.7201
 1347TIP3   OH225531   3.744   5.409  10.155  0.4490 -0.7012  0.2205
 1347TIP3    H125532   3.678   5.343  10.173 -0.4528  0.1863  0.2473
 1347TIP3    H225533   3.694   5.488  10.134  1.4337  0.5551  2.2669
 1348TIP3   OH225534   6.240   6.019   2.167  0.3251  0.0648  0.9216
 1348TIP3    H125535   6.207   6.101   2.130  0.6431  0.3517  1.2685
 1348TIP3    H225536   6.259   5.964   2.091 -0.7731 -0.0402  0.7088
 1349TIP3   OH225537   6.811   0.442  10.213  0.1765  0.5542 -0.1046
 1349TIP3    H125538   6.886   0.409  10.261  0.5034 -0.5561 -1.3088
 1349TIP3    H225539   6.751   0.367  10.207 -1.1077  1.4480  0.9380
 1350TIP3   OH225540   3.575   3.349   0.482 -0.3918  0.0835  0.1040
 1350TIP3    H125541   3.625   3.344   0.563  0.5925 -1.0517 -0.5417
 1350TIP3    H225542   3.617   3.285   0.424 -0.3428  1.6595 -1.6911
 1351TIP3   OH225543   3.478   4.019   4.281 -0.0473 -0.3457  0.3788
 1351TIP3    H125544   3.429   4.030   4.363  1.8268  0.7515  1.4090
 1351TIP3    H225545   3.570   4.026   4.307  0.8084 -3.3153 -1.3137
 1352TIP3   OH225546   2.397   4.559  11.660 -0.6101 -0.4069  0.4266
 1352TIP3    H125547   2.443   4.511  11.591  1.0526 -0.9638  1.8427
 1352TIP3    H225548   2.418   4.651  11.643 -1.8131 -0.3316 -0.8841
 1353TIP3   OH225549   0.327   2.061   2.662 -0.1487  0.0797  0.2131
 1353TIP3    H125550   0.303   2.084   2.752 -0.1283  1.0006 -0.0053
 1353TIP3    H225551   0.282   1.978   2.646 -0.4754  0.1076  0.9391
 1354TIP3   OH225552   1.916   6.513  14.293  0.4114 -0.4306 -0.0375
 1354TIP3    H125553   1.988   6.537  14.235  2.2244 -1.9554  1.4278
 1354TIP3    H225554   1.948   6.531  14.381 -2.2424  1.7842  0.6105
 1355TIP3   OH225555   3.499   6.401   4.502 -0.5501 -0.2190  0.1977
 1355TIP3    H125556   3.583   6.430   4.537 -0.8848  0.7172  0.2545
 1355TIP3    H225557   3.467   6.476   4.451 -0.4859 -1.2232 -1.3778
 1356TIP3   OH225558   3.470   3.788   3.247 -0.4654  0.1394  0.2181
 1356TIP3    H125559   3.411   3.830   3.310  0.3719  1.1501  0.3647
 1356TIP3    H225560   3.555   3.827   3.266 -0.2548  0.7309 -1.7820
 1357TIP3   OH225561   1.100   5.242   0.107  0.0771  0.5560  0.1526
 1357TIP3    H125562   1.161   5.257   0.179  0.6568  2.5360 -0.6806
 1357TIP3    H225563   1.155   5.220   0.032 -0.4883 -0.9840  0.1542
 1358TIP3   OH225564   6.593   2.809   5.468  0.3992 -0.4857 -0.0321
 1358TIP3    H125565   6.531   2.813   5.542  2.3273 -1.7734  1.7639
 1358TIP3    H225566   6.650   2.885   5.481  0.4596 -0.4536 -0.4790
 1359TIP3   OH225567   0.683   2.071   1.852  0.0254  0.0207  0.5974
 1359TIP3    H125568   0.700   2.040   1.941  0.9687  1.2223  0.8665
 1359TIP3    H225569   0.592   2.047   1.835 -0.2752  0.0563  2.0181
 1360TIP3   OH225570   0.194   3.631   3.878 -0.2064  0.5441  0.0603
 1360TIP3    H125571   0.240   3.689   3.938 -0.8282  0.8429  0.2582
 1360TIP3    H225572   0.260   3.603   3.815  0.5452 -0.0917  1.1086
 1361TIP3   OH225573   1.049   3.120   2.650  0.1466 -0.8881  0.1865
 1361TIP3    H125574   1.142   3.113   2.631  0.3641  0.5586  0.5793
 1361TIP3    H225575   1.007   3.059   2.589  1.3272 -1.4875 -0.0587
 1362TIP3   OH225576   0.337   5.254   1.284 -0.3579 -0.0796  0.5829
 1362TIP3    H125577   0.351   5.306   1.363  0.6126  1.9618 -0.8461
 1362TIP3    H225578   0.252   5.283   1.251  0.6086  1.4328 -0.7340
 1363TIP3   OH225579   2.525   0.082   2.063  0.3815  0.2338  0.0263
 1363TIP3    H125580   2.441   0.127   2.065 -0.0554 -0.5882  0.5221
 1363TIP3    H225581   2.590   0.152   2.077 -0.1248  1.0274 -1.3949
 1364TIP3   OH225582   5.579   3.738   2.532 -0.3688 -0.7481  0.2197
 1364TIP3    H125583   5.640   3.803   2.566 -0.9439  0.8844 -1.6777
 1364TIP3    H225584   5.516   3.725   2.604 -1.0784  1.9357  0.1984
 1365TIP3   OH225585   4.908   2.271  14.224 -0.2013  1.0043  0.2668
 1365TIP3    H125586   4.816   2.285  14.202 -0.7044 -0.1662  1.5102
 1365TIP3    H225587   4.937   2.355  14.259 -1.1094  1.0647  0.8987
 1366TIP3   OH225588   3.473   4.278   5.841  0.0790 -0.1007  0.1486
 1366TIP3    H125589   3.556   4.313   5.873 -0.8720  0.5089  2.1045
 1366TIP3    H225590   3.413   4.285   5.915 -1.9728  0.2545 -1.4388
 1367TIP3   OH225591   6.215   1.970   0.294  0.3096  0.1771 -0.0987
 1367TIP3    H125592   6.126   1.957   0.261  0.3003 -1.9982  0.6641
 1367TIP3    H225593   6.255   2.030   0.231 -1.4977  0.7572 -0.7710
 1368TIP3   OH225594   4.341   2.222   1.592 -0.1000 -0.0029 -0.0322
 1368TIP3    H125595   4.375   2.277   1.663 -2.3312 -0.0895  1.1805
 1368TIP3    H225596   4.300   2.148   1.636 -2.8428  0.6687 -1.2270
 1369TIP3   OH225597   3.978   1.732   5.429 -0.1466 -0.1755  0.3354
 1369TIP3    H125598   3.984   1.724   5.524  1.2563  0.4913  0.3259
 1369TIP3    H225599   3.885   1.744   5.411 -0.4608 -0.6564  1.5861
 1370TIP3   OH225600   4.613   4.190  16.638 -0.4594 -0.0851  0.2732
 1370TIP3    H125601   4.668   4.135  16.583  0.8074  0.0289  1.3836
 1370TIP3    H225602   4.540   4.216  16.581 -0.0429 -1.2744 -0.8418
 1371TIP3   OH225603   4.585   2.640   4.239  0.0848  0.2408 -0.8677
 1371TIP3    H125604   4.557   2.699   4.309 -0.0643  0.3226 -0.9979
 1371TIP3    H225605   4.586   2.554   4.280 -2.4184 -0.1128 -1.4079
 1372TIP3   OH225606   1.212   0.349   0.295 -0.1917  0.2980  0.1564
 1372TIP3    H125607   1.248   0.264   0.268 -0.7692  0.6014 -1.7358
 1372TIP3    H225608   1.184   0.335   0.385 -0.3041 -1.5465 -0.1197
 1373TIP3   OH225609   2.888   1.053   2.361  0.2334  0.3876 -0.5917
 1373TIP3    H125610   2.908   0.969   2.401  0.0304  0.1102 -1.0623
 1373TIP3    H225611   2.937   1.054   2.279 -0.0509  0.5675 -0.7647
 1374TIP3   OH225612   6.320   3.748   4.486  0.5180 -0.4089  0.0201
 1374TIP3    H125613   6.256   3.805   4.528  0.7025  0.7918 -1.2624
 1374TIP3    H225614   6.280   3.660   4.491 -1.0657  0.2467 -0.4018
 1375TIP3   OH225615   4.856   6.155  16.763 -0.1358  0.5733 -0.2900
 1375TIP3    H125616   4.874   6.066  16.733 -0.7093  0.3732 -0.0536
 1375TIP3    H225617   4.890   6.211  16.693  0.8756  0.2005 -0.1177
 1376TIP3   OH225618   0.361   6.551  11.462 -0.2442  0.0855  0.2448
 1376TIP3    H125619   0.452   6.549  11.433 -0.3913  2.5135 -0.6560
 1376TIP3    H225620   0.311   6.565  11.382 -1.5114 -1.6821  0.6602
 1377TIP3   OH225621   5.197   0.407   3.295  0.5273  0.1772 -0.3397
 1377TIP3    H125622   5.110   0.446   3.301  0.4336 -0.2308  1.1132
 1377TIP3    H225623   5.181   0.315   3.272  0.5864  0.1203 -0.1492
 1378TIP3   OH225624   4.029   3.272  12.421 -0.4822 -0.5044  0.0275
 1378TIP3    H125625   3.938   3.256  12.445 -0.3148 -0.5595  0.6315
 1378TIP3    H225626   4.069   3.308  12.500  0.4392 -2.0602  0.3100
 1379TIP3   OH225627   2.552   4.174  14.059 -0.1373  0.0630  0.1200
 1379TIP3    H125628   2.563   4.254  14.008 -0.1621  2.2409  3.2581
 1379TIP3    H225629   2.482   4.195  14.121  0.3642 -2.1392  1.5319
 1380TIP3   OH225630   0.809   5.255  16.711  0.1402  0.3063 -0.2336
 1380TIP3    H125631   0.878   5.230  16.649 -0.3490 -2.3550  0.2043
 1380TIP3    H225632   0.733   5.205  16.683 -0.3060 -0.3819  2.0625
 1381TIP3   OH225633   3.624   1.714   0.130 -0.5362 -0.7326 -0.2574
 1381TIP3    H125634   3.591   1.771   0.060 -1.4191 -2.6504 -1.5001
 1381TIP3    H225635   3.702   1.673   0.092  0.0336 -0.4355  0.5754
 1382TIP3   OH225636   1.086   6.553   1.006 -0.0446  0.6751  0.6174
 1382TIP3    H125637   1.124   6.480   0.958 -3.3394 -0.5794 -0.3268
 1382TIP3    H225638   1.084   6.523   1.097  0.6467  0.5296  0.5876
 1383TIP3   OH225639   2.611   2.403   3.744  0.3711 -0.1520  0.6365
 1383TIP3    H125640   2.622   2.457   3.821 -0.3545  2.7372 -1.1429
 1383TIP3    H225641   2.517   2.388   3.737  0.5326 -1.4501  0.9321
 1384TIP3   OH225642   1.154   0.927  12.996 -0.2283  0.1878  0.3600
 1384TIP3    H125643   1.182   1.012  13.029 -0.7995  0.3250  0.5032
 1384TIP3    H225644   1.063   0.941  12.968  0.2584  0.1072 -1.3745
 1385TIP3   OH225645   0.333   5.845   2.332 -0.3600 -0.2783  0.6145
 1385TIP3    H125646   0.328   5.776   2.266  0.5996  0.6037 -0.4201
 1385TIP3    H225647   0.388   5.808   2.401  2.0535  0.1879 -0.9514
 1386TIP3   OH225648   5.502   5.303   5.469  0.4599  0.4784 -0.1720
 1386TIP3    H125649   5.544   5.389   5.474 -1.0684  1.2083  0.7304
 1386TIP3    H225650   5.495   5.274   5.560  1.6196 -0.9682 -0.5081
 1387TIP3   OH225651   4.114   4.955   4.650  0.4201 -0.2290 -0.5519
 1387TIP3    H125652   4.037   4.909   4.616 -0.3940  0.4314  0.3090
 1387TIP3    H225653   4.157   4.990   4.573 -0.4850 -0.1148 -1.0270
 1388TIP3   OH225654   6.158   5.159   3.696 -0.2432  0.4880 -0.2630
 1388TIP3    H125655   6.070   5.139   3.729  0.2344 -2.4409 -0.5109
 1388TIP3    H225656   6.215   5.146   3.772  0.1093  1.3347 -0.3746
 1389TIP3   OH225657   2.660   3.428   4.560  0.2346 -0.1299  0.4584
 1389TIP3    H125658   2.725   3.413   4.628  1.9311  0.8757 -0.8472
 1389TIP3    H225659   2.579   3.392   4.596  1.1086  0.1020  2.8546
 1390TIP3   OH225660   5.106   2.451  10.738  0.4331 -0.2507  0.1222
 1390TIP3    H125661   5.139   2.449  10.648 -0.7593  0.1308 -0.3423
 1390TIP3    H225662   5.184   2.445  10.792  1.1838 -0.3671 -0.9373
 1391TIP3   OH225663   1.684   5.826  11.515 -0.2094 -0.1033 -0.0286
 1391TIP3    H125664   1.777   5.802  11.511 -0.3119 -0.5181  0.0989
 1391TIP3    H225665   1.642   5.753  11.559 -1.0032 -1.1465 -2.3834
 1392TIP3   OH225666   1.139   0.273   3.998  0.2588 -0.2515 -0.8190
 1392TIP3    H125667   1.130   0.198   4.057  1.2744  0.3766  0.1784
 1392TIP3    H225668   1.219   0.255   3.949  1.8363  1.2031  1.0641
 1393TIP3   OH225669   0.232   4.310  16.847  0.4588 -0.1133 -0.3436
 1393TIP3    H125670   0.247   4.332  16.939  0.1494 -1.6558  0.1025
 1393TIP3    H225671   0.311   4.263  16.821  2.2569  3.4884 -2.0293
 1394TIP3   OH225672   4.578   5.769  14.350 -0.0373  0.2363 -0.0534
 1394TIP3    H125673   4.662   5.723  14.355  0.4687  1.1074 -0.3369
 1394TIP3    H225674   4.601   5.861  14.365 -0.6086  0.8260 -2.4776
 1395TIP3   OH225675   2.139   3.058   3.815  0.4306  0.3536 -0.3339
 1395TIP3    H125676   2.155   3.046   3.721  1.6229  0.7743 -0.2072
 1395TIP3    H225677   2.222   3.032   3.856 -0.9137 -2.5613  0.8417
 1396TIP3   OH225678   4.772   1.211  12.611 -0.3759  0.7618 -0.2354
 1396TIP3    H125679   4.693   1.181  12.566  0.6837 -1.0149 -1.0065
 1396TIP3    H225680   4.835   1.227  12.541  0.0630  1.8593  0.3860
 1397TIP3   OH225681   5.880   1.760   1.957  0.1968  0.6009  0.2144
 1397TIP3    H125682   5.830   1.826   1.910  0.3273 -0.3897 -1.3921
 1397TIP3    H225683   5.943   1.810   2.010 -1.2962  1.7949  0.9161
 1398TIP3   OH225684   0.717   5.125   2.599 -0.1780  0.7277  0.0642
 1398TIP3    H125685   0.639   5.171   2.630 -1.3455 -0.2682 -1.2889
 1398TIP3    H225686   0.790   5.180   2.628 -1.4832  3.3288 -1.2687
 1399TIP3   OH225687   4.326   2.266   0.652  0.2372 -0.1750 -0.0433
 1399TIP3    H125688   4.286   2.203   0.711  1.8044 -0.5850  0.6211
 1399TIP3    H225689   4.308   2.351   0.692 -1.7336 -0.1363 -0.8535
 1400TIP3   OH225690   0.412   1.825   3.586 -0.1958  0.0384  0.0644
 1400TIP3    H125691   0.352   1.867   3.648 -0.3611 -0.4082  0.2062
 1400TIP3    H225692   0.422   1.889   3.515 -0.5078  0.2831  0.2404
 1401TIP3   OH225693   0.992   2.883   1.176 -0.0027  0.2069 -0.1880
 1401TIP3    H125694   1.063   2.831   1.212  0.2798  0.0672 -0.9310
 1401TIP3    H225695   1.022   2.974   1.183 -0.7052  0.3382  1.5715
 1402TIP3   OH225696   3.323   5.752  13.839  0.5027  0.1612  0.1274
 1402TIP3    H125697   3.357   5.841  13.848 -1.6270  1.2319 -1.5394
 1402TIP3    H225698   3.287   5.732  13.926  0.2942  1.2532  0.3097
 1403TIP3   OH225699   1.932   1.494   4.522  0.3745 -0.3768  0.1496
 1403TIP3    H125700   1.865   1.525   4.461 -1.2806 -0.4229  1.8764
 1403TIP3    H225701   1.957   1.572   4.572  0.9667 -0.5434  0.1232
 1404TIP3   OH225702   2.779   1.954  12.007  0.1621 -0.0122  0.5202
 1404TIP3    H125703   2.861   1.914  12.034 -0.4507 -1.3231  0.5457
 1404TIP3    H225704   2.716   1.882  12.008 -1.0531  1.0188  0.7807
 1405TIP3   OH225705   1.434   4.638   2.337 -0.1617 -0.8527 -0.5703
 1405TIP3    H125706   1.438   4.607   2.246  0.3018  0.5392 -1.0522
 1405TIP3    H225707   1.340   4.640   2.357 -0.3779  0.2318 -1.5561
 1406TIP3   OH225708   6.453   1.653  13.066 -0.0385 -0.1787 -0.3355
 1406TIP3    H125709   6.408   1.733  13.091  0.1065 -0.0056 -0.6288
 1406TIP3    H225710   6.439   1.646  12.971  1.1612  0.2649 -0.5663
 1407TIP3   OH225711   5.942   0.939  15.082 -0.2840 -0.4979 -0.1041
 1407TIP3    H125712   5.856   0.971  15.109 -0.5119 -0.5812 -0.7206
 1407TIP3    H225713   5.934   0.843  15.083  0.4306 -0.5733  1.8481
 1408TIP3   OH225714   6.510   3.424  16.158 -0.5150 -0.0715  0.3766
 1408TIP3    H125715   6.558   3.374  16.224 -0.5781 -1.8537 -0.8724
 1408TIP3    H225716   6.570   3.493  16.132  0.6778 -1.1683  0.1468
 1409TIP3   OH225717   5.199   4.832   4.748  0.1311 -0.4543  0.3792
 1409TIP3    H125718   5.167   4.912   4.790 -1.8725 -1.1132  0.2587
 1409TIP3    H225719   5.122   4.798   4.702  1.0424 -2.2157  0.0904
 1410TIP3   OH225720   4.031   4.272  15.106  0.5463  0.3856 -0.2944
 1410TIP3    H125721   4.090   4.200  15.129  1.2315  1.2200  0.6651
 1410TIP3    H225722   4.083   4.329  15.049  0.0045  0.1205 -1.0643
 1411TIP3   OH225723   5.202   5.614   5.493  0.0911  0.0616  0.0151
 1411TIP3    H125724   5.127   5.589   5.547  0.4072  0.9986  0.9241
 1411TIP3    H225725   5.181   5.579   5.406 -0.8244 -0.7391  0.5319
 1412TIP3   OH225726   0.450   3.192   5.145  0.1656  0.2606 -0.2674
 1412TIP3    H125727   0.509   3.226   5.077  0.1595 -0.2617 -0.5379
 1412TIP3    H225728   0.495   3.114   5.178  0.3088  0.6778  0.5384
 1413TIP3   OH225729   5.390   6.304   5.535  0.1296  0.1380  0.0775
 1413TIP3    H125730   5.353   6.268   5.616 -0.3806 -0.8068 -0.5518
 1413TIP3    H225731   5.484   6.294   5.545  0.0857  0.2576  0.6581
 1414TIP3   OH225732   5.219   1.068   1.039  0.3092 -0.3005  0.1251
 1414TIP3    H125733   5.239   1.064   0.945 -1.2312 -1.2396 -0.1921
 1414TIP3    H225734   5.268   0.994   1.076  0.5432 -0.2156 -0.0100
 1415TIP3   OH225735   2.410   4.736   5.173  0.4995  0.3744  0.7074
 1415TIP3    H125736   2.486   4.698   5.129 -0.0507  0.3066 -0.2203
 1415TIP3    H225737   2.335   4.686   5.139  0.0944  0.0055  2.0966
 1416TIP3   OH225738   5.858   4.378   0.248 -0.2960 -0.2314  0.6877
 1416TIP3    H125739   5.765   4.359   0.258 -0.1585 -0.7795  0.9437
 1416TIP3    H225740   5.881   4.343   0.162 -0.0118 -1.3856  1.2154
 1417TIP3   OH225741   2.014   0.475  10.188 -0.0615  0.4558 -0.6154
 1417TIP3    H125742   2.048   0.516  10.267 -0.1151 -0.3246 -0.1885
 1417TIP3    H225743   2.083   0.417  10.158  0.0449  0.9012 -1.2744
 1418TIP3   OH225744   3.745   6.245   1.877  0.0511 -0.3589  0.1620
 1418TIP3    H125745   3.727   6.298   1.955  0.7514 -0.2793  0.2777
 1418TIP3    H225746   3.757   6.309   1.807  1.5341 -0.3056  0.4310
 1419TIP3   OH225747   2.235   6.139  12.563 -0.1363 -0.8212 -0.3664
 1419TIP3    H125748   2.314   6.193  12.558 -0.9414  0.3335 -1.4237
 1419TIP3    H225749   2.184   6.165  12.486 -2.1068 -0.5755  0.9449
 1420TIP3   OH225750   1.725   1.692  16.619  0.8558 -0.1861 -0.2367
 1420TIP3    H125751   1.712   1.787  16.614 -1.5582 -0.2629  2.3361
 1420TIP3    H225752   1.807   1.677  16.572  0.4352  2.9155 -2.2696
 1421TIP3   OH225753   6.360   3.789   2.171 -0.5244 -0.5432 -0.3907
 1421TIP3    H125754   6.342   3.708   2.218 -2.3947 -0.8218 -1.4966
 1421TIP3    H225755   6.288   3.798   2.110  0.6428  0.9899 -1.6297
 1422TIP3   OH225756   1.833   3.012  16.991 -0.1474  0.2678 -0.4456
 1422TIP3    H125757   1.835   3.103  16.961 -1.1407  0.7714  0.9008
 1422TIP3    H225758   1.906   3.006  17.052  0.6429 -0.1914 -1.4125
 1423TIP3   OH225759   0.749   2.865  13.584 -0.3445 -0.1146 -0.3464
 1423TIP3    H125760   0.719   2.805  13.515  2.7474 -1.4504 -0.7080
 1423TIP3    H225761   0.845   2.857  13.582  0.1186  3.5181  0.8663
 1424TIP3   OH225762   3.549   4.526   1.514  0.3289 -0.1189  0.3409
 1424TIP3    H125763   3.585   4.614   1.521 -1.6295  0.9008 -1.3092
 1424TIP3    H225764   3.555   4.504   1.421  0.6751 -1.6969  0.7076
 1425TIP3   OH225765   0.875   3.191   4.582  0.2323 -0.6460  0.3179
 1425TIP3    H125766   0.908   3.245   4.510  1.7980 -0.5119  1.0967
 1425TIP3    H225767   0.781   3.212   4.586  0.2487 -0.1072 -1.1833
 1426TIP3   OH225768   6.237   6.014   3.982 -0.2521 -0.1119  0.3069
 1426TIP3    H125769   6.174   6.001   4.053  0.4644  0.6908  1.1115
 1426TIP3    H225770   6.273   6.101   3.998  0.3576 -0.1648 -0.7102
 1427TIP3   OH225771   4.730   0.695  12.767  0.9947 -0.1757 -0.4819
 1427TIP3    H125772   4.775   0.737  12.693  1.3585 -2.4375 -1.6184
 1427TIP3    H225773   4.750   0.602  12.758 -0.8453 -0.7989  1.1663
 1428TIP3   OH225774   1.548   6.006   5.321  0.1910 -0.9942  0.5493
 1428TIP3    H125775   1.619   6.028   5.382  0.9755  1.3626 -1.0766
 1428TIP3    H225776   1.521   6.090   5.285 -1.7197 -2.1079 -0.7825
 1429TIP3   OH225777   3.242   4.248  15.568  0.1253 -0.0551 -0.4339
 1429TIP3    H125778   3.168   4.235  15.626  0.9719 -0.4165  0.5874
 1429TIP3    H225779   3.254   4.163  15.525  0.4264 -0.2272 -0.0161
 1430TIP3   OH225780   1.819   0.517  14.132  0.7990 -0.0488 -0.5411
 1430TIP3    H125781   1.854   0.552  14.050  0.5728  0.8176 -0.2779
 1430TIP3    H225782   1.822   0.591  14.192 -2.1254  0.2668 -0.6803
 1431TIP3   OH225783   4.843   2.049   5.247  0.2044 -0.7910 -0.4636
 1431TIP3    H125784   4.914   2.046   5.311  1.1104 -0.0310 -1.4006
 1431TIP3    H225785   4.765   2.069   5.298  1.2676  2.2560  0.1800
 1432TIP3   OH225786   3.732   0.205  15.397 -0.2158  0.0817 -0.0682
 1432TIP3    H125787   3.720   0.172  15.308 -1.0932  1.2591 -0.4260
 1432TIP3    H225788   3.702   0.296  15.393  1.2868  0.6718  1.0573
 1433TIP3   OH225789   5.341   0.572  15.839 -0.1542 -0.4253 -0.4547
 1433TIP3    H125790   5.263   0.577  15.784  0.6261 -0.2240 -1.5687
 1433TIP3    H225791   5.413   0.597  15.781  0.6144  0.4387  0.8251
 1434TIP3   OH225792   6.674   4.706   1.703  0.0995 -0.3984  0.0742
 1434TIP3    H125793   6.711   4.791   1.725 -2.2596  1.2259 -1.7025
 1434TIP3    H225794   6.693   4.651   1.779 -0.1962  2.3477  2.2858
 1435TIP3   OH225795   5.309   3.408  14.887  0.3257  0.4681  0.2857
 1435TIP3    H125796   5.353   3.454  14.815  0.7537  0.9902  0.8750
 1435TIP3    H225797   5.363   3.427  14.964  0.4235 -0.8776  0.5786
 1436TIP3   OH225798   2.362   4.813  13.816  0.3780 -0.1606 -0.0575
 1436TIP3    H125799   2.276   4.821  13.775 -0.2296  2.5944  1.5245
 1436TIP3    H225800   2.345   4.826  13.909  2.3738 -1.0339  0.4822
 1437TIP3   OH225801   0.468   3.599  11.225  0.4299  0.1785 -0.1443
 1437TIP3    H125802   0.451   3.520  11.174 -0.3713 -0.6441  1.3231
 1437TIP3    H225803   0.395   3.657  11.204  0.5856  0.2041 -0.6160
 1438TIP3   OH225804   4.199   4.967  11.071  0.3887  0.0111 -0.2007
 1438TIP3    H125805   4.247   5.018  11.135 -0.8327 -0.5551  1.2553
 1438TIP3    H225806   4.107   4.975  11.099 -0.1674 -0.3143 -1.8515
 1439TIP3   OH225807   5.419   3.908  15.433 -0.0527 -0.0246  0.2711
 1439TIP3    H125808   5.422   3.980  15.370 -2.0569  0.0462  0.2047
 1439TIP3    H225809   5.396   3.950  15.517 -0.2990 -0.4691  0.4293
 1440TIP3   OH225810   1.423   4.806  12.269  0.2614  0.2190  0.1341
 1440TIP3    H125811   1.473   4.806  12.350  1.9267  0.0559 -0.8409
 1440TIP3    H225812   1.464   4.874  12.215 -0.0591 -0.4468 -0.9902
 1441TIP3   OH225813   0.170   0.981   5.124  0.7931  0.2184  0.1087
 1441TIP3    H125814   0.147   0.997   5.216  0.5752 -0.0076  0.0975
 1441TIP3    H225815   0.263   1.003   5.118  1.5796 -2.3825  1.0626
 1442TIP3   OH225816   2.370   1.817  11.391  0.8079  0.1951 -0.2835
 1442TIP3    H125817   2.307   1.775  11.333  1.3080  0.0390 -0.7169
 1442TIP3    H225818   2.452   1.770  11.376  0.8160 -0.2517  0.9854
 1443TIP3   OH225819   4.006   3.791  14.157  0.0690  0.0399  0.2474
 1443TIP3    H125820   4.034   3.877  14.126  2.3178 -0.4438  0.7497
 1443TIP3    H225821   3.947   3.759  14.088 -0.9283  2.0066  0.1216
 1444TIP3   OH225822   5.692   2.631  16.663  0.0868  0.4403 -0.5069
 1444TIP3    H125823   5.786   2.628  16.649  0.1429  0.4690 -0.1484
 1444TIP3    H225824   5.675   2.564  16.730 -0.1991  0.1710 -0.8445
 1445TIP3   OH225825   6.828   2.120   5.457 -0.3604 -0.4658  0.4926
 1445TIP3    H125826   6.768   2.046   5.450  0.9089 -1.4760 -0.2310
 1445TIP3    H225827   6.915   2.080   5.465  0.1209  0.9295  3.1619
 1446TIP3   OH225828   3.028   3.528  10.934  0.4202  0.0337 -0.1212
 1446TIP3    H125829   3.000   3.437  10.939 -0.0117  0.1651 -0.1483
 1446TIP3    H225830   3.089   3.530  10.860 -1.3639  0.2270 -1.6811
 1447TIP3   OH225831   4.868   4.189  13.530  0.4583  0.8742  0.0838
 1447TIP3    H125832   4.826   4.154  13.608  0.2600 -1.6490 -1.0350
 1447TIP3    H225833   4.799   4.189  13.463  1.2488  0.3359 -0.7668
 1448TIP3   OH225834   0.286   1.094   1.923 -0.0503 -0.0424  0.4208
 1448TIP3    H125835   0.341   1.102   2.001 -0.7838 -1.2127  1.1020
 1448TIP3    H225836   0.197   1.106   1.955 -0.2663  1.0330 -0.5266
 1449TIP3   OH225837   3.929   2.522   5.088 -0.7708 -0.5741 -0.0985
 1449TIP3    H125838   3.961   2.479   5.167 -1.3300 -0.1927  0.3497
 1449TIP3    H225839   3.862   2.583   5.120  2.1770  3.0916 -0.2405
 1450TIP3   OH225840   1.172   1.522  13.615 -0.3669 -0.3083 -0.0990
 1450TIP3    H125841   1.091   1.559  13.652 -0.2190  0.6055 -0.6478
 1450TIP3    H225842   1.222   1.492  13.691 -0.1000  1.4630  0.4811
 1451TIP3   OH225843   2.595   2.363   4.273 -0.3969 -0.5041 -0.2434
 1451TIP3    H125844   2.673   2.309   4.261 -0.6555 -1.2632  1.2725
 1451TIP3    H225845   2.527   2.319   4.223  0.1881  0.3818 -1.9133
 1452TIP3   OH225846   6.327   5.484  11.693  0.0354 -1.0613  0.2210
 1452TIP3    H125847   6.266   5.530  11.750 -1.5754 -0.9775 -1.4717
 1452TIP3    H225848   6.339   5.398  11.734  0.1517 -0.4710  1.4691
 1453TIP3   OH225849   2.335   2.601  16.878  0.0742 -0.5614 -0.2573
 1453TIP3    H125850   2.395   2.526  16.878  1.9268  0.8568 -0.2873
 1453TIP3    H225851   2.346   2.639  16.791  1.7071  1.6217  0.8085
 1454TIP3   OH225852   2.962   1.715  12.235 -0.3008  0.0549  0.6390
 1454TIP3    H125853   2.980   1.684  12.324  0.6100 -1.5253 -0.0632
 1454TIP3    H225854   2.886   1.664  12.207  0.5884 -0.8721 -0.1626
 1455TIP3   OH225855   2.345   0.441  12.791  0.0004  0.0308  0.2859
 1455TIP3    H125856   2.366   0.347  12.791  1.0486  0.2432  0.7153
 1455TIP3    H225857   2.256   0.446  12.756  0.4615 -1.0041 -1.1235
 1456TIP3   OH225858   4.389   3.660  13.845 -0.3922 -0.1089  0.4731
 1456TIP3    H125859   4.427   3.579  13.878 -0.3132 -0.4611 -0.4411
 1456TIP3    H225860   4.447   3.729  13.876  1.2333 -0.6572 -1.1849
 1457TIP3   OH225861   1.770   3.885   2.195 -0.1940  0.5112  0.2540
 1457TIP3    H125862   1.752   3.830   2.271  0.8723 -1.9907 -1.2079
 1457TIP3    H225863   1.684   3.900   2.156 -0.3738 -1.8974 -0.4303
 1458TIP3   OH225864   2.468   2.771   6.086  0.0566  0.2016  0.3946
 1458TIP3    H125865   2.383   2.765   6.130 -1.0036  1.1816 -1.4094
 1458TIP3    H225866   2.525   2.813   6.150 -1.5722  2.1010  0.7135
 1459TIP3   OH225867   3.564   0.056  13.818 -0.0514  0.5704 -0.5132
 1459TIP3    H125868   3.515   0.072  13.899 -1.8481 -2.3897 -0.8489
 1459TIP3    H225869   3.649   0.023  13.848 -0.4765  0.0777  0.1793
 1460TIP3   OH225870   2.373   6.115   0.814  0.3047  0.0389 -0.7785
 1460TIP3    H125871   2.291   6.101   0.863 -0.1637  0.8280 -1.3160
 1460TIP3    H225872   2.362   6.065   0.733  0.6468 -0.4104 -0.5537
 1461TIP3   OH225873   2.353   0.511  16.971  0.0383 -0.0632 -0.4712
 1461TIP3    H125874   2.305   0.588  17.001 -0.8897 -0.4206 -1.0250
 1461TIP3    H225875   2.287   0.456  16.930  1.1604  0.1348 -2.6539
 1462TIP3   OH225876   5.098   0.132   6.440 -0.0997  0.0752  0.2679
 1462TIP3    H125877   5.117   0.213   6.487  2.5839  0.4477 -1.2657
 1462TIP3    H225878   5.180   0.083   6.443 -1.5243 -2.4447  0.7912
 1463TIP3   OH225879   3.946   3.631   3.225 -1.2821  0.4833 -0.2538
 1463TIP3    H125880   3.940   3.603   3.134 -0.8181  0.4089 -0.2639
 1463TIP3    H225881   3.869   3.593   3.267 -0.6787 -0.7967 -0.2652
 1464TIP3   OH225882   3.973   5.543   1.372 -0.2468 -0.2405 -0.1705
 1464TIP3    H125883   3.978   5.450   1.394 -2.0018 -0.3385 -0.1017
 1464TIP3    H225884   3.958   5.587   1.455 -0.8381 -0.0351 -0.3828
 1465TIP3   OH225885   4.894   2.175   3.951 -0.3777  0.1905 -0.2476
 1465TIP3    H125886   4.932   2.088   3.937  2.1228  1.0160  0.9281
 1465TIP3    H225887   4.851   2.170   4.037  0.3184  0.2859  0.1080
 1466TIP3   OH225888   5.572   1.906   2.545  0.3083  0.4803  0.3111
 1466TIP3    H125889   5.479   1.929   2.540 -0.3477 -0.9509  3.3303
 1466TIP3    H225890   5.597   1.887   2.455 -2.0927  1.7155 -0.7100
 1467TIP3   OH225891   4.051   5.071   4.262 -0.3555 -0.0633 -0.3043
 1467TIP3    H125892   3.973   5.037   4.305 -0.5032 -1.3875 -1.5451
 1467TIP3    H225893   4.025   5.085   4.171  1.0994 -1.5932 -1.0156
 1468TIP3   OH225894   0.967   1.262  12.177 -0.2224 -0.6360  0.3794
 1468TIP3    H125895   0.989   1.314  12.254  1.4123 -0.9267  0.1488
 1468TIP3    H225896   0.982   1.171  12.204  0.5621 -0.7273 -0.3130
 1469TIP3   OH225897   6.180   4.101  12.590  0.3828  0.3289  0.2135
 1469TIP3    H125898   6.173   4.042  12.665  1.5238  1.4615  1.2840
 1469TIP3    H225899   6.255   4.067  12.540 -0.5974 -0.6353 -0.6522
 1470TIP3   OH225900   3.248   6.417   1.032 -0.2996 -0.0422 -0.3106
 1470TIP3    H125901   3.214   6.344   1.084 -0.6488 -0.2553 -0.8321
 1470TIP3    H225902   3.176   6.443   0.975 -0.0541  0.4597 -0.4071
 1471TIP3   OH225903   3.729   2.434  16.894  0.3153 -0.3708 -0.6218
 1471TIP3    H125904   3.708   2.492  16.967 -1.4398 -2.5214  0.6969
 1471TIP3    H225905   3.675   2.465  16.822  0.6949  0.6473 -0.4825
 1472TIP3   OH225906   4.384   3.461   1.364  0.1529 -0.6535  0.0380
 1472TIP3    H125907   4.412   3.374   1.335 -0.2013 -1.0560  0.8602
 1472TIP3    H225908   4.465   3.508   1.382  0.3402 -1.1607  0.5515
 1473TIP3   OH225909   1.504   5.848   0.944 -0.1683 -0.3354  0.2847
 1473TIP3    H125910   1.595   5.861   0.970  0.4620 -0.2316 -1.7772
 1473TIP3    H225911   1.503   5.869   0.851 -2.6296  1.1314  0.5663
 1474TIP3   OH225912   6.814   3.660   3.671  0.0686  0.3777  0.5386
 1474TIP3    H125913   6.755   3.631   3.741  0.0177  0.0053  0.3449
 1474TIP3    H225914   6.896   3.680   3.716  0.4149 -0.9967  0.5686
 1475TIP3   OH225915   2.009   0.735   0.846 -0.3266 -0.1623  0.3080
 1475TIP3    H125916   1.946   0.692   0.789 -0.5815  1.2996 -0.5594
 1475TIP3    H225917   2.089   0.741   0.793 -0.4585  0.8868  0.2104
 1476TIP3   OH225918   1.414   1.486   5.555  0.1874  0.5832 -0.3859
 1476TIP3    H125919   1.397   1.536   5.634 -1.8793  0.5532 -0.7476
 1476TIP3    H225920   1.439   1.399   5.586  1.3966  1.1247  0.2171
 1477TIP3   OH225921   5.018   6.215  15.801 -0.2292  0.3077 -0.8756
 1477TIP3    H125922   4.998   6.307  15.818  0.7352  0.2379  0.7651
 1477TIP3    H225923   4.987   6.200  15.711  0.2598  2.4197 -1.4379
 1478TIP3   OH225924   0.046   5.422   5.006 -0.2730 -0.0905  0.8962
 1478TIP3    H125925  -0.022   5.357   4.989 -0.5432 -0.1790  2.1956
 1478TIP3    H225926   0.041   5.482   4.932 -0.9593 -0.7654  0.3791
 1479TIP3   OH225927   5.775   1.997   2.924  0.6600  0.1399 -0.6070
 1479TIP3    H125928   5.767   1.945   2.844  1.0028  1.7802 -1.7415
 1479TIP3    H225929   5.687   1.994   2.963 -0.1253  1.1330 -2.2220
 1480TIP3   OH225930   6.376   4.090  14.807 -0.0009 -0.2967 -0.3702
 1480TIP3    H125931   6.395   4.175  14.846  1.3130 -0.8241  0.1981
 1480TIP3    H225932   6.358   4.109  14.715  1.1768  0.5185 -0.4525
 1481TIP3   OH225933   2.168   5.536   2.390  0.2663  0.1712 -0.3458
 1481TIP3    H125934   2.103   5.600   2.420 -0.1042  0.0532 -0.8659
 1481TIP3    H225935   2.211   5.505   2.470 -1.8858 -1.4363  0.2846
 1482TIP3   OH225936   0.460   4.369  14.795 -0.2274 -0.5239 -0.2013
 1482TIP3    H125937   0.476   4.407  14.882  1.8135 -0.3229 -0.5917
 1482TIP3    H225938   0.431   4.280  14.812 -1.2812 -0.0374  0.6837
 1483TIP3   OH225939   3.180   2.996   5.568  0.2510 -0.1685  0.1576
 1483TIP3    H125940   3.180   2.958   5.656  1.1365 -0.2669  0.1195
 1483TIP3    H225941   3.095   3.040   5.561  0.2040 -0.0985  1.0867
 1484TIP3   OH225942   1.484   1.930   4.174  0.1903  0.0853  0.0382
 1484TIP3    H125943   1.425   1.882   4.232 -1.2157  2.9245  1.1507
 1484TIP3    H225944   1.445   1.923   4.087  1.4559 -2.8545 -0.4277
 1485TIP3   OH225945   3.467   5.896  11.696 -0.3363 -0.5575 -0.3019
 1485TIP3    H125946   3.426   5.933  11.774  1.2021 -0.6361  0.5853
 1485TIP3    H225947   3.448   5.803  11.701  1.5359 -0.9197  1.1860
 1486TIP3   OH225948   6.204   5.134  13.914 -0.3192  0.3669 -0.6636
 1486TIP3    H125949   6.255   5.180  13.847  0.7748 -1.7913 -1.4411
 1486TIP3    H225950   6.115   5.133  13.879  0.3956 -1.5916 -2.7287
 1487TIP3   OH225951   4.501   1.804  12.826 -0.6720 -0.5137 -0.0180
 1487TIP3    H125952   4.544   1.885  12.855 -0.1632 -0.4246 -0.9722
 1487TIP3    H225953   4.513   1.743  12.899  1.2510 -0.5461 -0.2909
 1488TIP3   OH225954   4.940   6.548  14.758  0.3445 -0.2589 -0.4104
 1488TIP3    H125955   4.912   6.637  14.777  0.3652 -0.1256 -0.9693
 1488TIP3    H225956   5.029   6.557  14.724 -0.3257 -0.2798 -2.2851
 1489TIP3   OH225957   2.932   1.169   2.017 -0.4073 -0.0058  0.0050
 1489TIP3    H125958   2.840   1.189   2.029 -1.2189 -2.6621 -1.1137
 1489TIP3    H225959   2.944   1.084   2.061  2.2492  1.5734  2.6846
 1490TIP3   OH225960   5.370   1.963  13.137 -0.2596 -0.0597 -0.2472
 1490TIP3    H125961   5.292   1.935  13.185 -0.8143  2.6954  0.6997
 1490TIP3    H225962   5.414   2.023  13.198  0.5917  1.2973 -2.1175
 1491TIP3   OH225963   4.394   6.077  17.058 -0.4620 -0.2180 -0.4847
 1491TIP3    H125964   4.355   6.114  16.978 -1.4830 -1.3908 -0.5642
 1491TIP3    H225965   4.449   6.147  17.092  0.1260  0.2732 -2.2960
 1492TIP3   OH225966   1.254   0.345  14.953  0.4505  0.6931 -0.0266
 1492TIP3    H125967   1.254   0.393  14.870  0.9506  0.8293  0.0533
 1492TIP3    H225968   1.289   0.407  15.017 -0.5785  0.8317  0.4292
 1493TIP3   OH225969   5.659   4.398  13.654  0.2106  0.4171 -0.1595
 1493TIP3    H125970   5.637   4.453  13.579  0.7114  1.8179  0.6888
 1493TIP3    H225971   5.754   4.406  13.662  0.0366  1.3686  1.4028
 1494TIP3   OH225972   3.237   1.869  15.653 -0.0715  0.1897  0.6405
 1494TIP3    H125973   3.272   1.853  15.741 -2.5710  1.4329  1.9413
 1494TIP3    H225974   3.163   1.928  15.666 -2.6961 -2.2302 -1.8746
 1495TIP3   OH225975   2.974   3.985  14.521 -0.3521  0.8060 -0.0175
 1495TIP3    H125976   2.906   3.945  14.467 -1.1655  0.5249  1.1747
 1495TIP3    H225977   2.947   3.967  14.611  0.5487  1.9325  0.5050
 1496TIP3   OH225978   1.663   2.418  12.852  0.1777  0.2769  0.7071
 1496TIP3    H125979   1.673   2.355  12.923 -0.4981 -0.5849  0.0497
 1496TIP3    H225980   1.572   2.445  12.856  0.1763  0.3388  0.2509
 1497TIP3   OH225981   2.215   3.733   1.425 -1.2351  0.3149  0.0141
 1497TIP3    H125982   2.178   3.645   1.419 -0.3673 -0.0150 -0.6374
 1497TIP3    H225983   2.287   3.734   1.363 -0.0912  0.9218  1.2978
 1498TIP3   OH225984   4.615   1.625   1.028  0.0411 -0.1493 -0.3257
 1498TIP3    H125985   4.545   1.689   1.039  0.6108  0.2379  1.3657
 1498TIP3    H225986   4.679   1.669   0.972 -1.2065 -0.6812 -2.2917
 1499TIP3   OH225987   2.857   3.586   5.586 -0.2013 -0.2076  0.7492
 1499TIP3    H125988   2.930   3.605   5.645  0.1408 -0.8688  0.5371
 1499TIP3    H225989   2.780   3.615   5.635  0.3150  2.5636  0.1261
 1500TIP3   OH225990   0.888   5.885  12.312  0.2149  0.0877 -0.2645
 1500TIP3    H125991   0.814   5.837  12.276  1.5889 -0.6314 -2.2974
 1500TIP3    H225992   0.960   5.869  12.251  1.7362  1.7646  0.9590
 1501TIP3   OH225993   5.566   0.184  10.318 -0.2697  0.2336  0.0296
 1501TIP3    H125994   5.541   0.236  10.242  0.8109 -0.6087 -0.9445
 1501TIP3    H225995   5.568   0.247  10.390 -2.5618  0.8156 -0.3357
 1502TIP3   OH225996   1.351   5.859   2.523 -0.1625  0.1476  0.2496
 1502TIP3    H125997   1.325   5.943   2.484 -1.0758  0.7155  1.9531
 1502TIP3    H225998   1.278   5.837   2.581  0.7208 -1.1049  0.9238
 1503TIP3   OH225999   6.201   5.559  14.451 -0.5874 -0.0959  0.3224
 1503TIP3    H126000   6.245   5.607  14.522 -1.4652 -0.2941  1.0156
 1503TIP3    H226001   6.158   5.626  14.399  0.3979  0.0891 -0.2830
 1504TIP3   OH226002   6.771   2.779   1.068 -0.2496  0.0657  0.2690
 1504TIP3    H126003   6.688   2.792   1.022 -1.1338 -0.5894  1.6291
 1504TIP3    H226004   6.813   2.707   1.021 -0.0214  0.9668 -0.9648
 1505TIP3   OH226005   1.387   3.406   4.864 -0.2402  0.3021  0.7587
 1505TIP3    H126006   1.330   3.482   4.852 -1.0020 -0.3226  0.3119
 1505TIP3    H226007   1.424   3.417   4.951  1.3793  2.2979 -0.1088
 1506TIP3   OH226008   1.031   4.247   1.575  0.3771 -0.1945 -0.3613
 1506TIP3    H126009   0.994   4.298   1.647 -0.6296  1.0110 -1.6675
 1506TIP3    H226010   1.059   4.165   1.615 -0.0099  0.5024  1.4147
 1507TIP3   OH226011   1.547   2.917  15.763 -0.5224 -0.1101 -0.2217
 1507TIP3    H126012   1.530   2.958  15.848  1.0982  2.1975 -0.8869
 1507TIP3    H226013   1.483   2.956  15.704 -0.3522 -0.1612 -0.4425
 1508TIP3   OH226014   1.682   6.052   2.227  0.5770  0.8068  0.5086
 1508TIP3    H126015   1.735   6.124   2.194 -0.4469  1.2551 -0.2417
 1508TIP3    H226016   1.743   5.979   2.239  1.8488  2.0652  2.3117
 1509TIP3   OH226017   2.189   3.221   4.660 -0.4433  0.4885  0.5854
 1509TIP3    H126018   2.166   3.303   4.616  0.1413  0.7107  0.6928
 1509TIP3    H226019   2.104   3.184   4.685 -0.9034 -0.3000 -1.8605
 1510TIP3   OH226020   1.895   3.065   1.561  0.4552  0.3322 -0.4579
 1510TIP3    H126021   1.808   3.043   1.528 -0.2873 -1.1547  2.2353
 1510TIP3    H226022   1.941   2.981   1.565  2.0694  1.0798 -1.7852
 1511TIP3   OH226023   2.575   1.111   5.070 -0.4240 -0.4391 -0.1360
 1511TIP3    H126024   2.512   1.171   5.109 -0.5429 -0.9548  0.4900
 1511TIP3    H226025   2.659   1.156   5.076 -0.5833 -0.1520 -0.0828
 1512TIP3   OH226026   3.772   4.168   3.018  0.2017 -0.3637 -0.2748
 1512TIP3    H126027   3.866   4.154   3.032  1.0022  1.7163 -2.7203
 1512TIP3    H226028   3.761   4.160   2.923 -1.8235  0.7638 -0.1866
 1513TIP3   OH226029   4.922   4.195   2.396  0.1222 -0.1858 -0.6206
 1513TIP3    H126030   4.903   4.263   2.460  1.3733 -0.1668 -0.2589
 1513TIP3    H226031   5.001   4.224   2.352  0.5288 -1.2778 -0.6364
 1514TIP3   OH226032   5.025   1.517   3.743 -0.0622 -0.0088  0.0808
 1514TIP3    H126033   4.930   1.504   3.740 -0.1037  0.3649 -0.5030
 1514TIP3    H226034   5.042   1.585   3.677  0.5833  0.0986  0.3468
 1515TIP3   OH226035   6.289   1.927  11.076 -0.3794  0.3347 -0.7254
 1515TIP3    H126036   6.289   1.861  11.006  0.1869 -0.1037 -0.3161
 1515TIP3    H226037   6.347   1.891  11.143  0.6830  1.6697 -0.8921
 1516TIP3   OH226038   2.254   3.990  14.549  0.4235  0.1616  0.6961
 1516TIP3    H126039   2.169   3.958  14.520  0.2398  0.3612  1.0110
 1516TIP3    H226040   2.277   3.933  14.623  0.5286  0.1593  0.6624
 1517TIP3   OH226041   2.205   3.722   2.918  0.1493  0.3695  0.2718
 1517TIP3    H126042   2.254   3.656   2.968  0.9042  1.3892  0.9141
 1517TIP3    H226043   2.118   3.684   2.908  0.5928 -0.7729  0.5295
 1518TIP3   OH226044   5.731   2.441  12.287  0.2424 -0.5623 -0.2348
 1518TIP3    H126045   5.672   2.474  12.220  1.0555  1.3304 -0.1113
 1518TIP3    H226046   5.719   2.502  12.361  0.3787 -1.7602  0.8022
 1519TIP3   OH226047   1.130   5.210  12.105  0.4694 -0.1920 -0.3016
 1519TIP3    H126048   1.152   5.256  12.024  1.0078 -0.0976 -0.1042
 1519TIP3    H226049   1.059   5.151  12.080  0.1525  0.3357 -0.6834
 1520TIP3   OH226050   1.497   0.483   4.853 -0.0946  0.3266 -0.2213
 1520TIP3    H126051   1.491   0.558   4.794  0.0502 -0.9374 -1.8993
 1520TIP3    H226052   1.406   0.463   4.875 -0.2735 -0.1938 -1.3611
 1521TIP3   OH226053   1.135   2.530   0.253  0.5480  0.1278 -0.1293
 1521TIP3    H126054   1.200   2.560   0.188  0.5601  3.4113  1.1796
 1521TIP3    H226055   1.052   2.529   0.206  1.1239 -1.6627 -1.1877
 1522TIP3   OH226056   6.092   3.353   0.593 -0.5564  0.6161 -0.3909
 1522TIP3    H126057   6.186   3.357   0.578 -0.7588  2.5890 -1.4418
 1522TIP3    H226058   6.083   3.317   0.682  1.1885  0.9264 -0.0577
 1523TIP3   OH226059   4.700   6.196  16.156 -0.1022  0.1187 -0.2695
 1523TIP3    H126060   4.697   6.126  16.091 -1.8902 -0.7842  0.7010
 1523TIP3    H226061   4.608   6.216  16.174  0.3688  2.2220  0.0258
 1524TIP3   OH226062   5.317   0.194  16.125 -0.2359 -0.4628  0.6720
 1524TIP3    H126063   5.246   0.151  16.172 -1.1746 -1.0659 -1.2109
 1524TIP3    H226064   5.284   0.283  16.108 -0.6690 -0.7997 -0.3648
 1525TIP3   OH226065   0.671   6.525  11.778  0.2525 -0.5009 -0.2173
 1525TIP3    H126066   0.610   6.460  11.742  1.6289 -0.9649 -1.8206
 1525TIP3    H226067   0.699   6.487  11.862 -2.1024  0.0423  0.9192
 1526TIP3   OH226068   1.034   5.265   2.347 -0.4817  0.4591  0.0365
 1526TIP3    H126069   1.010   5.196   2.408  0.6560 -0.3363 -0.3784
 1526TIP3    H226070   1.113   5.304   2.384 -0.0654  0.2963 -0.6603
 1527TIP3   OH226071   4.134   1.051  11.741 -0.1036  0.1305 -0.2861
 1527TIP3    H126072   4.217   1.033  11.785 -0.6625  0.9519  1.1592
 1527TIP3    H226073   4.077   0.979  11.768 -0.3937  0.5434  0.2314
 1528TIP3   OH226074   5.541   0.046  12.327 -0.1372  0.3122 -0.7776
 1528TIP3    H126075   5.633   0.033  12.305 -0.6691 -2.2675 -1.8947
 1528TIP3    H226076   5.499  -0.036  12.302 -2.3999  0.5751  1.6988
 1529TIP3   OH226077   2.916   0.605   4.204 -0.1503  0.0933 -0.4099
 1529TIP3    H126078   2.997   0.580   4.248 -0.0853  0.6575 -0.2005
 1529TIP3    H226079   2.904   0.698   4.226 -1.7802 -0.3974  1.0135
 1530TIP3   OH226080   1.531   4.854  16.008  0.2180 -0.1769 -0.0068
 1530TIP3    H126081   1.593   4.783  15.992  1.5412  0.8027  0.5621
 1530TIP3    H226082   1.535   4.869  16.102  0.3910  1.0096 -0.1883
 1531TIP3   OH226083   6.337   6.251  13.911 -0.0008 -0.2750  0.0867
 1531TIP3    H126084   6.377   6.223  13.829  2.2907  0.5815  0.8382
 1531TIP3    H226085   6.254   6.203  13.915 -0.2135 -0.3029 -2.7138
 1532TIP3   OH226086   4.800   3.474   4.585  0.2143  0.0864 -0.0353
 1532TIP3    H126087   4.838   3.463   4.498  1.0092 -1.1279  0.4378
 1532TIP3    H226088   4.717   3.520   4.569 -0.8138 -2.1217 -1.7317
 1533TIP3   OH226089   0.966   2.469   1.305 -0.2855  0.4117 -0.3001
 1533TIP3    H126090   0.883   2.421   1.298 -0.4546  0.5593  0.5557
 1533TIP3    H226091   1.027   2.406   1.341  0.5201 -0.2893 -2.7286
 1534TIP3   OH226092   0.728   5.216  12.145  0.4109  0.1756 -0.5474
 1534TIP3    H126093   0.702   5.128  12.172 -0.7891  0.8204  0.4723
 1534TIP3    H226094   0.807   5.234  12.196  0.6754 -0.3052 -0.7766
 1535TIP3   OH226095   6.070   5.816  15.016  0.0487 -0.6265 -0.4455
 1535TIP3    H126096   6.085   5.740  15.071 -0.0712  0.1078  0.6300
 1535TIP3    H226097   6.067   5.890  15.077  1.6038  0.4342 -1.5809
 1536TIP3   OH226098   0.027   1.987   0.954  0.6667  0.1176 -0.0835
 1536TIP3    H126099   0.022   1.934   1.033 -0.6637 -0.1384 -0.3197
 1536TIP3    H226100  -0.062   1.985   0.917  0.6855  2.0672 -0.3766
 1537TIP3   OH226101   3.571   6.710  16.613 -0.0152 -0.2973  0.0030
 1537TIP3    H126102   3.562   6.615  16.611  2.5309 -0.6001 -1.2862
 1537TIP3    H226103   3.550   6.735  16.703 -1.7681 -1.9044  0.0962
 1538TIP3   OH226104   3.183   6.119  13.969  0.2467  0.1951  0.4620
 1538TIP3    H126105   3.182   6.092  13.877  0.9933  0.3457  0.4067
 1538TIP3    H226106   3.251   6.186  13.974  1.1170 -0.7341  1.3881
 1539TIP3   OH226107   0.810   1.320  14.887  0.3101  0.2251  0.2373
 1539TIP3    H126108   0.781   1.371  14.812 -0.1006  0.9218  0.8533
 1539TIP3    H226109   0.774   1.366  14.963 -1.7673 -2.0763  0.7593
 1540TIP3   OH226110   3.869   6.088  12.360 -0.1589  0.8650 -0.0446
 1540TIP3    H126111   3.951   6.048  12.330 -1.6376 -0.7397 -2.3290
 1540TIP3    H226112   3.817   6.096  12.280 -3.1650 -0.4830  1.6232
 1541TIP3   OH226113   6.232   0.426  13.395 -0.2977  0.7635  0.1072
 1541TIP3    H126114   6.242   0.421  13.300  0.5379  1.7193  0.1316
 1541TIP3    H226115   6.173   0.354  13.417 -1.0818  0.9728 -1.2168
 1542TIP3   OH226116   4.896   5.337  11.266  0.1735  0.1697 -0.0230
 1542TIP3    H126117   4.922   5.267  11.325 -0.2005 -0.5375 -0.6768
 1542TIP3    H226118   4.879   5.293  11.183 -0.2695  1.0109 -0.3882
 1543TIP3   OH226119   5.687   3.797  15.932  0.3842  0.0434 -0.2114
 1543TIP3    H126120   5.716   3.723  15.880  1.6029  1.2934 -1.3923
 1543TIP3    H226121   5.709   3.774  16.022  0.9033 -0.9500 -0.5836
 1544TIP3   OH226122   4.210   3.144   2.084 -0.0794 -0.2960  0.1648
 1544TIP3    H126123   4.212   3.076   2.016  0.0024 -0.1214 -0.0070
 1544TIP3    H226124   4.150   3.210   2.049  1.8067  0.9621 -0.8491
 1545TIP3   OH226125   2.990   6.503   2.142  0.1163  0.1903 -0.0531
 1545TIP3    H126126   3.075   6.532   2.175  0.8866 -0.5749 -1.2661
 1545TIP3    H226127   2.984   6.542   2.055  0.1978 -1.4277 -0.8319
 1546TIP3   OH226128   0.235   5.607  15.272 -0.1357 -0.4047  0.3058
 1546TIP3    H126129   0.184   5.678  15.310 -0.2670 -1.4849  2.2724
 1546TIP3    H226130   0.171   5.541  15.248  0.1927 -1.2111  1.5531
 1547TIP3   OH226131   2.777   3.021  11.995  0.2258 -0.3455 -0.0027
 1547TIP3    H126132   2.827   3.088  12.042 -0.4968  0.4926 -0.4042
 1547TIP3    H226133   2.794   3.039  11.903  1.2707 -1.6981 -0.0965
 1548TIP3   OH226134   0.517   3.514  16.339 -0.1395  0.1439 -0.3276
 1548TIP3    H126135   0.548   3.514  16.430 -0.1848 -1.6874 -0.2602
 1548TIP3    H226136   0.557   3.591  16.299  0.6125  0.4735  1.0055
 1549TIP3   OH226137   2.197   6.453   2.616  0.0643 -0.0301 -0.2218
 1549TIP3    H126138   2.106   6.455   2.644 -0.0576  0.2068 -0.6190
 1549TIP3    H226139   2.215   6.543   2.587  0.3110 -0.1597 -0.4843
 1550TIP3   OH226140   6.790   6.061  12.392 -0.0659  0.5497  0.0285
 1550TIP3    H126141   6.853   6.129  12.418  2.0466 -1.6892  1.2369
 1550TIP3    H226142   6.816   5.984  12.443 -2.8048 -0.9913 -0.7070
 1551TIP3   OH226143   1.605   5.423  15.268  0.5360 -0.2605 -0.1406
 1551TIP3    H126144   1.533   5.443  15.328 -0.6771  1.9036 -2.1607
 1551TIP3    H226145   1.653   5.506  15.260  2.1204 -1.1615 -0.3359
 1552TIP3   OH226146   5.451   2.299   3.377  0.6447 -0.1826  0.0618
 1552TIP3    H126147   5.503   2.378   3.387  0.1873  0.0660  0.5160
 1552TIP3    H226148   5.393   2.298   3.453 -2.0957  1.1129 -1.8449
 1553TIP3   OH226149   0.506   5.221   0.622  0.9071 -0.6711  0.5496
 1553TIP3    H126150   0.595   5.254   0.627  1.8540 -3.1173  1.4616
 1553TIP3    H226151   0.454   5.281   0.675  1.9087  0.9531 -0.2371
 1554TIP3   OH226152   1.198   6.725  13.524 -0.0670 -0.1031  0.2888
 1554TIP3    H126153   1.291   6.732  13.544 -0.0213 -0.4294  0.1984
 1554TIP3    H226154   1.158   6.799  13.568  0.2498  0.0891  0.2529
 1555TIP3   OH226155   1.303   6.634  12.156  0.1201  0.4301  0.7075
 1555TIP3    H126156   1.347   6.718  12.144  0.1826  0.5111  1.5087
 1555TIP3    H226157   1.323   6.585  12.076 -0.3680  1.3714 -0.0073
 1556TIP3   OH226158   2.257   1.387   2.703 -0.1243  0.9118  0.1952
 1556TIP3    H126159   2.222   1.471   2.733 -0.9289  0.6094  0.1184
 1556TIP3    H226160   2.323   1.411   2.637  2.1119  1.6148  2.5113
 1557TIP3   OH226161   1.847   0.223  10.647  0.1960  0.1925 -0.1152
 1557TIP3    H126162   1.927   0.179  10.620  0.7237  0.9058  0.2698
 1557TIP3    H226163   1.854   0.311  10.610  0.8946  1.1754  2.1808
 1558TIP3   OH226164   1.140   5.400   4.261 -0.0896 -0.6249  0.2451
 1558TIP3    H126165   1.154   5.360   4.347  1.2263  0.0868  0.3931
 1558TIP3    H226166   1.161   5.493   4.274 -2.2764  0.0026 -0.2822
 1559TIP3   OH226167   4.931   4.892  16.352 -0.1001 -0.3394  0.0487
 1559TIP3    H126168   4.867   4.907  16.283 -1.3138 -0.8536  1.0269
 1559TIP3    H226169   4.988   4.824  16.316 -0.0819  0.1274 -0.8374
 1560TIP3   OH226170   1.932   3.129  15.445  0.3537  0.1073 -0.1555
 1560TIP3    H126171   1.857   3.175  15.483  0.5774  0.9398 -0.6786
 1560TIP3    H226172   2.008   3.170  15.487  0.5126 -1.3723  1.0691
 1561TIP3   OH226173   1.292   2.339   2.894  0.0946  0.5524 -0.9416
 1561TIP3    H126174   1.277   2.352   2.988 -1.7725  2.8391 -1.4614
 1561TIP3    H226175   1.277   2.246   2.880  1.7514 -0.1189  1.1975
 1562TIP3   OH226176   6.437   0.792  16.758 -0.4404  0.3987 -0.0278
 1562TIP3    H126177   6.351   0.835  16.756 -0.8366 -0.3967 -0.4392
 1562TIP3    H226178   6.499   0.864  16.743 -0.9092  1.2415  1.8377
 1563TIP3   OH226179   0.985   1.366  14.701 -0.1676  0.2338  0.2097
 1563TIP3    H126180   1.065   1.314  14.690  0.4222  0.9183  1.1494
 1563TIP3    H226181   0.943   1.331  14.779 -1.2364 -0.6591 -0.7255
 1564TIP3   OH226182   4.622   0.232  13.329  0.0999  0.8435  0.0820
 1564TIP3    H126183   4.572   0.313  13.336 -0.7230  0.5524 -1.8152
 1564TIP3    H226184   4.713   0.261  13.321 -0.2683  1.6660 -1.4973
 1565TIP3   OH226185   3.636   4.646   3.050 -0.3666  0.4062 -0.6104
 1565TIP3    H126186   3.639   4.566   3.103  0.5127  0.1442 -1.0292
 1565TIP3    H226187   3.547   4.650   3.017 -0.1501 -0.9664 -1.4288
 1566TIP3   OH226188   4.513   2.617   3.265  0.0677 -0.2300  0.1191
 1566TIP3    H126189   4.561   2.694   3.296 -0.0570  0.6446 -1.7029
 1566TIP3    H226190   4.443   2.654   3.211 -1.8293 -1.5378  1.5753
 1567TIP3   OH226191   6.553   6.680  15.801  0.1641 -0.0009  0.0047
 1567TIP3    H126192   6.646   6.688  15.822  0.2528  0.3881 -0.5225
 1567TIP3    H226193   6.534   6.756  15.746 -0.3384 -0.3760 -0.3412
 1568TIP3   OH226194   3.214   1.292  15.399  0.0427 -0.1171 -0.0729
 1568TIP3    H126195   3.227   1.370  15.453  0.9971 -0.2597 -0.0731
 1568TIP3    H226196   3.296   1.244  15.406 -0.4054 -0.9515 -0.3570
 1569TIP3   OH226197   2.098   4.773  12.286 -0.1166  0.0367 -0.0085
 1569TIP3    H126198   2.153   4.716  12.233  1.4718  0.2034  1.3636
 1569TIP3    H226199   2.105   4.737  12.375 -2.4514 -0.0745  0.1952
 1570TIP3   OH226200   5.944   2.924  12.668  0.1416  0.1620  0.2288
 1570TIP3    H126201   5.971   2.922  12.760 -2.3614 -2.7873  1.0304
 1570TIP3    H226202   6.024   2.950  12.621  1.1673  3.1650  3.2135
 1571TIP3   OH226203   1.906   4.499  14.205  0.1931  0.2072 -0.0449
 1571TIP3    H126204   1.816   4.509  14.177  0.9153 -0.6816 -2.9924
 1571TIP3    H226205   1.904   4.425  14.266 -0.9755 -0.0919 -0.4239
 1572TIP3   OH226206   3.459   5.517  13.042 -0.1728 -0.0148  0.2361
 1572TIP3    H126207   3.546   5.552  13.024  0.0472  0.4733  2.0472
 1572TIP3    H226208   3.407   5.542  12.967  0.2587  3.2466  0.8919
 1573TIP3   OH226209   5.117   3.189  16.432  0.3222 -1.2419  0.0518
 1573TIP3    H126210   5.193   3.211  16.486 -0.8574 -0.7932  1.6069
 1573TIP3    H226211   5.095   3.270  16.387  0.2824 -1.1654  0.2090
 1574TIP3   OH226212   1.550   0.945   4.382  0.0828 -0.4211 -0.1999
 1574TIP3    H126213   1.560   1.030   4.424 -1.4601 -0.4513  0.2828
 1574TIP3    H226214   1.586   0.957   4.294  0.0453  0.6765 -0.0763
 1575TIP3   OH226215   5.413   0.064   1.911 -0.2877 -0.4394  0.3078
 1575TIP3    H126216   5.321   0.085   1.892  0.1236  1.1298 -0.1852
 1575TIP3    H226217   5.454   0.057   1.824  0.0586 -1.1341  0.5221
 1576TIP3   OH226218   5.227   1.932  13.407  0.3865 -1.4194 -0.2514
 1576TIP3    H126219   5.159   1.895  13.463  0.8815 -0.5190  0.9736
 1576TIP3    H226220   5.308   1.890  13.436  0.6569 -0.9038 -0.2550
 1577TIP3   OH226221   3.914   5.154   5.286 -0.3981 -0.0264  0.1038
 1577TIP3    H126222   3.914   5.058   5.287 -2.0822 -0.0564  0.3693
 1577TIP3    H226223   3.985   5.179   5.345  0.1451 -1.0908 -0.0718
 1578TIP3   OH226224   6.360   6.065  13.643 -0.0327  0.4557  0.1267
 1578TIP3    H126225   6.417   6.095  13.572  2.1977  0.7454  1.9454
 1578TIP3    H226226   6.349   5.972  13.626 -0.8051  0.7816 -1.3973
 1579TIP3   OH226227   5.715   3.070  16.320 -0.1830  0.0599 -0.1343
 1579TIP3    H126228   5.788   3.019  16.284 -0.6281 -2.2094  1.9386
 1579TIP3    H226229   5.641   3.050  16.263  0.0663 -0.1860 -0.3747
 1580TIP3   OH226230   6.272   0.407  13.115  0.1208  0.0208  0.5480
 1580TIP3    H126231   6.277   0.384  13.022  1.2719 -1.1537  0.8577
 1580TIP3    H226232   6.355   0.451  13.133 -0.3063  0.6921  0.9162
 1581TIP3   OH226233   2.884   6.156  13.697 -0.4280  0.4525 -0.2731
 1581TIP3    H126234   2.861   6.245  13.726 -1.9195 -0.2138  0.7669
 1581TIP3    H226235   2.867   6.102  13.774  1.9345 -0.5690 -0.3996
 1582TIP3   OH226236   4.046   1.138  13.500  0.0464 -0.2877  0.0716
 1582TIP3    H126237   4.089   1.193  13.434 -1.5505  1.8454  0.6997
 1582TIP3    H226238   4.116   1.084  13.535  1.4295  0.3115 -1.6077
 1583TIP3   OH226239   1.185   5.001   6.167  0.2988 -0.2050  0.7290
 1583TIP3    H126240   1.118   4.937   6.194 -0.3281 -1.1468 -2.6762
 1583TIP3    H226241   1.264   4.949   6.152  0.1762 -0.0093 -0.7139
 1584TIP3   OH226242   4.554   3.523  13.404  0.6415 -0.2520 -0.0697
 1584TIP3    H126243   4.594   3.436  13.394  0.6803 -0.1851 -0.4889
 1584TIP3    H226244   4.527   3.547  13.316  0.2834 -0.0018  0.1106
 1585TIP3   OH226245   6.328   2.146   0.590 -0.2790 -0.1535 -0.0637
 1585TIP3    H126246   6.284   2.166   0.507 -0.6154  1.0442  0.3875
 1585TIP3    H226247   6.387   2.220   0.604 -0.4450 -0.1980  0.9156
 1586TIP3   OH226248   5.870   3.397   5.362 -0.2439 -0.3835  0.5136
 1586TIP3    H126249   5.795   3.400   5.303 -0.4656  2.3921  0.8236
 1586TIP3    H226250   5.832   3.385   5.449 -0.0676 -2.0220  0.4025
 1587TIP3   OH226251   1.446   6.577   3.284  0.1307  0.1868 -0.5446
 1587TIP3    H126252   1.454   6.482   3.273 -0.6038  0.2055 -1.3173
 1587TIP3    H226253   1.468   6.613   3.198 -0.1204  0.6883 -0.4038
 1588TIP3   OH226254   4.185   1.745  15.874 -0.4322  0.4586  0.3705
 1588TIP3    H126255   4.169   1.671  15.815  0.5645  0.5801 -0.0675
 1588TIP3    H226256   4.148   1.717  15.958  2.3796 -1.7607  1.0164
 1589TIP3   OH226257   6.411   1.112  15.895  0.0016 -0.0221 -0.3794
 1589TIP3    H126258   6.345   1.174  15.925 -0.1906 -0.5616  0.3354
 1589TIP3    H226259   6.415   1.125  15.800 -0.1612  0.9477 -0.2634
 1590TIP3   OH226260   4.887   3.129   6.475 -0.7670 -0.7805 -0.1681
 1590TIP3    H126261   4.880   3.033   6.472 -0.7812 -0.7565 -1.0841
 1590TIP3    H226262   4.802   3.158   6.508 -0.9062 -1.0651 -0.2730
 1591TIP3   OH226263   5.577   0.448  13.156 -0.0031  0.2817 -1.1015
 1591TIP3    H126264   5.545   0.524  13.204 -0.6998 -1.0289  0.5945
 1591TIP3    H226265   5.508   0.429  13.092 -0.4636  0.2573 -0.6022
 1592TIP3   OH226266   4.833   2.499   1.105 -0.0590  0.3551 -0.1003
 1592TIP3    H126267   4.927   2.495   1.124 -0.2191 -1.6909  0.5081
 1592TIP3    H226268   4.792   2.451   1.177 -1.4476  0.0255 -1.0727
 1593TIP3   OH226269   0.443   1.739   0.663  0.4864 -0.1605 -0.2328
 1593TIP3    H126270   0.524   1.759   0.710  0.0380  0.2175  0.3932
 1593TIP3    H226271   0.470   1.729   0.571  1.2442 -0.0941 -0.0212
 1594TIP3   OH226272   3.018   5.697   1.890  0.0525 -0.4937  0.2026
 1594TIP3    H126273   3.045   5.784   1.863  1.4943 -0.9017  0.2772
 1594TIP3    H226274   2.927   5.690   1.860  0.1093  0.7935 -0.3346
 1595TIP3   OH226275   5.260   5.162  12.501  0.0823  0.9281 -0.3161
 1595TIP3    H126276   5.225   5.175  12.589  2.4640 -1.0510  1.0674
 1595TIP3    H226277   5.304   5.245  12.480  2.1361  0.4779  1.7848
 1596TIP3   OH226278   4.495   4.289   5.882  0.1255 -0.5168 -0.0873
 1596TIP3    H126279   4.417   4.310   5.933 -1.1385 -0.5555 -1.9286
 1596TIP3    H226280   4.562   4.350   5.915 -0.7143 -0.3533  1.3817
 1597TIP3   OH226281   0.964   0.492  12.781 -0.2689  0.2333  0.2366
 1597TIP3    H126282   1.005   0.578  12.769 -1.0434  0.5631 -0.1888
 1597TIP3    H226283   1.025   0.430  12.741 -0.3273  0.7427 -0.6690
 1598TIP3   OH226284   1.680   5.815   3.015 -0.1049  0.0080  0.1531
 1598TIP3    H126285   1.642   5.756   3.080  3.1120 -0.7093  1.6114
 1598TIP3    H226286   1.617   5.815   2.943 -2.4578 -1.4737  2.0545
 1599TIP3   OH226287   0.507   2.869  14.445  0.0371 -0.2477 -0.1819
 1599TIP3    H126288   0.594   2.880  14.405  0.9692  0.1601  1.8527
 1599TIP3    H226289   0.462   2.952  14.428 -0.1881 -0.6486 -1.6946
 1600TIP3   OH226290   3.878   6.703   0.103 -0.0203 -0.4300 -0.1400
 1600TIP3    H126291   3.790   6.716   0.139 -1.0818 -2.4019 -1.8377
 1600TIP3    H226292   3.867   6.712   0.008  1.8548  0.3982 -0.3298
 1601TIP3   OH226293   0.597   4.084  13.735  0.0917 -0.0142 -0.3593
 1601TIP3    H126294   0.664   4.135  13.689 -0.7736  0.1432 -1.4770
 1601TIP3    H226295   0.644   4.008  13.769  1.1187  0.8196  0.1219
 1602TIP3   OH226296   1.441   5.007  14.738 -0.1550 -0.1853 -0.3862
 1602TIP3    H126297   1.401   5.067  14.801 -0.7326 -0.6267 -0.3187
 1602TIP3    H226298   1.375   4.997  14.669 -0.0589 -0.7212 -0.4076
 1603TIP3   OH226299   5.572   2.542   1.888  0.1189 -0.2931  0.4905
 1603TIP3    H126300   5.589   2.576   1.976  1.0620 -0.9007  0.5500
 1603TIP3    H226301   5.658   2.533   1.848 -0.3531  2.0258 -1.2996
 1604TIP3   OH226302   0.228   4.892  12.893  0.2413  1.0007  0.0400
 1604TIP3    H126303   0.247   4.971  12.944  0.7832  0.0268  1.4141
 1604TIP3    H226304   0.314   4.854  12.875 -0.0224  0.6207 -0.4500
 1605TIP3   OH226305   0.556   2.220   3.929 -0.8689 -0.3150  0.3065
 1605TIP3    H126306   0.582   2.131   3.903 -0.1943 -0.5159  1.5942
 1605TIP3    H226307   0.608   2.278   3.874  0.7945 -0.7232  1.4008
 1606TIP3   OH226308   5.997   5.306   3.310  0.1457  0.0239 -0.5414
 1606TIP3    H126309   6.003   5.211   3.306  3.1863 -0.1347  2.8624
 1606TIP3    H226310   6.073   5.338   3.262  0.0917  0.6500 -0.2257
 1607TIP3   OH226311   0.511   1.019   0.890  0.0083 -0.0070  0.3575
 1607TIP3    H126312   0.426   1.025   0.933 -0.2872  0.1220 -0.2440
 1607TIP3    H226313   0.541   0.929   0.908  0.1098  0.1911  1.2354
 1608TIP3   OH226314   3.610   1.588  15.047  0.7077  0.3186  0.0304
 1608TIP3    H126315   3.549   1.517  15.067  1.9781 -0.7538  0.2946
 1608TIP3    H226316   3.588   1.657  15.110 -1.1837  0.5732 -0.8702
 1609TIP3   OH226317   5.563   0.613  16.082  0.2644 -0.1099 -0.2084
 1609TIP3    H126318   5.521   0.537  16.041  0.4441  0.4842 -1.5548
 1609TIP3    H226319   5.597   0.663  16.008  0.3008  1.1952  0.6741
 1610TIP3   OH226320   1.088   6.264  16.295  0.3795  0.2458 -0.1759
 1610TIP3    H126321   1.088   6.317  16.375 -0.6159  0.1246 -0.0923
 1610TIP3    H226322   0.996   6.243  16.279  0.7062 -1.1083 -0.4454
 1611TIP3   OH226323   3.684   4.396  17.124  0.1425  0.8919 -0.1548
 1611TIP3    H126324   3.640   4.432  17.201  0.0449 -0.6637  0.5408
 1611TIP3    H226325   3.683   4.468  17.061 -1.6960  1.5143  0.5147
 1612TIP3   OH226326   3.202   5.285   1.135  0.1769  0.2220  0.3558
 1612TIP3    H126327   3.248   5.292   1.219  1.0252 -1.1323  0.0439
 1612TIP3    H226328   3.146   5.209   1.144  0.0861  0.2142 -0.2148
 1613TIP3   OH226329   3.229   4.830   2.523  0.2064 -0.3902 -0.2781
 1613TIP3    H126330   3.321   4.857   2.518  0.2134 -0.6392 -2.3014
 1613TIP3    H226331   3.227   4.768   2.596  1.2685  0.8608  0.8989
 1614TIP3   OH226332   4.982   2.301  12.390 -0.0140  0.0539  0.0852
 1614TIP3    H126333   4.900   2.333  12.351  0.1877 -1.0617 -1.3448
 1614TIP3    H226334   4.957   2.224  12.440 -0.1626  1.0732  1.6249
 1615TIP3   OH226335   6.597   1.160   4.144 -0.2014  0.3107  0.3218
 1615TIP3    H126336   6.522   1.143   4.086  0.6040  0.4508 -0.7989
 1615TIP3    H226337   6.604   1.081   4.198 -0.8527  0.0964  0.1094
 1616TIP3   OH226338   2.923   6.342   5.673  0.5684  0.2576  0.3088
 1616TIP3    H126339   2.907   6.418   5.617  1.0425  0.2446  0.1472
 1616TIP3    H226340   2.909   6.375   5.762 -3.0193 -0.4185  0.1299
 1617TIP3   OH226341   2.662   1.090  17.151 -0.3795  0.7768  0.3302
 1617TIP3    H126342   2.696   1.014  17.199  1.4390  1.0059 -0.5032
 1617TIP3    H226343   2.681   1.165  17.207 -1.5854  0.7080  0.8595
 1618TIP3   OH226344   3.887   5.072   2.115  0.4216  0.1049 -0.1746
 1618TIP3    H126345   3.938   5.143   2.076  0.2458  0.7815  0.7696
 1618TIP3    H226346   3.797   5.090   2.088  0.7338 -1.7077 -2.7611
 1619TIP3   OH226347   0.029   1.085  12.968 -0.4207 -0.5816  0.2526
 1619TIP3    H126348  -0.008   1.173  12.971  0.3176 -0.1925 -1.0303
 1619TIP3    H226349  -0.032   1.036  12.912  0.4866 -0.1724 -1.1451
 1620TIP3   OH226350   4.452   2.578   0.519  0.4677  0.4593  0.2852
 1620TIP3    H126351   4.373   2.590   0.572 -0.2065 -0.5214 -0.4704
 1620TIP3    H226352   4.495   2.502   0.558 -0.7901 -1.2110 -1.3869
 1621TIP3   OH226353   5.169   4.056   5.682  0.7824  0.1133 -0.4945
 1621TIP3    H126354   5.252   4.081   5.723  0.4949  0.8743 -0.3480
 1621TIP3    H226355   5.188   4.053   5.588  1.7532 -2.8324 -0.2922
 1622TIP3   OH226356   4.251   6.137  10.985 -0.4667 -0.1998  0.4247
 1622TIP3    H126357   4.319   6.181  10.933  0.2345  0.4190  1.8078
 1622TIP3    H226358   4.169   6.174  10.952 -0.2077 -1.2364 -1.5336
 1623TIP3   OH226359   2.978   4.127   1.423  0.5134  0.1610 -0.2156
 1623TIP3    H126360   2.938   4.161   1.503 -0.6021  1.0600 -1.1220
 1623TIP3    H226361   3.045   4.065   1.454  1.3033  1.7539  1.4494
 1624TIP3   OH226362   2.827   4.564  14.916 -0.2575 -0.4294  0.2072
 1624TIP3    H126363   2.855   4.566  14.824  1.2536 -0.8667  0.6294
 1624TIP3    H226364   2.829   4.656  14.943 -0.6096 -0.3083 -0.1674
 1625TIP3   OH226365   0.029   5.608  13.417 -0.3187 -0.4491  0.2259
 1625TIP3    H126366   0.048   5.639  13.505 -0.5891 -1.4639  0.6523
 1625TIP3    H226367  -0.031   5.534  13.430  0.6948 -1.4730 -0.7251
 1626TIP3   OH226368   5.712   5.231  16.019  0.0818 -0.4350 -0.1528
 1626TIP3    H126369   5.755   5.145  16.028 -1.0892 -1.1594 -1.0966
 1626TIP3    H226370   5.630   5.212  15.973 -0.8420  1.0300  0.8133
 1627TIP3   OH226371   3.322   6.474   2.474  0.6317  0.3631 -0.3387
 1627TIP3    H126372   3.278   6.395   2.441 -1.1176  0.8419  0.6854
 1627TIP3    H226373   3.403   6.441   2.513  0.0615 -0.9180 -0.1555
 1628TIP3   OH226374   5.863   0.634  15.701  0.4368  0.0153  0.7409
 1628TIP3    H126375   5.953   0.665  15.691  1.1962 -2.0296  0.9022
 1628TIP3    H226376   5.832   0.621  15.611  0.8828 -0.8641  0.7127
 1629TIP3   OH226377   3.020   0.845   4.574 -0.1994 -0.4541 -0.3756
 1629TIP3    H126378   3.010   0.785   4.648  1.2838 -0.1180  0.1451
 1629TIP3    H226379   3.105   0.887   4.589  0.7881 -1.3436 -2.9508
 1630TIP3   OH226380   2.870   4.256   3.280  0.1936 -0.5002  0.3898
 1630TIP3    H126381   2.963   4.239   3.266  0.0246 -1.9843  0.9689
 1630TIP3    H226382   2.825   4.194   3.223 -0.4354 -0.8379  1.2370
 1631TIP3   OH226383   0.970   6.273   2.546 -0.6518 -0.0152  0.0393
 1631TIP3    H126384   1.048   6.280   2.491 -0.7464 -1.6543 -0.3480
 1631TIP3    H226385   0.912   6.342   2.516  0.1606  0.4493 -0.4826
 1632TIP3   OH226386   1.369   2.350  15.654 -0.3444 -0.6163 -0.2307
 1632TIP3    H126387   1.306   2.397  15.599 -0.3078 -0.5218 -0.1933
 1632TIP3    H226388   1.319   2.325  15.731 -0.2954 -0.3940 -0.1250
 1633TIP3   OH226389   4.373   5.096  14.257  0.4238  0.3590  0.5165
 1633TIP3    H126390   4.390   5.179  14.302  0.1497 -0.7000  2.6802
 1633TIP3    H226391   4.278   5.084  14.263  0.0510  1.1596 -2.2504
 1634TIP3   OH226392   1.179   2.981  11.044 -0.4055 -0.1046 -0.1242
 1634TIP3    H126393   1.234   2.945  10.974  0.9244  1.9871 -0.2307
 1634TIP3    H226394   1.184   2.916  11.114  2.7027  0.1928  0.0849
 1635TIP3   OH226395   3.754   2.477  13.034 -0.4224  0.4828  0.3882
 1635TIP3    H126396   3.836   2.431  13.018 -0.3706  0.7487 -0.1465
 1635TIP3    H226397   3.770   2.527  13.114 -0.0688  0.5181  0.2968
 1636TIP3   OH226398   3.269   3.978   2.150  0.4544  0.8274  0.0311
 1636TIP3    H126399   3.207   4.011   2.084 -1.8556  0.1153  1.6982
 1636TIP3    H226400   3.277   4.048   2.214  1.6099  1.0006 -0.2827
 1637TIP3   OH226401   5.503   3.351   3.729 -0.0632  0.0701 -0.2665
 1637TIP3    H126402   5.465   3.351   3.817 -1.7247  2.4430 -0.8750
 1637TIP3    H226403   5.591   3.388   3.742 -0.1380  0.0217  0.4366
 1638TIP3   OH226404   0.171   3.080  13.268  0.3824 -0.1635  0.3380
 1638TIP3    H126405   0.114   3.007  13.292 -0.0536 -0.0136 -0.2262
 1638TIP3    H226406   0.259   3.050  13.292  0.2264 -0.9463 -0.0442
 1639TIP3   OH226407   2.176   4.204  13.076  0.5061  0.0164 -0.4555
 1639TIP3    H126408   2.177   4.113  13.106  1.4665 -0.2494 -1.2415
 1639TIP3    H226409   2.085   4.232  13.089  0.4896 -0.6130  1.0413
 1640TIP3   OH226410   4.059   0.690   4.494  0.1600 -0.8086  0.0557
 1640TIP3    H126411   4.118   0.736   4.434  0.8970 -1.8748 -0.0652
 1640TIP3    H226412   4.087   0.599   4.489 -0.2725 -1.0339  1.4432
 1641TIP3   OH226413   3.153   3.380   5.269 -0.4987 -0.2510 -0.6519
 1641TIP3    H126414   3.109   3.462   5.249 -0.2311  0.0311 -0.1111
 1641TIP3    H226415   3.153   3.376   5.365  1.6186  0.3105 -0.5764
 1642TIP3   OH226416   5.156   2.223  13.383  0.0281 -0.0724  0.3660
 1642TIP3    H126417   5.193   2.159  13.443  0.7228 -0.9577 -0.9522
 1642TIP3    H226418   5.142   2.301  13.436  0.7438 -0.7746  1.6240
 1643TIP3   OH226419   2.060   4.106   4.634 -0.5666 -0.2018  0.1063
 1643TIP3    H126420   2.042   4.186   4.684  0.3505 -0.3931  0.7793
 1643TIP3    H226421   2.119   4.056   4.691  0.7724 -0.2818 -1.2946
 1644TIP3   OH226422   3.868   5.689  12.744  0.1795 -0.2586  0.2918
 1644TIP3    H126423   3.909   5.603  12.735 -0.8649 -0.8195  0.7644
 1644TIP3    H226424   3.777   5.675  12.717 -0.1968  0.5204  1.1227
 1645TIP3   OH226425   0.025   3.468   1.616 -0.6337  0.0620  0.3105
 1645TIP3    H126426   0.051   3.382   1.583  0.3446  0.3649  0.2476
 1645TIP3    H226427  -0.057   3.452   1.663 -0.2926 -0.9565  0.5855
 1646TIP3   OH226428   2.721   2.599   4.281  0.1666  0.1999  0.1192
 1646TIP3    H126429   2.658   2.528   4.286 -0.3932  0.6838  0.0395
 1646TIP3    H226430   2.806   2.555   4.273 -0.3378 -0.4520 -2.2390
 1647TIP3   OH226431   4.667   6.804   2.176 -0.0555 -0.2421  0.6547
 1647TIP3    H126432   4.597   6.807   2.241 -0.2574 -0.4475  0.4528
 1647TIP3    H226433   4.702   6.893   2.174 -0.9561  0.1171  0.0741
 1648TIP3   OH226434   2.004   6.056   6.176  0.2408  0.1301 -0.1425
 1648TIP3    H126435   2.042   6.142   6.160 -2.8763  1.7934  0.5039
 1648TIP3    H226436   1.989   6.053   6.271 -0.3577 -0.7988 -0.2463
 1649TIP3   OH226437   6.471   4.314  11.216  0.7335 -0.2869  0.9247
 1649TIP3    H126438   6.449   4.244  11.155  2.6602  0.2327 -0.4265
 1649TIP3    H226439   6.544   4.360  11.176 -0.6028  2.6993  1.6242
 1650TIP3   OH226440   0.627   6.699   5.834  0.1797 -0.7083  0.0820
 1650TIP3    H126441   0.596   6.631   5.894 -0.5685 -0.3104  0.1458
 1650TIP3    H226442   0.722   6.700   5.847  0.2763 -2.1132 -0.3036
 1651TIP3   OH226443   4.587   0.074   3.737  0.3053  0.4852  0.2896
 1651TIP3    H126444   4.540   0.010   3.790 -1.4706  0.8052 -0.8178
 1651TIP3    H226445   4.552   0.159   3.765  0.1517  0.7297 -0.6128
 1652TIP3   OH226446   2.101   5.661   5.885 -0.2913 -0.1169  0.6505
 1652TIP3    H126447   2.086   5.711   5.965 -0.7113  0.4804  0.2088
 1652TIP3    H226448   2.166   5.595   5.909  0.2968  0.6613  1.2380
 1653TIP3   OH226449   6.829   4.113  13.382 -0.1541  0.1321 -0.2708
 1653TIP3    H126450   6.788   4.049  13.440  1.0498 -0.6962 -0.3138
 1653TIP3    H226451   6.918   4.080  13.368  0.3044  1.5115 -0.7604
 1654TIP3   OH226452   2.327   1.637  12.406 -0.2837 -0.2155  0.2416
 1654TIP3    H126453   2.251   1.693  12.388 -0.1222 -0.0075  0.2151
 1654TIP3    H226454   2.341   1.645  12.500  0.3431  0.5554  0.0915
 1655TIP3   OH226455   0.294   5.157   1.776  0.1592 -0.2085  0.2786
 1655TIP3    H126456   0.226   5.199   1.724  0.0827 -1.2682 -0.5177
 1655TIP3    H226457   0.322   5.224   1.838 -0.4962  0.7488 -0.4305
 1656TIP3   OH226458   0.019   2.359  14.926 -0.5305 -0.2083 -0.1290
 1656TIP3    H126459  -0.051   2.371  14.862  0.1092 -0.8894 -0.9847
 1656TIP3    H226460   0.097   2.339  14.873  0.3870  0.8504  0.7757
 1657TIP3   OH226461   4.677   4.543  14.373  0.1163  0.0854 -0.9787
 1657TIP3    H126462   4.679   4.637  14.356  0.5112 -0.1940 -2.6143
 1657TIP3    H226463   4.767   4.514  14.357  0.4675 -0.3064  1.3530
 1658TIP3   OH226464   5.716   3.894  15.648 -0.1194 -0.3369 -0.2283
 1658TIP3    H126465   5.695   3.982  15.619 -1.2507  0.1752  1.9126
 1658TIP3    H226466   5.661   3.880  15.725  1.0264 -2.4027  0.3098
 1659TIP3   OH226467   1.841   6.662   2.720 -0.1521 -0.0393  0.2180
 1659TIP3    H126468   1.829   6.718   2.797  0.1244 -0.5183  0.6244
 1659TIP3    H226469   1.762   6.608   2.717 -1.9287  2.4837 -2.0405
 1660TIP3   OH226470   0.243   2.556  12.059 -0.7656 -0.0864 -0.3921
 1660TIP3    H126471   0.270   2.587  12.145 -3.0792 -0.0027  0.3730
 1660TIP3    H226472   0.294   2.608  11.997 -0.8078  1.5833  0.9110
 1661TIP3   OH226473   1.945   0.565   1.049  0.7116 -0.3618 -0.3208
 1661TIP3    H126474   1.915   0.504   0.981  0.0780  0.0793 -0.4499
 1661TIP3    H226475   1.966   0.645   1.001 -0.9019  0.3666  0.0996
 1662TIP3   OH226476   0.521   4.485  14.235 -0.1153  0.3106 -0.3072
 1662TIP3    H126477   0.450   4.427  14.263  1.3703 -0.9148  1.1082
 1662TIP3    H226478   0.558   4.442  14.158  0.5803 -0.3509  0.3707
 1663TIP3   OH226479   1.809   3.832  13.474 -0.5226 -0.1163  0.7605
 1663TIP3    H126480   1.854   3.841  13.558 -4.0314  0.6072  2.7232
 1663TIP3    H226481   1.786   3.922  13.449 -0.6259 -0.4400 -0.3637
 1664TIP3   OH226482   5.725   6.689  10.758  0.3572 -0.2834 -0.0510
 1664TIP3    H126483   5.815   6.671  10.785  1.1918 -0.9598 -2.8907
 1664TIP3    H226484   5.728   6.776  10.719 -0.6991  0.5181  1.5698
 1665TIP3   OH226485   0.285   2.152   5.895  0.1033  0.0508 -0.0597
 1665TIP3    H126486   0.303   2.058   5.894 -0.3700 -0.0723  1.4257
 1665TIP3    H226487   0.195   2.159   5.928 -0.6355  0.9384 -2.0836
 1666TIP3   OH226488   4.654   2.590  13.920  0.0739 -0.1982  0.0990
 1666TIP3    H126489   4.646   2.654  13.991  2.3802 -1.4885  1.6839
 1666TIP3    H226490   4.641   2.641  13.840  0.0555  1.8828  1.3443
 1667TIP3   OH226491   3.190   1.095   5.142  0.2018  0.2432 -0.2613
 1667TIP3    H126492   3.196   1.185   5.108 -1.3019  0.7003  0.5895
 1667TIP3    H226493   3.096   1.077   5.145  0.2847 -0.1345  2.6112
 1668TIP3   OH226494   5.536   2.802   4.944 -0.1672  0.4942 -0.1516
 1668TIP3    H126495   5.591   2.810   4.867  0.7946 -1.0172  0.3289
 1668TIP3    H226496   5.469   2.869   4.933  2.3856  3.2371 -0.2150
 1669TIP3   OH226497   1.125   4.868   3.007  0.0989 -0.0051  0.3199
 1669TIP3    H126498   1.033   4.889   3.021 -0.0431  0.3385 -1.0359
 1669TIP3    H226499   1.138   4.785   3.054 -1.0015 -0.2759  0.1677
 1670TIP3   OH226500   4.898   4.636  11.646  0.3244  0.3108 -0.2325
 1670TIP3    H126501   4.882   4.689  11.568  0.2511 -1.1564 -1.2735
 1670TIP3    H226502   4.823   4.652  11.702  0.3145  1.3012 -0.5058
 1671TIP3   OH226503   1.385   6.731   1.166 -0.1676 -0.5609 -0.6242
 1671TIP3    H126504   1.404   6.654   1.112  0.6936  0.3413 -1.6495
 1671TIP3    H226505   1.457   6.792   1.147 -1.6303  1.1180 -1.0063
 1672TIP3   OH226506   4.756   1.726   0.820  0.3993 -0.6083 -0.4268
 1672TIP3    H126507   4.775   1.702   0.729 -0.2604  0.3305 -0.8152
 1672TIP3    H226508   4.679   1.782   0.816 -0.3784 -1.5141  0.8261
 1673TIP3   OH226509   3.874   4.553   1.609  0.0483  0.0409  0.7436
 1673TIP3    H126510   3.877   4.607   1.530 -1.3430 -0.2815  0.4419
 1673TIP3    H226511   3.793   4.503   1.601  0.4041 -0.7709  1.8836
 1674TIP3   OH226512   5.510   3.465   4.597 -0.3219 -0.4214  0.1599
 1674TIP3    H126513   5.593   3.448   4.641  0.2790 -0.8228 -1.0709
 1674TIP3    H226514   5.529   3.451   4.504 -1.5194  0.4615 -0.2408
 1675TIP3   OH226515   1.739   0.486  10.794  0.0676 -0.0236 -0.4759
 1675TIP3    H126516   1.644   0.478  10.785 -0.1121 -0.3921  1.4609
 1675TIP3    H226517   1.769   0.506  10.705 -2.0243  2.3067 -0.7812
 1676TIP3   OH226518   4.481   5.838  12.934 -0.0171  0.2277  0.6526
 1676TIP3    H126519   4.459   5.818  12.843 -0.6769 -1.2241  1.0952
 1676TIP3    H226520   4.502   5.931  12.934 -0.5569  0.3790 -0.8849
 1677TIP3   OH226521   1.417   1.713  13.484  0.0831  0.3008  0.1492
 1677TIP3    H126522   1.403   1.753  13.570  1.1111 -0.0011  0.4690
 1677TIP3    H226523   1.410   1.619  13.500  1.8765  0.1486  0.2466
 1678TIP3   OH226524   5.114   6.554  13.786  0.7508  0.3717  0.2967
 1678TIP3    H126525   5.137   6.611  13.712 -0.5194  0.1688 -0.2672
 1678TIP3    H226526   5.105   6.467  13.748 -4.0240  0.8574 -0.2473
 1679TIP3   OH226527   4.200   2.850   2.373  0.2941  0.3167 -0.3752
 1679TIP3    H126528   4.194   2.867   2.467  0.8994 -0.3026 -0.2119
 1679TIP3    H226529   4.288   2.879   2.349  0.0916  0.6059 -0.7821
 1680TIP3   OH226530   5.666   2.406   1.172 -0.7036  0.2749  0.1358
 1680TIP3    H126531   5.596   2.417   1.107 -1.4193  0.4026  0.9061
 1680TIP3    H226532   5.718   2.486   1.164  0.2576 -0.4733 -1.4719
 1681TIP3   OH226533   0.032   1.382  11.169  0.1259  0.2606 -0.2420
 1681TIP3    H126534   0.065   1.461  11.127 -0.0340  0.4049 -0.0963
 1681TIP3    H226535   0.097   1.315  11.148  0.5214  0.5457  0.0539
 1682TIP3   OH226536   6.648   0.214  11.676  0.8007  0.1053 -1.5221
 1682TIP3    H126537   6.667   0.261  11.594  0.7193  0.0722 -1.5597
 1682TIP3    H226538   6.731   0.176  11.702  0.9592  0.6099 -1.2772
 1683TIP3   OH226539   5.498   0.222   5.625  0.0488 -0.0110  0.2533
 1683TIP3    H126540   5.489   0.127   5.632 -1.5992 -0.1332 -2.2495
 1683TIP3    H226541   5.574   0.243   5.680 -0.5268 -2.5104  2.2275
 1684TIP3   OH226542   1.531   1.798   9.982 -0.5371 -0.2905  0.2868
 1684TIP3    H126543   1.591   1.729   9.954 -0.8224 -0.2514 -0.4334
 1684TIP3    H226544   1.588   1.872  10.006 -0.3072 -0.0505 -0.9444
 1685TIP3   OH226545   6.773   1.735   3.974 -0.8909 -0.5299 -0.0212
 1685TIP3    H126546   6.700   1.712   3.916 -0.2578  0.2161 -1.1492
 1685TIP3    H226547   6.746   1.702   4.059 -2.0801 -1.2155 -0.6237
 1686TIP3   OH226548   5.494   2.193  13.526  0.2700 -0.2337 -0.7569
 1686TIP3    H126549   5.571   2.207  13.582 -0.5252 -2.5349  1.0501
 1686TIP3    H226550   5.424   2.168  13.587 -1.3443 -0.3924 -2.5748
 1687TIP3   OH226551   1.310   3.204   0.509  0.2469  0.3696  0.0464
 1687TIP3    H126552   1.332   3.111   0.507  0.8367  0.4702  1.0943
 1687TIP3    H226553   1.232   3.212   0.453 -1.2543 -1.1663  1.7773
 1688TIP3   OH226554   0.766   4.844   3.328  0.3368 -0.3495  0.4850
 1688TIP3    H126555   0.705   4.815   3.396  0.0280 -0.7391  0.0437
 1688TIP3    H226556   0.837   4.780   3.331  0.5286 -0.1284  0.7211
 1689TIP3   OH226557   1.483   4.136  16.083 -0.0145 -0.9511 -0.3309
 1689TIP3    H126558   1.527   4.100  16.005 -0.8110 -1.5616 -0.5071
 1689TIP3    H226559   1.410   4.186  16.048  0.9753  0.7361 -0.0751
 1690TIP3   OH226560   5.079   5.583   2.581 -0.5361  0.3912  0.1289
 1690TIP3    H126561   5.068   5.488   2.574 -2.0289  0.4667  1.0922
 1690TIP3    H226562   5.170   5.598   2.555  0.1955 -1.4661  1.3826
 1691TIP3   OH226563   3.967   6.518  16.413 -0.5251  0.2952 -0.4393
 1691TIP3    H126564   3.915   6.494  16.490  1.2251 -0.8602  0.4348
 1691TIP3    H226565   3.944   6.452  16.348 -0.4018 -0.0269 -0.1622
 1692TIP3   OH226566   4.829   4.714  14.585  0.3353 -0.4595 -0.4515
 1692TIP3    H126567   4.897   4.778  14.563 -0.7327  1.1897  0.8493
 1692TIP3    H226568   4.768   4.719  14.512 -0.6943  1.4334  0.4710
 1693TIP3   OH226569   4.448   1.491   2.557  0.3065 -0.3336  0.5116
 1693TIP3    H126570   4.495   1.568   2.588 -0.5274 -0.4957  2.2671
 1693TIP3    H226571   4.491   1.468   2.474  3.4752 -0.6487  2.1191
 1694TIP3   OH226572   2.075   2.251  13.980 -0.0109  0.4635 -0.1008
 1694TIP3    H126573   2.131   2.325  14.004  1.1450 -0.5750  0.5301
 1694TIP3    H226574   2.107   2.222  13.895  0.6892 -0.3651  0.4280
 1695TIP3   OH226575   1.150   6.819  12.964 -0.2099  0.1720  0.1709
 1695TIP3    H126576   1.233   6.791  12.926 -0.6105  0.4678 -0.9736
 1695TIP3    H226577   1.084   6.791  12.901 -0.8163  1.4937  0.1695
 1696TIP3   OH226578   1.345   0.076  14.831 -0.5852  0.3177  0.0005
 1696TIP3    H126579   1.339   0.162  14.872 -0.6743 -0.6186  2.1126
 1696TIP3    H226580   1.319   0.090  14.740 -2.3051  2.2239  0.7084
 1697TIP3   OH226581   1.755   2.558  15.714  0.0955  0.5312 -0.4062
 1697TIP3    H126582   1.729   2.617  15.785  1.7956  0.5147  0.2730
 1697TIP3    H226583   1.699   2.481  15.725 -0.1691  0.8319  0.4601
 1698TIP3   OH226584   3.502   1.679  16.244 -0.0489  0.1234 -0.4621
 1698TIP3    H126585   3.504   1.599  16.296 -1.1302 -0.2507 -0.9729
 1698TIP3    H226586   3.502   1.749  16.309 -0.0506 -0.3081  0.0128
 1699TIP3   OH226587   2.042   4.751  14.525 -0.2954 -0.0494 -0.1741
 1699TIP3    H126588   1.961   4.758  14.474 -0.2530 -1.0994 -0.3969
 1699TIP3    H226589   2.015   4.771  14.614 -0.8770 -0.7312 -0.1863
 1700TIP3   OH226590   4.196   2.431   0.259 -0.2800  0.3296  0.5837
 1700TIP3    H126591   4.159   2.511   0.298 -2.8494 -0.5376  0.0978
 1700TIP3    H226592   4.141   2.361   0.293  2.1973 -1.3629  1.3536
 1701TIP3   OH226593   3.289   2.418   1.788  0.0609  0.5464 -0.0641
 1701TIP3    H126594   3.288   2.391   1.696  2.0049  2.6479 -0.7909
 1701TIP3    H226595   3.328   2.344   1.835 -0.6321 -0.4080 -0.9639
 1702TIP3   OH226596   1.085   2.207  13.971  0.3295  0.1843  0.0643
 1702TIP3    H126597   1.082   2.121  14.014 -2.1073  0.8918  1.5150
 1702TIP3    H226598   1.154   2.254  14.017 -0.9011  0.2397  1.9846
 1703TIP3   OH226599   0.231   2.196  15.755  0.3554 -0.9195  0.0907
 1703TIP3    H126600   0.239   2.101  15.752  0.7016 -0.9412  1.2486
 1703TIP3    H226601   0.138   2.212  15.771  0.3465 -1.0752  0.1951
 1704TIP3   OH226602   5.787   6.014   3.262  0.4743 -0.2669 -0.5210
 1704TIP3    H126603   5.746   6.069   3.329  1.0568 -0.8133  0.3061
 1704TIP3    H226604   5.715   5.961   3.227  0.4700 -1.5546  1.2473
 1705TIP3   OH226605   5.600   6.766  15.834  0.4754 -0.2368  0.5964
 1705TIP3    H126606   5.678   6.753  15.889 -0.5257 -1.3035  1.8272
 1705TIP3    H226607   5.551   6.684  15.842  0.4884 -0.6296 -2.3066
 1706TIP3   OH226608   4.386   5.348  14.344  0.7623 -0.3636 -0.3605
 1706TIP3    H126609   4.438   5.381  14.418  2.3465 -1.4961 -0.9209
 1706TIP3    H226610   4.413   5.402  14.270 -0.9789  0.9117 -0.1498
 1707TIP3   OH226611   0.881   6.463   6.143 -0.1798  0.0586 -0.3186
 1707TIP3    H126612   0.955   6.481   6.201  0.5198 -2.0247 -0.4766
 1707TIP3    H226613   0.898   6.374   6.110 -2.3639 -0.1597 -0.9768
 1708TIP3   OH226614   3.461   6.356  17.036  0.5562  0.4791  0.2777
 1708TIP3    H126615   3.533   6.411  17.005  0.8005 -0.1959 -0.3598
 1708TIP3    H226616   3.438   6.301  16.962 -1.2177  1.2873  0.1974
 1709TIP3   OH226617   4.237   4.568  16.902  0.1286  0.3048  0.0704
 1709TIP3    H126618   4.238   4.487  16.953 -1.5537  1.3101  1.8413
 1709TIP3    H226619   4.303   4.623  16.943 -0.2333  0.6022  0.2566
 1710TIP3   OH226620   6.520   1.931  14.984 -0.2608 -0.1021 -0.2342
 1710TIP3    H126621   6.554   2.012  15.020  0.1089  0.2780 -1.4027
 1710TIP3    H226622   6.436   1.956  14.944 -0.6900 -0.5268  0.3758
 1711TIP3   OH226623   4.897   4.889  11.031  0.2048 -0.4967 -0.5224
 1711TIP3    H126624   4.962   4.822  11.012 -0.8262 -1.5152 -0.6003
 1711TIP3    H226625   4.826   4.872  10.968  0.9817  2.2745 -2.2919
 1712TIP3   OH226626   0.193   5.335  13.741 -0.3324 -0.5092 -0.5644
 1712TIP3    H126627   0.233   5.421  13.729  1.7859 -1.5731 -1.7815
 1712TIP3    H226628   0.136   5.345  13.817  2.2440  1.1738  1.3228
 1713TIP3   OH226629   4.401   3.340   4.949 -0.2825  0.4357  0.1198
 1713TIP3    H126630   4.465   3.284   4.906 -0.0056  1.4938 -0.9198
 1713TIP3    H226631   4.378   3.294   5.029 -0.5388 -1.4549 -0.9766
 1714TIP3   OH226632   0.335   3.626  14.341  0.0423  0.0015  0.0820
 1714TIP3    H126633   0.303   3.565  14.408  1.2172 -0.0885  0.5720
 1714TIP3    H226634   0.359   3.570  14.267  1.8379 -0.2275  0.8127
 1715TIP3   OH226635   0.735   4.689  15.085 -0.2442  0.7739  0.2289
 1715TIP3    H126636   0.779   4.652  15.162 -0.6009  1.1902  0.6351
 1715TIP3    H226637   0.804   4.694  15.019  0.6253  2.5228  1.2159
 1716TIP3   OH226638   4.194   1.429  14.782 -0.2512 -0.1449 -0.5169
 1716TIP3    H126639   4.263   1.450  14.844 -0.7035 -0.0971 -0.0206
 1716TIP3    H226640   4.180   1.335  14.791  0.0430 -0.2271 -0.9233
 1717TIP3   OH226641   3.305   6.284  13.692 -0.2216 -0.2652 -0.4508
 1717TIP3    H126642   3.335   6.289  13.601  0.0018  0.8927 -0.3265
 1717TIP3    H226643   3.239   6.214  13.692 -1.7095  1.0638 -1.9353
 1718TIP3   OH226644   3.049   3.962   9.978  0.0638  0.9510 -0.4910
 1718TIP3    H126645   2.956   3.975   9.965 -0.4627 -0.1247  1.6854
 1718TIP3    H226646   3.067   3.998  10.065  1.8151  1.6273 -1.0677
 1719TIP3   OH226647   1.515   3.446  10.314 -0.4347 -0.0442  0.6463
 1719TIP3    H126648   1.432   3.403  10.335 -1.2722  1.1224 -0.1052
 1719TIP3    H226649   1.531   3.425  10.222 -1.9941  2.8142 -0.4441
 1720TIP3   OH226650   3.187   0.348  14.575 -0.6666  0.2037  0.0340
 1720TIP3    H126651   3.252   0.333  14.506 -2.2612  0.1201 -1.5580
 1720TIP3    H226652   3.136   0.267  14.576 -2.2652  1.1467 -0.5552
 1721TIP3   OH226653   2.303   6.553  12.782 -0.6840 -0.2396 -0.3916
 1721TIP3    H126654   2.358   6.474  12.784  0.3332  0.4459  1.4951
 1721TIP3    H226655   2.292   6.572  12.689  3.7866  0.5362 -0.9970
 1722TIP3   OH226656   3.315   2.121   2.454  0.0089 -0.3018  0.1996
 1722TIP3    H126657   3.295   2.190   2.517  0.7484  1.0716 -0.9982
 1722TIP3    H226658   3.405   2.096   2.474  0.7558  1.1665 -1.1830
 1723TIP3   OH226659   0.220   4.494  13.689 -0.3704 -0.4115  0.1545
 1723TIP3    H126660   0.127   4.514  13.681 -0.4540 -0.9741 -0.3869
 1723TIP3    H226661   0.237   4.430  13.619  0.5884  0.2626 -0.2485
 1724TIP3   OH226662   0.535   0.828  15.794  0.2718  0.1558 -0.0347
 1724TIP3    H126663   0.511   0.825  15.886 -1.7153  1.2230 -0.4514
 1724TIP3    H226664   0.594   0.754  15.782  0.4613 -0.0954  2.0453
 1725TIP3   OH226665   4.367   6.508  13.771 -0.1357  0.7761  0.0349
 1725TIP3    H126666   4.308   6.582  13.755  0.1859  0.6014 -2.3516
 1725TIP3    H226667   4.454   6.545  13.757  0.0182 -0.0480 -1.3546
 1726TIP3   OH226668   2.227   6.775  11.176  0.5620 -0.0482  0.2871
 1726TIP3    H126669   2.182   6.849  11.216 -1.3838 -0.7817 -0.4427
 1726TIP3    H226670   2.297   6.814  11.125  0.3106  1.2006  0.8661
 1727TIP3   OH226671   0.800   4.812   3.001 -0.2870 -0.4987 -0.1015
 1727TIP3    H126672   0.733   4.744   3.017 -0.7482  0.2354  1.1779
 1727TIP3    H226673   0.817   4.849   3.087  1.3490 -0.2478 -0.5164
 1728TIP3   OH226674   3.957   1.747   4.622  0.5485 -0.3422 -0.0262
 1728TIP3    H126675   3.999   1.688   4.685  0.3526 -1.6053 -1.0332
 1728TIP3    H226676   4.022   1.816   4.606  1.6377 -1.4266 -0.3978
 1729TIP3   OH226677   1.968   2.392   1.678  0.6349  0.4601 -0.1391
 1729TIP3    H126678   2.025   2.317   1.695 -0.6509 -0.7486 -0.9380
 1729TIP3    H226679   1.977   2.409   1.585 -2.4764 -1.7406 -1.0214
 1730TIP3   OH226680   2.560   6.503   3.291 -0.1570  0.0374 -0.1487
 1730TIP3    H126681   2.479   6.485   3.340 -2.0323 -0.0467 -3.0123
 1730TIP3    H226682   2.555   6.445   3.215  2.2550  0.6001 -0.8273
 1731TIP3   OH226683   1.099   4.119   3.056 -0.0039  0.4826  0.0222
 1731TIP3    H126684   1.172   4.100   2.998 -0.9981  1.0126 -1.4401
 1731TIP3    H226685   1.117   4.066   3.134  1.1365 -0.5859 -0.9148
 1732TIP3   OH226686   5.187   2.263   1.990 -0.3786 -0.1380 -0.2938
 1732TIP3    H126687   5.247   2.218   1.930 -0.0257 -0.6388  0.4163
 1732TIP3    H226688   5.184   2.206   2.068 -0.5960  0.6385  0.2788
 1733TIP3   OH226689   6.474   2.422  11.639 -0.0323  0.4476  0.3511
 1733TIP3    H126690   6.420   2.350  11.607  1.7103 -0.7521 -0.0444
 1733TIP3    H226691   6.510   2.463  11.560  1.4418 -0.2487  0.6299
 1734TIP3   OH226692   5.766   2.733   4.770  0.8838  0.1465  0.1966
 1734TIP3    H126693   5.770   2.646   4.810  0.1318 -0.5562 -1.1911
 1734TIP3    H226694   5.787   2.719   4.678 -0.2178  1.2689 -0.2609
 1735TIP3   OH226695   2.977   2.374   1.921 -0.1474 -0.8898  0.2083
 1735TIP3    H126696   2.946   2.463   1.941 -0.9475 -0.5523 -2.1967
 1735TIP3    H226697   2.981   2.330   2.006  0.6328  1.5343  1.5094
 1736TIP3   OH226698   4.899   2.563   6.166 -0.4579  0.8872  0.1629
 1736TIP3    H126699   4.936   2.568   6.254 -0.8381  0.4284  0.3565
 1736TIP3    H226700   4.974   2.574   6.108  0.0875 -0.5415  0.5479
 1737TIP3   OH226701   2.589   4.089  15.542 -0.0960  0.5009  0.0388
 1737TIP3    H126702   2.643   4.054  15.471  0.9083  1.3785  0.3282
 1737TIP3    H226703   2.653   4.117  15.608 -0.7238  3.5047 -0.4841
 1738TIP3   OH226704   4.469   0.183   1.570 -0.1246 -0.0809  0.2196
 1738TIP3    H126705   4.403   0.216   1.631 -0.5029 -0.3296 -0.0490
 1738TIP3    H226706   4.487   0.256   1.512  0.2594  0.1671  0.6451
 1739TIP3   OH226707   2.353   5.772   1.575  0.0095  0.4789 -0.2833
 1739TIP3    H126708   2.349   5.819   1.492 -2.2551 -0.6078 -0.8595
 1739TIP3    H226709   2.399   5.690   1.553 -1.0653 -0.0517 -0.6426
 1740TIP3   OH226710   1.040   0.037  10.659  0.3382 -0.2570 -0.3096
 1740TIP3    H126711   1.107   0.105  10.654  1.0939 -0.7923  1.5226
 1740TIP3    H226712   1.089  -0.043  10.680 -0.7560 -0.9051 -0.1619
 1741TIP3   OH226713   2.986   5.270  15.070 -0.2210 -0.3177 -0.2965
 1741TIP3    H126714   2.958   5.278  14.979 -0.1945  0.9341 -0.2025
 1741TIP3    H226715   2.909   5.235  15.115 -0.5753  0.0375 -0.6164
 1742TIP3   OH226716   1.947   2.362  11.171  0.6286  0.5577 -0.5922
 1742TIP3    H126717   1.968   2.280  11.217 -0.3430  0.5182 -0.1748
 1742TIP3    H226718   2.008   2.426  11.206 -0.5128  0.6874  1.2994
 1743TIP3   OH226719   2.874   6.644   3.270  0.0261  0.1913  0.5521
 1743TIP3    H126720   2.869   6.689   3.185  0.2740  0.3516  0.6210
 1743TIP3    H226721   2.962   6.663   3.302  0.5259 -1.2311  0.0931
 1744TIP3   OH226722   6.730   1.175   3.138  0.4941 -0.0268  0.1616
 1744TIP3    H126723   6.767   1.154   3.223  0.1464  1.5196  0.7202
 1744TIP3    H226724   6.637   1.158   3.147  0.5966 -0.9137 -0.2781
 1745TIP3   OH226725   5.061   0.738   0.011 -0.5330 -0.3952  0.0650
 1745TIP3    H126726   5.057   0.651   0.050  0.7155  0.1979  1.6620
 1745TIP3    H226727   5.154   0.760   0.013 -0.9934  1.7495  1.6098
 1746TIP3   OH226728   5.578   1.754   3.509  0.1319 -0.4114  0.2671
 1746TIP3    H126729   5.564   1.848   3.520 -0.4189 -0.3805 -0.5855
 1746TIP3    H226730   5.500   1.724   3.461  0.0013 -1.4180  1.0775
 1747TIP3   OH226731   2.709   5.111   4.463 -0.3574  0.0410  0.6124
 1747TIP3    H126732   2.723   5.051   4.537 -0.3120  0.4111  0.9046
 1747TIP3    H226733   2.774   5.180   4.475 -1.8742  1.3742  1.5600
 1748TIP3   OH226734   4.969   5.703  13.402  0.0612  0.3580  0.3529
 1748TIP3    H126735   4.879   5.713  13.433  0.1874  0.8911  0.5616
 1748TIP3    H226736   5.019   5.680  13.480  0.2261  0.8000  0.3845
 1749TIP3   OH226737   2.168   6.385  13.529  0.4202  0.0702 -0.5744
 1749TIP3    H126738   2.217   6.429  13.459  0.3524 -1.5097 -1.6683
 1749TIP3    H226739   2.235   6.338  13.580  0.4090  0.7737  0.1004
 1750TIP3   OH226740   4.739   6.498  12.508  0.1292 -0.2221  0.3601
 1750TIP3    H126741   4.794   6.473  12.583 -1.3077  1.4028  2.0708
 1750TIP3    H226742   4.654   6.519  12.547 -0.3840  1.7087 -1.5971
 1751TIP3   OH226743   4.698   1.115  11.544  0.2938 -0.5129  0.2591
 1751TIP3    H126744   4.623   1.098  11.487 -0.6611 -0.1690  1.3698
 1751TIP3    H226745   4.677   1.069  11.625  2.4356 -2.4910 -0.1953
 1752TIP3   OH226746   0.494   6.285   4.617 -0.1400 -0.0388  0.2340
 1752TIP3    H126747   0.486   6.318   4.528  0.4171  0.6139  0.4182
 1752TIP3    H226748   0.432   6.338   4.668  0.4727  0.4808  0.4588
 1753TIP3   OH226749   4.690   0.756  14.501  0.5367  0.3992 -0.4135
 1753TIP3    H126750   4.718   0.772  14.411 -0.4305 -0.2160 -0.8486
 1753TIP3    H226751   4.750   0.806  14.555  1.5863  0.2058 -1.3694
 1754TIP3   OH226752   5.513   4.710  13.091  0.5439  0.3511 -0.1711
 1754TIP3    H126753   5.473   4.773  13.031 -1.2022  0.8544  1.4151
 1754TIP3    H226754   5.497   4.625  13.051 -0.0838  0.7091 -0.6933
 1755TIP3   OH226755   2.327   6.440  11.023 -0.2312  0.0745  0.0825
 1755TIP3    H126756   2.409   6.444  10.973 -0.4490 -1.3283 -0.4101
 1755TIP3    H226757   2.290   6.355  11.002 -1.1082  0.0951  1.4399
 1756TIP3   OH226758   0.303   2.840   2.827  0.1860  0.2724  0.3645
 1756TIP3    H126759   0.358   2.871   2.899  1.5680 -0.0853 -0.5175
 1756TIP3    H226760   0.307   2.745   2.833 -0.9278  0.2245  0.7024
 1757TIP3   OH226761   2.193   3.792   2.007  0.2878 -0.0277  0.1115
 1757TIP3    H126762   2.222   3.710   2.047  3.9000  0.2878 -1.4136
 1757TIP3    H226763   2.186   3.771   1.914  0.6877  1.2113 -0.2177
 1758TIP3   OH226764   5.606   4.752   2.732 -0.1916 -0.4979 -0.0219
 1758TIP3    H126765   5.561   4.810   2.671  2.1402 -0.2931 -1.6723
 1758TIP3    H226766   5.689   4.797   2.752 -0.0039 -1.5153  1.7317
 1759TIP3   OH226767   1.920   5.001   1.567 -0.0939 -0.9052  0.1864
 1759TIP3    H126768   2.005   5.046   1.564  0.2786 -1.6712 -1.3092
 1759TIP3    H226769   1.859   5.064   1.531  0.2985 -1.2737 -1.1747
 1760TIP3   OH226770   6.437   0.657   1.024  0.8812 -0.4688  0.8483
 1760TIP3    H126771   6.496   0.596   1.067  0.6435 -1.4552 -0.1813
 1760TIP3    H226772   6.359   0.605   1.003  1.1550 -0.1775 -1.1345
 1761TIP3   OH226773   0.332   4.083   3.866 -0.6285  0.4863  0.0531
 1761TIP3    H126774   0.396   4.140   3.910 -0.4061  0.9965 -0.9009
 1761TIP3    H226775   0.347   4.099   3.773  0.5401 -2.3319 -0.3277
 1762TIP3   OH226776   6.161   3.041  11.083 -0.2553  0.0608  0.3423
 1762TIP3    H126777   6.241   3.081  11.118  0.6950 -2.5704  1.4140
 1762TIP3    H226778   6.191   2.968  11.030 -1.9366  0.2039 -0.8967
 1763TIP3   OH226779   3.595   0.330  14.400  0.0564  0.2040 -0.1751
 1763TIP3    H126780   3.684   0.305  14.377 -0.2115 -0.2707 -0.7427
 1763TIP3    H226781   3.599   0.355  14.492  0.4251 -1.6252  0.3540
 1764TIP3   OH226782   2.729   0.071   3.398  0.9208  0.1213 -0.1471
 1764TIP3    H126783   2.805   0.071   3.340 -1.0190  0.9664 -2.9000
 1764TIP3    H226784   2.669   0.007   3.360 -0.0774 -0.0080  1.5209
 1765TIP3   OH226785   1.246   4.185  11.423 -0.1727 -0.0712  0.6206
 1765TIP3    H126786   1.292   4.228  11.351  0.2863  0.1347  1.0374
 1765TIP3    H226787   1.210   4.105  11.383 -1.3585  0.8648 -0.2457
 1766TIP3   OH226788   1.418   6.192  15.428  0.0506 -0.0134  0.3696
 1766TIP3    H126789   1.491   6.172  15.370  0.6945  0.1106  1.1050
 1766TIP3    H226790   1.358   6.117  15.419  0.7200 -0.5697  0.4458
 1767TIP3   OH226791   1.975   1.583  13.977 -0.0145 -0.0940 -0.1870
 1767TIP3    H126792   1.881   1.598  13.961 -0.0905  0.8790  1.0455
 1767TIP3    H226793   2.018   1.662  13.943  0.0700  0.7459  1.7707
 1768TIP3   OH226794   4.895   1.840  12.605 -0.0801 -0.5180 -0.2277
 1768TIP3    H126795   4.846   1.771  12.650 -1.5730  0.3926 -0.3864
 1768TIP3    H226796   4.928   1.896  12.675 -0.9957 -0.0175 -0.1889
 1769TIP3   OH226797   6.091   5.379  12.947  0.4350  0.1794  0.0138
 1769TIP3    H126798   6.136   5.370  12.863  1.4391 -0.0142  0.5682
 1769TIP3    H226799   6.154   5.422  13.004 -1.3085  3.3241 -0.1881
 1770TIP3   OH226800   4.454   3.861   4.349 -0.2907  0.1097 -0.0627
 1770TIP3    H126801   4.461   3.948   4.390 -1.3740  0.3409 -0.3274
 1770TIP3    H226802   4.530   3.855   4.291  1.3562 -0.2654  2.0065
 1771TIP3   OH226803   1.781   0.914   1.012 -0.1330  0.1118 -0.0390
 1771TIP3    H126804   1.858   0.863   0.988  1.0816  1.2568  1.2634
 1771TIP3    H226805   1.816   0.996   1.046 -1.9751  1.1148 -0.4359
 1772TIP3   OH226806   4.922   4.545  15.071 -0.0628  0.4204 -0.1313
 1772TIP3    H126807   5.017   4.557  15.066  0.3081 -1.6551  0.9607
 1772TIP3    H226808   4.890   4.626  15.111  1.6533 -0.0912  2.4858
 1773TIP3   OH226809   5.464   6.725   4.254  0.0191  0.0105 -0.3166
 1773TIP3    H126810   5.389   6.739   4.312 -0.3935 -2.8134 -0.0262
 1773TIP3    H226811   5.536   6.772   4.296 -1.5603  2.9792 -0.7242
 1774TIP3   OH226812   5.003   2.860   4.955 -0.2484  0.1902 -0.2505
 1774TIP3    H126813   4.997   2.834   5.047  1.9234 -0.5740 -0.2524
 1774TIP3    H226814   4.967   2.786   4.907  2.0729 -1.1515 -0.0885
 1775TIP3   OH226815   6.248   1.085  15.061  0.1341 -0.1865 -0.1338
 1775TIP3    H126816   6.188   1.094  14.987  1.2628 -1.3932 -1.2559
 1775TIP3    H226817   6.284   0.997  15.051  0.9198 -0.0587  1.4072
 1776TIP3   OH226818   3.259   1.813   4.190 -0.1371  0.4665 -0.3393
 1776TIP3    H126819   3.219   1.826   4.276 -1.8058  0.0164 -0.9898
 1776TIP3    H226820   3.324   1.744   4.204  1.4652  2.1682  1.0340
 1777TIP3   OH226821   4.119   4.335   2.636 -0.3378 -0.2244  0.6139
 1777TIP3    H126822   4.098   4.279   2.561  1.8888 -0.2238 -0.0691
 1777TIP3    H226823   4.110   4.424   2.602 -1.2003 -0.1796  0.9270
 1778TIP3   OH226824   6.795   6.104  13.507  0.1112 -0.0909 -0.4683
 1778TIP3    H126825   6.891   6.109  13.516  0.1279 -1.8400  0.8532
 1778TIP3    H226826   6.774   6.014  13.533 -1.7332 -0.3135 -2.5406
 1779TIP3   OH226827   0.140   2.855   0.831 -0.0455  0.2814  0.1350
 1779TIP3    H126828   0.056   2.811   0.847  0.0566  0.3518  0.8745
 1779TIP3    H226829   0.206   2.789   0.848  0.1854  1.1233  2.8865
 1780TIP3   OH226830   5.079   5.535  16.204 -0.3129 -0.5076  0.1702
 1780TIP3    H126831   4.984   5.538  16.203 -0.3355 -1.1697 -0.0493
 1780TIP3    H226832   5.101   5.442  16.202  0.3381 -0.3759  0.6325
 1781TIP3   OH226833   0.363   5.189  12.083  0.2546 -0.5985  0.3631
 1781TIP3    H126834   0.425   5.261  12.084  0.1175 -0.4402 -0.8554
 1781TIP3    H226835   0.416   5.110  12.093  0.7495 -0.5116 -1.3802
 1782TIP3   OH226836   6.136   2.659   1.270 -0.0722  0.1806 -0.0867
 1782TIP3    H126837   6.170   2.571   1.253 -1.4871 -0.7319  1.4858
 1782TIP3    H226838   6.117   2.694   1.184  0.6727 -0.9833 -0.7572
 1783TIP3   OH226839   1.604   6.551   5.674  0.3409  0.3683 -0.1733
 1783TIP3    H126840   1.639   6.462   5.664  0.0127  0.2902 -0.6872
 1783TIP3    H226841   1.677   6.602   5.708  0.1115 -0.4170  1.6335
 1784TIP3   OH226842   0.976   2.480  13.418  0.0692  0.2863  0.0593
 1784TIP3    H126843   0.919   2.501  13.345 -1.0737 -1.0335  0.5238
 1784TIP3    H226844   1.045   2.547  13.415  0.2195  0.1084 -2.3592
 1785TIP3   OH226845   4.205   1.183  15.856 -0.1289  0.5016 -0.2231
 1785TIP3    H126846   4.256   1.264  15.851 -0.7486  0.8774 -0.6206
 1785TIP3    H226847   4.178   1.177  15.947  0.3638  0.4646 -0.0777
 1786TIP3   OH226848   0.363   5.112  12.391 -0.0826 -0.1354  0.2926
 1786TIP3    H126849   0.334   5.201  12.372 -3.3189 -0.9514  0.7853
 1786TIP3    H226850   0.344   5.099  12.484  1.8520 -0.8798  0.6356
 1787TIP3   OH226851   5.358   5.381  12.387 -0.3268 -0.3184 -0.7551
 1787TIP3    H126852   5.366   5.454  12.447  2.3514 -1.4691  0.4297
 1787TIP3    H226853   5.394   5.414  12.304  2.0416 -0.5677  0.1060
 1788TIP3   OH226854   5.959   2.610  12.085 -0.1075 -0.2655 -0.2623
 1788TIP3    H126855   5.903   2.635  12.158  1.6762 -0.2309  1.1720
 1788TIP3    H226856   5.965   2.689  12.031  1.4286  0.9369  1.5364
 1789TIP3   OH226857   3.251   4.299   0.699 -0.3084 -0.2104 -0.0906
 1789TIP3    H126858   3.170   4.249   0.691  0.6025 -1.7796  0.1517
 1789TIP3    H226859   3.264   4.336   0.611 -1.5013  0.4663 -0.0128
 1790TIP3   OH226860   3.227   3.266  12.199 -0.0592  0.0572  0.4528
 1790TIP3    H126861   3.246   3.259  12.106 -1.8802  2.0578 -0.1598
 1790TIP3    H226862   3.238   3.178  12.233 -1.5092 -1.2222 -2.1106
 1791TIP3   OH226863   3.309   2.325  13.873  0.2866 -0.1587  0.3957
 1791TIP3    H126864   3.366   2.369  13.936 -0.2159  1.3605 -0.1613
 1791TIP3    H226865   3.363   2.255  13.837  0.4974 -1.2363  2.6578
 1792TIP3   OH226866   5.944   2.771  16.402 -0.0240  0.0267  0.5694
 1792TIP3    H126867   5.917   2.828  16.330 -0.4507  1.0061  1.4813
 1792TIP3    H226868   5.927   2.822  16.481  1.7341 -0.4730  1.3184
 1793TIP3   OH226869   6.808   0.851  14.094 -0.2682 -0.2736 -0.5858
 1793TIP3    H126870   6.811   0.759  14.122 -1.0616 -0.5686 -1.4411
 1793TIP3    H226871   6.741   0.853  14.026 -2.2457  1.4191  1.2413
 1794TIP3   OH226872   5.771   6.577  17.002  0.6132 -0.3929 -0.0601
 1794TIP3    H126873   5.854   6.584  17.049  0.7956 -1.1457 -0.2506
 1794TIP3    H226874   5.754   6.665  16.970  0.4651  0.1446  1.4221
 1795TIP3   OH226875   5.971   5.401  13.883  0.0128  0.4538 -0.1300
 1795TIP3    H126876   5.970   5.328  13.945 -1.7781 -0.0149 -0.6587
 1795TIP3    H226877   6.024   5.369  13.810  0.6377  0.3336  0.3666
 1796TIP3   OH226878   4.415   1.558   3.041 -0.6526 -0.1561 -0.2940
 1796TIP3    H126879   4.475   1.516   2.980  0.7459  1.0075  0.2182
 1796TIP3    H226880   4.375   1.486   3.089  0.7834 -0.9585 -0.2454
 1797TIP3   OH226881   1.710   3.259   3.823  0.2340 -0.6069  0.1021
 1797TIP3    H126882   1.798   3.233   3.850  0.1853  0.0554  0.9278
 1797TIP3    H226883   1.655   3.185   3.847  0.3968 -0.5696  0.5959
 1798TIP3   OH226884   0.632   2.655  12.671  0.4482 -0.1350 -0.3593
 1798TIP3    H126885   0.706   2.715  12.679 -0.2884  0.9085 -1.1262
 1798TIP3    H226886   0.670   2.574  12.637  1.5380 -0.3086  1.1893
 1799TIP3   OH226887   3.972   3.776   4.488  0.2627  0.5267  0.3889
 1799TIP3    H126888   4.043   3.747   4.431 -0.2145  0.1424 -0.0233
 1799TIP3    H226889   3.902   3.712   4.473 -0.4340  1.3116  0.2516
 1800TIP3   OH226890   1.344   5.573   2.256  0.0746  0.8035 -0.0763
 1800TIP3    H126891   1.263   5.624   2.260  1.0397  2.3309  0.6629
 1800TIP3    H226892   1.339   5.528   2.171 -1.3861  1.1341 -0.1936
 1801TIP3   OH226893   6.028   1.998  12.342  0.0230 -0.4455  0.1661
 1801TIP3    H126894   6.035   2.010  12.247 -0.0407  0.4571  0.2677
 1801TIP3    H226895   6.096   2.055  12.378  0.5771 -1.3775  0.6391
 1802TIP3   OH226896   2.894   1.809  13.988 -0.1043  0.0829  0.0427
 1802TIP3    H126897   2.980   1.777  13.964 -0.3409 -0.8891  0.4444
 1802TIP3    H226898   2.861   1.851  13.909 -0.5738 -2.3987 -1.1836
 1803TIP3   OH226899   4.972   5.099  15.829  0.5516 -0.0062  0.0981
 1803TIP3    H126900   4.970   5.178  15.775  1.1791 -0.0303  0.0305
 1803TIP3    H226901   4.880   5.077  15.843  0.3735  0.7359  0.1196
 1804TIP3   OH226902   6.583   5.862   3.752  0.7175  0.1391  0.6657
 1804TIP3    H126903   6.617   5.951   3.763 -0.5515  0.5113  1.9433
 1804TIP3    H226904   6.518   5.853   3.821  1.7622 -2.2812  1.4477
 1805TIP3   OH226905   4.372   4.933  12.589  0.0574 -0.3264  0.2987
 1805TIP3    H126906   4.343   5.003  12.531  1.0517 -0.5052 -0.4401
 1805TIP3    H226907   4.434   4.882  12.537  1.2212 -0.3099  1.5925
 1806TIP3   OH226908   1.433   3.567  16.402  0.3086  0.3776  0.6971
 1806TIP3    H126909   1.522   3.586  16.373  1.1196 -1.9180  1.4403
 1806TIP3    H226910   1.437   3.573  16.497 -0.4375  0.6375  0.7189
 1807TIP3   OH226911   5.828   1.285  13.837 -0.6999  0.1474  0.6750
 1807TIP3    H126912   5.917   1.305  13.810 -0.2974 -0.5741  1.4171
 1807TIP3    H226913   5.823   1.189  13.834 -1.5229  0.1864  0.4298
 1808TIP3   OH226914   4.006   5.095   2.362 -0.5246  0.2581  0.2258
 1808TIP3    H126915   4.030   5.018   2.311 -1.9333 -0.2150  0.2531
 1808TIP3    H226916   4.022   5.168   2.302 -2.6715 -0.3242 -1.1584
 1809TIP3   OH226917   6.503   4.222  11.475 -0.0765  0.0738  0.4168
 1809TIP3    H126918   6.485   4.244  11.383  1.4332  0.1524  0.1118
 1809TIP3    H226919   6.512   4.127  11.476  1.0982  0.1673  0.2304
 1810TIP3   OH226920   5.393   3.026   1.293  0.5623 -0.2346  0.4574
 1810TIP3    H126921   5.459   3.030   1.363  1.2523  1.4409 -0.2414
 1810TIP3    H226922   5.379   3.117   1.268 -0.5797 -0.7147 -0.7682
 1811TIP3   OH226923   6.530   1.231   1.284 -0.4200 -0.4728 -0.6146
 1811TIP3    H126924   6.448   1.216   1.330  0.2210 -1.1297  0.3512
 1811TIP3    H226925   6.548   1.325   1.296 -2.1295  0.2213 -2.7725
 1812TIP3   OH226926   0.411   1.812   3.949  0.1211  0.3798  0.0504
 1812TIP3    H126927   0.340   1.776   4.003 -0.0777  1.0310  0.2278
 1812TIP3    H226928   0.366   1.853   3.875  0.3060  0.9002  0.2244
 1813TIP3   OH226929   5.473   6.608   5.525  0.3167  0.5394  0.2179
 1813TIP3    H126930   5.549   6.644   5.479  0.5683  0.3800  0.5003
 1813TIP3    H226931   5.465   6.519   5.492  0.3210  0.5196  0.2701
 1814TIP3   OH226932   5.328   1.821  10.503 -0.4092  0.7716  0.0237
 1814TIP3    H126933   5.251   1.866  10.537 -1.4451  1.0479 -2.4730
 1814TIP3    H226934   5.357   1.874  10.429 -0.5938 -1.6570 -1.9210
 1815TIP3   OH226935   3.742   5.801   0.771  0.4371  0.0067  0.3754
 1815TIP3    H126936   3.727   5.852   0.692  1.4471  0.3092  0.3675
 1815TIP3    H226937   3.669   5.824   0.829 -1.4973 -1.7830 -1.1872
 1816TIP3   OH226938   2.320   2.033   1.990  0.3935 -0.0936  0.1637
 1816TIP3    H126939   2.288   1.944   1.976  0.3251 -0.2195  1.0631
 1816TIP3    H226940   2.414   2.023   2.006  0.5228  0.0740 -0.4668
 1817TIP3   OH226941   0.986   3.719  11.156  0.2282 -0.5892  0.2710
 1817TIP3    H126942   1.036   3.653  11.205  0.9609  0.3253  0.7974
 1817TIP3    H226943   0.895   3.690  11.162  0.6008 -1.8524  0.0011
 1818TIP3   OH226944   2.191   2.376  12.353  0.1266 -0.2051  0.1021
 1818TIP3    H126945   2.150   2.387  12.439  0.6669  2.0726  0.1265
 1818TIP3    H226946   2.118   2.357  12.295 -0.6316  0.9411  0.6364
 1819TIP3   OH226947   0.799   2.051   5.719  0.3084  0.3725  0.0269
 1819TIP3    H126948   0.744   2.085   5.789  0.2091  0.0889  0.0837
 1819TIP3    H226949   0.880   2.103   5.726  0.6651 -0.2785  0.9379
 1820TIP3   OH226950   0.555   1.804   0.352 -0.2992  1.1407  0.2579
 1820TIP3    H126951   0.487   1.748   0.315  1.3018 -0.5216 -0.3202
 1820TIP3    H226952   0.631   1.790   0.296  0.9411  1.8495  1.6962
 1821TIP3   OH226953   1.742   0.035  13.836  0.0102  0.6234 -0.4605
 1821TIP3    H126954   1.821   0.018  13.784 -0.2144 -1.3011 -0.2333
 1821TIP3    H226955   1.670   0.001  13.783 -0.4346  0.4029  0.2692
 1822TIP3   OH226956   4.025   0.308   1.527 -0.0500 -0.2424  0.1950
 1822TIP3    H126957   3.938   0.277   1.503 -1.0740  1.6718  1.1121
 1822TIP3    H226958   4.011   0.401   1.549  1.5131 -0.7010  3.7383
 1823TIP3   OH226959   0.892   2.362  12.219 -0.0033  0.4057 -0.1072
 1823TIP3    H126960   0.941   2.408  12.287  1.4792 -0.2849 -0.6794
 1823TIP3    H226961   0.957   2.340  12.153 -0.9845 -1.0044 -0.6537
 1824TIP3   OH226962   4.146   5.493   3.539  0.4922 -0.3988  0.3791
 1824TIP3    H126963   4.146   5.516   3.446 -3.7351 -1.7075 -0.1543
 1824TIP3    H226964   4.125   5.400   3.540 -0.3179 -0.2395  2.6250
 1825TIP3   OH226965   6.579   0.039   1.528  0.4961 -0.7142 -0.0617
 1825TIP3    H126966   6.513   0.008   1.590  1.1076 -0.4014  0.7596
 1825TIP3    H226967   6.644   0.084   1.582  0.2923  0.9013 -1.0640
 1826TIP3   OH226968   5.553   0.879  11.377 -0.0676 -0.1141 -0.4672
 1826TIP3    H126969   5.597   0.903  11.296  0.1483  0.8205 -0.0836
 1826TIP3    H226970   5.594   0.933  11.444  1.3099 -2.4762  0.6783
 1827TIP3   OH226971   4.064   6.090   5.693  0.2737 -0.3884 -0.2195
 1827TIP3    H126972   3.980   6.071   5.736  0.2010 -1.5952 -0.8597
 1827TIP3    H226973   4.130   6.067   5.759  0.1274 -0.9233 -0.2531
 1828TIP3   OH226974   5.713   1.513  13.629 -0.0332  0.1934  0.0660
 1828TIP3    H126975   5.683   1.594  13.670  0.4686  0.1612  0.5042
 1828TIP3    H226976   5.697   1.445  13.694  0.4809  0.0946  0.0941
 1829TIP3   OH226977   2.561   1.556  15.024  0.7099 -0.4114  0.1635
 1829TIP3    H126978   2.606   1.514  15.098  2.3591 -0.4955 -0.8339
 1829TIP3    H226979   2.630   1.569  14.959 -0.7814 -0.7925 -1.5679
 1830TIP3   OH226980   3.147   0.039  13.234 -0.4431  0.0709 -0.2787
 1830TIP3    H126981   3.139   0.134  13.228  0.5002  0.2519  1.0419
 1830TIP3    H226982   3.236   0.020  13.204 -0.7062 -0.4308 -0.7663
 1831TIP3   OH226983   4.215   5.410  10.144 -0.1517  0.1863  0.0057
 1831TIP3    H126984   4.125   5.379  10.161 -0.5751  0.9262 -0.8405
 1831TIP3    H226985   4.213   5.502  10.169  0.3853  0.1972  0.0055
 1832TIP3   OH226986   4.866   5.871  15.422 -0.5614 -0.1217  0.7609
 1832TIP3    H126987   4.952   5.896  15.455  0.1878 -0.8760 -0.5356
 1832TIP3    H226988   4.867   5.898  15.330 -2.8696  2.6328  1.4051
 1833TIP3   OH226989   6.460   5.076  13.376 -0.0934 -0.1973  0.2694
 1833TIP3    H126990   6.464   4.982  13.395  0.7981 -0.5017 -1.2354
 1833TIP3    H226991   6.382   5.086  13.321  1.3914 -0.6021 -2.0419
 1834TIP3   OH226992   4.914   0.117  12.710 -0.3025 -0.4566  0.2396
 1834TIP3    H126993   4.934   0.024  12.709 -0.2391 -0.4909  1.9575
 1834TIP3    H226994   4.979   0.155  12.770 -1.0798  0.4844  0.5205
 1835TIP3   OH226995   1.864   1.954  13.421  0.4386  0.1851 -0.6794
 1835TIP3    H126996   1.948   1.942  13.464  0.1530  2.2528  0.5565
 1835TIP3    H226997   1.799   1.944  13.491 -0.2955 -0.1526 -1.3834
 1836TIP3   OH226998   6.719   3.606  13.591 -0.1521  0.4655  0.0021
 1836TIP3    H126999   6.717   3.538  13.524 -1.9704  2.2973 -1.9436
 1836TIP3    H227000   6.709   3.558  13.674  0.8874 -1.7620 -1.0858
 1837TIP3   OH227001   2.532   6.026   4.438 -0.6961 -0.3734  0.2885
 1837TIP3    H127002   2.478   6.102   4.418 -0.3474 -0.0347  0.6483
 1837TIP3    H227003   2.469   5.959   4.467 -1.0404 -0.3503 -0.3797
 1838TIP3   OH227004   0.675   0.068   5.594 -0.2161 -0.2332  0.4182
 1838TIP3    H127005   0.757   0.024   5.618 -0.9154 -2.4102 -0.8715
 1838TIP3    H227006   0.698   0.125   5.521  0.5811  1.1823  1.6995
 1839TIP3   OH227007   2.048   4.273  11.473  0.0083  0.0248  0.3834
 1839TIP3    H127008   2.072   4.187  11.439  0.6566  0.0513  0.7698
 1839TIP3    H227009   2.036   4.259  11.567 -1.4996  0.0111  0.2101
 1840TIP3   OH227010   3.322   6.096   2.705  0.1125  0.4507  0.0031
 1840TIP3    H127011   3.293   6.185   2.724  1.7755  1.3602 -1.4246
 1840TIP3    H227012   3.241   6.046   2.696 -0.8448  1.4737  2.1625
 1841TIP3   OH227013   4.069   2.868   1.102  0.5236 -0.0220  0.1138
 1841TIP3    H127014   4.001   2.880   1.168  0.4041  0.9421 -0.1778
 1841TIP3    H227015   4.090   2.774   1.106 -0.7582 -0.3133  0.2616
 1842TIP3   OH227016   2.821   2.284   2.601  0.1626  0.0711  0.6995
 1842TIP3    H127017   2.846   2.215   2.662  0.4447  1.0246  1.7002
 1842TIP3    H227018   2.727   2.297   2.617  0.4034  0.8944  1.5717
 1843TIP3   OH227019   1.489   0.459   3.248 -0.0156  0.3094  0.0980
 1843TIP3    H127020   1.567   0.509   3.272 -1.3113  2.1838  0.6042
 1843TIP3    H227021   1.462   0.416   3.330 -0.1182  0.5189  0.1738
 1844TIP3   OH227022   6.351   1.880  15.690 -0.1074 -0.3752 -0.3320
 1844TIP3    H127023   6.438   1.840  15.695 -0.4106 -1.0656 -0.3614
 1844TIP3    H227024   6.299   1.832  15.755 -0.9605 -1.2962 -1.6372
 1845TIP3   OH227025   4.755   0.520  13.120  0.1715  0.2782  0.3863
 1845TIP3    H127026   4.683   0.581  13.103 -0.6717  0.2045  3.1826
 1845TIP3    H227027   4.829   0.575  13.144  0.2192  0.2811  0.2321
 1846TIP3   OH227028   5.582   6.583  14.491 -0.0178  0.0668 -0.6305
 1846TIP3    H127029   5.636   6.661  14.475 -0.2871  0.2419 -0.6836
 1846TIP3    H227030   5.646   6.514  14.509  0.1789  0.7922  1.7565
 1847TIP3   OH227031   2.127   3.706   0.447 -0.1580  0.2950  0.0293
 1847TIP3    H127032   2.110   3.725   0.540  0.2879 -0.0427  0.1829
 1847TIP3    H227033   2.218   3.677   0.445 -0.4859 -0.7374 -0.3671
 1848TIP3   OH227034   2.143   2.113   4.681  0.2812  0.2132  0.2611
 1848TIP3    H127035   2.212   2.070   4.630 -1.0935 -0.6090 -0.9537
 1848TIP3    H227036   2.174   2.204   4.689  2.2914 -0.5013  1.2063
 1849TIP3   OH227037   6.226   2.931   3.564  0.1509 -0.3056 -0.4243
 1849TIP3    H127038   6.287   2.967   3.628  0.5371  0.4203 -1.1781
 1849TIP3    H227039   6.157   2.889   3.616  2.1603 -2.7150  0.4754
 1850TIP3   OH227040   3.324   6.549  16.337  0.1002 -0.0638 -0.1721
 1850TIP3    H127041   3.249   6.607  16.343  0.3819  0.3003 -0.1502
 1850TIP3    H227042   3.306   6.496  16.259 -0.3333 -0.2055  0.0248
 1851TIP3   OH227043   1.293   1.998  11.335  0.5650  0.6801 -0.0142
 1851TIP3    H127044   1.223   2.043  11.382  1.6625  2.8950 -0.3624
 1851TIP3    H227045   1.324   2.062  11.270  0.3962 -1.5692 -2.4845
 1852TIP3   OH227046   0.426   2.186   1.568  0.1572 -0.0961  0.7042
 1852TIP3    H127047   0.491   2.129   1.527 -0.7778  0.3041 -1.4806
 1852TIP3    H227048   0.377   2.128   1.627 -0.0728 -1.3381 -0.6554
 1853TIP3   OH227049   1.846   2.016  11.096  0.5155 -0.2527 -0.2421
 1853TIP3    H127050   1.853   1.921  11.092 -2.6611 -0.6285  0.2234
 1853TIP3    H227051   1.779   2.038  11.030  1.6869  1.7620 -0.8486
 1854TIP3   OH227052   2.565   5.949  14.391  0.3039  0.3468  0.1829
 1854TIP3    H127053   2.502   5.937  14.320  0.2842 -1.6827  0.4697
 1854TIP3    H227054   2.632   5.882  14.375  2.3228  2.2876  0.0249
 1855TIP3   OH227055   3.979   1.886  12.299 -0.5324 -0.0674 -0.0665
 1855TIP3    H127056   3.929   1.805  12.299  0.4176 -0.6800  1.4867
 1855TIP3    H227057   3.938   1.940  12.367  0.0988 -0.0448  0.2973
 1856TIP3   OH227058   3.376   6.130   4.420  0.8961 -0.0833  0.8445
 1856TIP3    H127059   3.449   6.190   4.436  1.4236 -0.3517 -0.4270
 1856TIP3    H227060   3.322   6.174   4.355  0.3548 -0.2397  1.1852
 1857TIP3   OH227061   2.090   6.513  12.225 -0.6425  0.2381 -0.5186
 1857TIP3    H127062   2.070   6.476  12.311  1.3401 -2.2172 -0.9817
 1857TIP3    H227063   2.132   6.597  12.244 -0.7087 -0.0257  0.8862
 1858TIP3   OH227064   5.266   4.057  15.111 -0.4375 -0.3427  0.0134
 1858TIP3    H127065   5.270   4.093  15.200  0.7888 -0.9760  0.2256
 1858TIP3    H227066   5.184   4.008  15.109 -0.9778  0.5092  0.4596
 1859TIP3   OH227067   2.206   1.355   5.362 -0.1810  0.7643 -0.6209
 1859TIP3    H127068   2.120   1.381   5.331 -0.0303  1.6232 -0.3377
 1859TIP3    H227069   2.235   1.428   5.417 -1.1657 -1.3067  3.0170
 1860TIP3   OH227070   3.279   1.008  11.384 -0.2220 -0.8897 -0.1215
 1860TIP3    H127071   3.316   0.955  11.456  0.3608 -0.7836 -0.3357
 1860TIP3    H227072   3.200   0.962  11.359  0.6382 -2.0652 -0.7751
 1861TIP3   OH227073   3.006   4.916  14.688  0.0175 -0.1068  0.0528
 1861TIP3    H127074   2.937   4.952  14.744 -0.5931  0.5704 -1.0924
 1861TIP3    H227075   2.976   4.828  14.665 -0.8570  0.4546 -1.0441
 1862TIP3   OH227076   3.848   2.955  10.943 -0.4814 -0.0755  0.2556
 1862TIP3    H127077   3.771   2.976  10.889 -1.2528 -1.3546  0.7978
 1862TIP3    H227078   3.910   2.915  10.882 -0.3577  0.6717 -0.1237
 1863TIP3   OH227079   0.993   2.726   4.614  0.1318 -0.2596  0.0434
 1863TIP3    H127080   1.041   2.808   4.608  2.1036 -1.4492 -1.7404
 1863TIP3    H227081   0.905   2.748   4.584  0.5906  1.2093 -0.3215
 1864TIP3   OH227082   0.463   4.741  12.835  0.1655  0.7962  0.2064
 1864TIP3    H127083   0.546   4.756  12.882 -0.2235  0.3751  1.0466
 1864TIP3    H227084   0.486   4.677  12.768  0.7283  1.3910 -0.1784
 1865TIP3   OH227085   3.385   5.321  15.012  0.0104 -0.2499  0.3307
 1865TIP3    H127086   3.346   5.301  15.097 -0.6451  0.7464  0.2751
 1865TIP3    H227087   3.330   5.390  14.976 -0.6676 -1.7063 -1.5989
 1866TIP3   OH227088   0.091   6.801   0.287  0.1875 -0.3057 -0.0521
 1866TIP3    H127089   0.091   6.846   0.203 -2.0215  1.6656  0.8984
 1866TIP3    H227090   0.021   6.736   0.280  1.1468 -1.3499 -0.2736
 1867TIP3   OH227091   0.558   0.258   0.361 -0.5003 -0.1208 -0.0684
 1867TIP3    H127092   0.543   0.167   0.335  0.5788  0.0936 -1.5970
 1867TIP3    H227093   0.630   0.254   0.423 -0.2186 -0.2794 -0.4059
 1868TIP3   OH227094   3.250   5.378   4.955  0.3925  0.2297  0.3331
 1868TIP3    H127095   3.276   5.332   4.875  1.5180 -1.3356  1.5413
 1868TIP3    H227096   3.155   5.386   4.948  0.4229 -0.2227 -0.9624
 1869TIP3   OH227097   0.021   0.499  13.418  0.7970  0.5646 -0.3220
 1869TIP3    H127098   0.046   0.579  13.465  1.8036  0.6992 -1.0488
 1869TIP3    H227099  -0.016   0.442  13.486 -0.7555  1.9461  0.0666
 1870TIP3   OH227100   0.522   6.600  10.631  0.5295 -0.1081  0.0726
 1870TIP3    H127101   0.481   6.566  10.710 -0.5094 -0.8457 -0.7533
 1870TIP3    H227102   0.449   6.629  10.576  1.2722  1.1142 -0.3011
 1871TIP3   OH227103   4.471   0.653  14.708  0.3657 -0.3173 -0.7603
 1871TIP3    H127104   4.512   0.712  14.645  1.6909  0.2709  0.6257
 1871TIP3    H227105   4.532   0.579  14.716  0.6949  0.0728  0.5417
 1872TIP3   OH227106   1.300   1.637   3.703 -0.0241  1.3279  0.3132
 1872TIP3    H127107   1.280   1.726   3.673 -0.6629  0.5111 -1.8187
 1872TIP3    H227108   1.239   1.581   3.655  1.4377 -0.4164  0.3948
 1873TIP3   OH227109   4.296   1.034  15.333 -0.2086 -0.1367  0.0478
 1873TIP3    H127110   4.213   1.025  15.379 -0.3424  0.1175 -0.1394
 1873TIP3    H227111   4.360   0.995  15.391 -0.6936 -1.8815 -0.5272
 1874TIP3   OH227112   6.304   3.284   2.327 -1.3917  0.0248 -0.1372
 1874TIP3    H127113   6.224   3.254   2.285 -0.7540 -1.3296 -0.4532
 1874TIP3    H227114   6.334   3.210   2.379  0.1556  0.1361 -0.7911
 1875TIP3   OH227115   3.692   0.269   5.339  0.0586  0.3824 -0.4211
 1875TIP3    H127116   3.610   0.289   5.294 -0.0469  0.7403 -0.0829
 1875TIP3    H227117   3.667   0.261   5.431  0.5714  1.6373 -0.1527
 1876TIP3   OH227118   3.055   1.831   3.422  0.2039 -0.3800 -0.0860
 1876TIP3    H127119   3.067   1.740   3.393  0.3068 -0.1746 -0.6938
 1876TIP3    H227120   3.139   1.855   3.460 -0.4024 -1.1686  1.8626
 1877TIP3   OH227121   5.643   5.705  13.625  0.0293 -0.1394 -0.0021
 1877TIP3    H127122   5.684   5.679  13.708  1.5473  0.5068 -0.5218
 1877TIP3    H227123   5.709   5.688  13.558 -0.0426  2.0839 -0.7328
 1878TIP3   OH227124   1.669   1.769   5.300 -0.0851 -0.4930  0.1434
 1878TIP3    H127125   1.577   1.742   5.300 -0.6847  1.3760 -1.2121
 1878TIP3    H227126   1.709   1.719   5.229 -0.9397  1.2228 -1.6439
 1879TIP3   OH227127   0.516   4.408   5.113 -0.2378 -0.0973 -0.3308
 1879TIP3    H127128   0.478   4.378   5.031  0.0572 -0.8812 -0.1862
 1879TIP3    H227129   0.447   4.462   5.153  0.1284  1.4993 -1.7398
 1880TIP3   OH227130   6.290   4.836   5.943 -0.3360 -0.3452  0.1701
 1880TIP3    H127131   6.226   4.894   5.986  0.1579 -0.5370  1.2018
 1880TIP3    H227132   6.249   4.749   5.945 -0.7308 -0.1875 -0.6493
 1881TIP3   OH227133   2.464   0.384   3.135 -0.3146 -0.2161  0.6891
 1881TIP3    H127134   2.459   0.384   3.039 -1.9131  0.3976  0.7466
 1881TIP3    H227135   2.545   0.431   3.154  0.4239 -1.0092 -0.3576
 1882TIP3   OH227136   1.806   1.177   3.906  0.3637 -0.1711  0.0909
 1882TIP3    H127137   1.747   1.190   3.981  0.3383 -2.2507  0.4762
 1882TIP3    H227138   1.825   1.266   3.876 -1.6401  0.6287  0.9850
 1883TIP3   OH227139   2.396   0.137  16.758 -0.1070  0.2590 -0.0721
 1883TIP3    H127140   2.484   0.159  16.728  0.3728 -1.2865  0.0882
 1883TIP3    H227141   2.351   0.221  16.766  0.8095  0.9596 -1.7987
 1884TIP3   OH227142   3.178   4.957  16.042 -0.8236 -0.0746 -0.1617
 1884TIP3    H127143   3.106   4.943  16.103 -0.0267 -0.8744  0.6176
 1884TIP3    H227144   3.186   4.874  15.994  0.6176 -0.6089  0.9148
 1885TIP3   OH227145   6.591   2.710   3.521 -0.8267 -0.7145 -0.1723
 1885TIP3    H127146   6.646   2.638   3.553  0.0097 -0.5394 -1.1595
 1885TIP3    H227147   6.649   2.786   3.523 -1.2804 -0.3635 -0.4740
 1886TIP3   OH227148   4.581   4.206  13.394 -0.2009 -0.3608 -0.1949
 1886TIP3    H127149   4.526   4.251  13.458  2.0610  0.1314  1.5334
 1886TIP3    H227150   4.520   4.176  13.326 -2.6689 -0.5097  1.9311
 1887TIP3   OH227151   5.248   6.395   4.067  0.0606  0.2321  0.0692
 1887TIP3    H127152   5.156   6.419   4.072  0.4060  1.5481  0.2708
 1887TIP3    H227153   5.294   6.477   4.049  1.2409 -0.3201  0.4476
 1888TIP3   OH227154   6.783   0.271  15.895  0.1703  0.6211  0.1368
 1888TIP3    H127155   6.862   0.223  15.922  0.5052  1.0090 -0.1467
 1888TIP3    H227156   6.721   0.256  15.967  0.9499  1.4133  1.0084
 1889TIP3   OH227157   5.877   4.717  16.062  0.0035 -0.1128  0.4638
 1889TIP3    H127158   5.871   4.624  16.086  0.8454 -0.0951  0.7374
 1889TIP3    H227159   5.968   4.730  16.039 -0.3083  0.4240 -0.5228
 1890TIP3   OH227160   5.089   4.787  12.654  0.6424  0.4491  0.9080
 1890TIP3    H127161   5.165   4.844  12.645  0.3403  0.6412 -0.7002
 1890TIP3    H227162   5.122   4.711  12.703  2.5304 -0.5509 -1.6522
 1891TIP3   OH227163   2.505   5.803   0.886  0.2191  0.4592 -0.8060
 1891TIP3    H127164   2.489   5.764   0.800 -1.3280  1.0367 -0.8005
 1891TIP3    H227165   2.422   5.794   0.932  1.6498 -2.0272  1.5740
 1892TIP3   OH227166   2.392   6.526  17.001  0.2926 -0.1252  0.0385
 1892TIP3    H127167   2.363   6.443  16.962 -1.8758  0.9053 -0.7364
 1892TIP3    H227168   2.349   6.529  17.086  0.5920  0.0773  0.1851
 1893TIP3   OH227169   5.172   6.048   1.912 -0.0837  0.0115  0.3916
 1893TIP3    H127170   5.141   5.996   1.987 -0.5279  0.9291  0.8648
 1893TIP3    H227171   5.095   6.056   1.856 -0.4519  1.3784  1.0402
 1894TIP3   OH227172   6.606   3.764   6.235  0.0547  0.2426 -0.1640
 1894TIP3    H127173   6.534   3.814   6.195  0.6292  1.8085  0.6673
 1894TIP3    H227174   6.685   3.801   6.196  0.4753 -2.3151 -2.0338
 1895TIP3   OH227175   1.233   1.550   1.563  0.3927 -0.2650  0.6788
 1895TIP3    H127176   1.259   1.584   1.649  2.3253  1.8154 -0.6114
 1895TIP3    H227177   1.223   1.455   1.577  2.7123 -0.3127  2.7758
 1896TIP3   OH227178   4.742   3.959  14.188  0.4444  0.3718  0.3107
 1896TIP3    H127179   4.668   4.001  14.233  0.2406 -0.9776  1.2949
 1896TIP3    H227180   4.781   3.901  14.254  1.6898  0.1962 -0.5329
 1897TIP3   OH227181   5.781   0.291  13.799 -0.3515 -0.0700  0.2943
 1897TIP3    H127182   5.755   0.302  13.890  0.0141  2.0724  0.1879
 1897TIP3    H227183   5.813   0.377  13.772 -0.2041 -0.7120 -1.7925
 1898TIP3   OH227184   2.144   6.230  16.187 -0.1986  0.2282 -0.5794
 1898TIP3    H127185   2.176   6.171  16.256  0.0247  0.0883 -0.7996
 1898TIP3    H227186   2.168   6.317  16.218  0.4323  0.1214 -0.7568
 1899TIP3   OH227187   2.653   4.747   5.867 -0.6028 -0.6935 -0.0770
 1899TIP3    H127188   2.601   4.802   5.926 -0.3198 -1.5023  0.9512
 1899TIP3    H227189   2.744   4.770   5.888 -0.4561  1.3817 -2.4835
 1900TIP3   OH227190   3.389   2.614   3.723 -0.5859 -0.0638 -0.4761
 1900TIP3    H127191   3.335   2.662   3.660  0.6576 -0.9177 -2.3011
 1900TIP3    H227192   3.373   2.522   3.703  1.4082 -0.3475 -1.0257
 1901TIP3   OH227193   4.279   5.163   2.759  0.1409  0.0452 -0.3608
 1901TIP3    H127194   4.197   5.135   2.717 -2.0522 -0.5449  3.8098
 1901TIP3    H227195   4.332   5.083   2.762 -0.1063 -0.1543 -0.9779
 1902TIP3   OH227196   4.944   5.833   3.177 -0.0409  0.0243 -0.3680
 1902TIP3    H127197   4.942   5.909   3.119  0.4005  0.4061  0.1149
 1902TIP3    H227198   4.903   5.763   3.126  0.6011  0.2791 -1.2421
 1903TIP3   OH227199   6.183   2.488   5.207  0.2781 -0.3640  0.2753
 1903TIP3    H127200   6.200   2.443   5.124  1.6844  1.8973 -0.7645
 1903TIP3    H227201   6.149   2.574   5.181 -1.1219 -0.2946  2.1329
 1904TIP3   OH227202   4.163   3.803  13.856  0.2116  0.0146  0.2254
 1904TIP3    H127203   4.219   3.738  13.814  0.9193  0.7221  0.0530
 1904TIP3    H227204   4.221   3.877  13.873 -1.1045  1.7096 -2.0568
 1905TIP3   OH227205   4.374   6.173   5.455 -0.9204  0.4021 -0.8206
 1905TIP3    H127206   4.366   6.097   5.398 -2.8449 -0.3529  0.3516
 1905TIP3    H227207   4.440   6.147   5.520  0.0275  0.6151 -1.6780
 1906TIP3   OH227208   5.418   4.424   1.097 -0.1214  0.2831  0.4250
 1906TIP3    H127209   5.329   4.436   1.066 -0.5272 -0.0328  1.4257
 1906TIP3    H227210   5.446   4.512   1.124 -0.1873  0.3549  0.2580
 1907TIP3   OH227211   3.803   5.945  12.825 -0.2117  0.1948 -0.3213
 1907TIP3    H127212   3.842   5.884  12.763 -0.5434 -1.9842  1.4848
 1907TIP3    H227213   3.715   5.961  12.790 -0.2167 -0.5876 -0.6916
 1908TIP3   OH227214   5.049   1.468   0.433 -0.0207  0.1977 -0.4247
 1908TIP3    H127215   5.141   1.454   0.413 -0.7309 -0.7544 -3.4412
 1908TIP3    H227216   5.024   1.546   0.383 -1.1805 -0.4582 -0.9280
 1909TIP3   OH227217   6.275   6.750  14.315 -0.0058 -0.4145  0.0644
 1909TIP3    H127218   6.327   6.769  14.236  0.9018 -1.6101  0.3481
 1909TIP3    H227219   6.209   6.688  14.285 -1.7821  1.5865 -0.4427
 1910TIP3   OH227220   4.754   6.465   4.604 -0.0117 -0.3779  0.2798
 1910TIP3    H127221   4.747   6.547   4.555 -2.4805 -0.5153  0.2867
 1910TIP3    H227222   4.785   6.491   4.690 -1.1668  0.6491  0.4179
 1911TIP3   OH227223   4.578   2.082  13.623  0.0730  0.0483 -0.6901
 1911TIP3    H127224   4.501   2.093  13.567  0.6831  1.1347 -1.3366
 1911TIP3    H227225   4.653   2.091  13.564  0.7215 -0.8962 -0.0471
 1912TIP3   OH227226   1.800   2.016   4.692 -0.1314 -0.1285  0.6523
 1912TIP3    H127227   1.813   2.108   4.717  1.3428  0.0735 -0.6707
 1912TIP3    H227228   1.727   2.019   4.629 -0.7234 -0.0130  1.3298
 1913TIP3   OH227229   4.205   1.008  12.288 -0.2825  0.4948 -0.0809
 1913TIP3    H127230   4.187   1.099  12.267 -4.0305 -0.0396  0.1552
 1913TIP3    H227231   4.167   0.996  12.375  1.7267 -0.9204  0.6680
 1914TIP3   OH227232   1.453   1.344  11.383  0.3122 -0.2430 -0.4009
 1914TIP3    H127233   1.454   1.426  11.432 -3.0089 -1.1394  1.5068
 1914TIP3    H227234   1.449   1.276  11.450 -0.9267 -1.7353 -1.8938
 1915TIP3   OH227235   1.822   2.406   4.185  0.2265  0.1891  0.2518
 1915TIP3    H127236   1.831   2.482   4.127 -2.6510  0.5481  0.1375
 1915TIP3    H227237   1.865   2.433   4.266 -2.0684  2.6799  0.7752
 1916TIP3   OH227238   6.440   6.265  10.787 -0.2283 -0.1662  0.6164
 1916TIP3    H127239   6.443   6.250  10.693  1.3681 -0.3096  0.6729
 1916TIP3    H227240   6.407   6.183  10.824  1.9766 -1.2330  0.3807
 1917TIP3   OH227241   5.990   1.304   5.488 -0.3493 -0.2791  0.1979
 1917TIP3    H127242   5.986   1.211   5.468  0.7640  0.2874 -3.3366
 1917TIP3    H227243   6.051   1.311   5.561  1.0350 -2.2357 -0.6789
 1918TIP3   OH227244   4.429   1.900   3.370 -0.0992 -0.0545  0.0842
 1918TIP3    H127245   4.396   1.983   3.405  3.9318  1.0219  1.9364
 1918TIP3    H227246   4.362   1.836   3.392 -1.5400  2.0391  2.2792
 1919TIP3   OH227247   3.785   0.273  12.551  0.0282 -0.3466  0.1132
 1919TIP3    H127248   3.867   0.315  12.577 -0.0350  0.5727 -1.0584
 1919TIP3    H227249   3.805   0.180  12.550  1.2802 -0.0950 -0.8143
 1920TIP3   OH227250   0.739   0.272  15.463  0.4482  0.0102 -0.3043
 1920TIP3    H127251   0.706   0.188  15.430 -0.9239  0.0525  0.8330
 1920TIP3    H227252   0.832   0.257  15.477  0.4363 -0.9775 -1.1471
 1921TIP3   OH227253   4.658   3.135  13.969 -0.0379 -0.1047 -0.3267
 1921TIP3    H127254   4.748   3.114  13.996 -0.2657 -1.3028 -0.4321
 1921TIP3    H227255   4.665   3.160  13.877  0.2272  0.0729 -0.2575
 1922TIP3   OH227256   1.304   5.574  14.868 -0.0925  0.3673  0.0217
 1922TIP3    H127257   1.359   5.615  14.935 -0.0872 -0.4675  0.5488
 1922TIP3    H227258   1.253   5.646  14.831  0.2836  0.9228  0.5578
 1923TIP3   OH227259   5.225   6.804   0.791  0.3664 -0.0664  0.3054
 1923TIP3    H127260   5.155   6.756   0.746 -0.2901 -0.1542  1.3929
 1923TIP3    H227261   5.294   6.739   0.804  1.2269  0.3247 -1.9036
 1924TIP3   OH227262   5.664   2.705   0.788 -0.5273 -0.7078 -0.0896
 1924TIP3    H127263   5.592   2.766   0.799  1.8949  2.2242  0.9274
 1924TIP3    H227264   5.723   2.748   0.726  0.5119 -2.8474 -0.6969
 1925TIP3   OH227265   0.741   0.070   3.465  0.2103 -0.2393  0.3627
 1925TIP3    H127266   0.783  -0.011   3.435 -2.3498 -1.5313 -0.0042
 1925TIP3    H227267   0.712   0.051   3.554  2.1331  1.3756  1.4231
 1926TIP3   OH227268   4.245   4.008  14.665 -0.5074  0.0965 -0.4072
 1926TIP3    H127269   4.232   3.993  14.571 -1.7511  0.4714 -0.3061
 1926TIP3    H227270   4.213   3.928  14.706  0.5291 -0.2868 -0.3141
 1927TIP3   OH227271   2.032   2.099  14.957  0.3759 -0.0743  0.3014
 1927TIP3    H127272   1.952   2.046  14.956  1.0958 -1.2577 -1.9745
 1927TIP3    H227273   2.010   2.176  14.903 -0.3427  1.5847  2.7728
 1928TIP3   OH227274   1.882   5.717  14.487 -0.4613  0.4873  0.0646
 1928TIP3    H127275   1.822   5.791  14.499  1.5880  2.3593 -0.4973
 1928TIP3    H227276   1.967   5.751  14.514  0.6649 -1.4934 -0.8139
 1929TIP3   OH227277   1.729   3.478   2.125 -0.5804 -0.3148  0.2962
 1929TIP3    H127278   1.810   3.481   2.176 -0.7578  2.6933  0.5408
 1929TIP3    H227279   1.660   3.463   2.191 -0.5762  1.1853  0.6702
 1930TIP3   OH227280   3.626   0.589   1.922  0.4897 -0.2898  0.3347
 1930TIP3    H127281   3.652   0.529   1.992  0.4924 -0.4679  0.1837
 1930TIP3    H227282   3.538   0.560   1.898  0.5283 -0.2949  0.1966
 1931TIP3   OH227283   4.170   0.387  13.387  0.7618 -0.3439 -0.2145
 1931TIP3    H127284   4.159   0.438  13.467 -0.3582 -0.8445 -0.0296
 1931TIP3    H227285   4.088   0.399  13.338  1.4581  0.0164 -1.3320
 1932TIP3   OH227286   1.395   0.625   3.993  0.0844 -0.2908 -0.2569
 1932TIP3    H127287   1.481   0.668   3.988 -0.3251  0.6085  0.1804
 1932TIP3    H227288   1.333   0.693   3.967 -0.8042  0.2036  2.7288
 1933TIP3   OH227289   3.584   3.776  14.152  0.0943  0.3914  0.4729
 1933TIP3    H127290   3.587   3.690  14.111  2.7325  0.1186  1.0861
 1933TIP3    H227291   3.493   3.804  14.142 -0.6210 -2.0510 -0.5483
 1934TIP3   OH227292   1.367   5.750  14.098  0.4042  0.2403 -0.1729
 1934TIP3    H127293   1.349   5.718  14.187  0.1927 -1.4098 -0.7626
 1934TIP3    H227294   1.406   5.674  14.053  2.9676  1.7940 -0.7753
 1935TIP3   OH227295   4.787   6.085   6.402  0.5374 -0.0071  0.0159
 1935TIP3    H127296   4.845   6.054   6.333  0.1126 -1.4689  0.2821
 1935TIP3    H227297   4.777   6.010   6.461 -0.5812  0.6213  0.6705
 1936TIP3   OH227298   6.796   5.419  11.476 -0.2195  0.1497 -0.6383
 1936TIP3    H127299   6.887   5.435  11.450  0.2211 -0.7007  0.3093
 1936TIP3    H227300   6.744   5.468  11.412  0.9370  2.4610  0.0925
 1937TIP3   OH227301   5.716   4.292   3.046  0.4016  0.3198  0.2759
 1937TIP3    H127302   5.656   4.243   3.102  0.1062  0.1596 -0.1763
 1937TIP3    H227303   5.681   4.381   3.045 -0.1264  0.1089 -0.4014
 1938TIP3   OH227304   1.085   6.697   5.146  0.0635  0.5482 -0.7318
 1938TIP3    H127305   1.012   6.732   5.095 -0.2427 -0.4165 -0.9598
 1938TIP3    H227306   1.139   6.774   5.164 -0.1906  1.0336 -1.8949
 1939TIP3   OH227307   2.833   4.245   0.944  0.1307  0.0164  0.6380
 1939TIP3    H127308   2.883   4.281   1.017  0.1909  1.6759 -0.1774
 1939TIP3    H227309   2.757   4.303   0.936  0.4600  0.2862 -1.0151
 1940TIP3   OH227310   6.576   3.914  13.324  0.1218 -0.9128  0.2973
 1940TIP3    H127311   6.513   3.898  13.254  1.3976  0.9574 -1.3674
 1940TIP3    H227312   6.529   3.967  13.388 -0.1500  0.1261 -0.7403
 1941TIP3   OH227313   2.656   2.903  10.398 -0.1378  0.7676  0.1166
 1941TIP3    H127314   2.609   2.947  10.469 -0.0818 -0.6575  1.0594
 1941TIP3    H227315   2.601   2.828  10.376 -0.2465  1.2776 -1.4985
 1942TIP3   OH227316   4.960   2.145   0.898 -0.3443 -0.6856 -0.3471
 1942TIP3    H127317   4.922   2.097   0.824 -1.9185  0.3107 -0.2269
 1942TIP3    H227318   5.015   2.212   0.857 -1.4934  0.0932 -0.6545
 1943TIP3   OH227319   1.770   2.043  12.182 -0.4603  0.0555  0.0836
 1943TIP3    H127320   1.734   2.057  12.270 -0.1109 -0.0331  0.2390
 1943TIP3    H227321   1.737   1.957  12.157 -0.4174  0.0042  0.1994
 1944TIP3   OH227322   1.097   4.722  12.455  0.2776 -0.1583 -0.0632
 1944TIP3    H127323   1.153   4.765  12.520 -0.3600 -0.5498  0.7803
 1944TIP3    H227324   1.128   4.754  12.371  1.0869  0.4252  0.4405
 1945TIP3   OH227325   4.211   3.332  11.894  0.5796  0.2449  0.4558
 1945TIP3    H127326   4.117   3.346  11.894  0.6925  1.0793  0.9383
 1945TIP3    H227327   4.225   3.259  11.834 -0.3079  0.5490 -0.1304
 1946TIP3   OH227328   1.200   3.774   0.004  0.4882  0.3155 -0.1686
 1946TIP3    H127329   1.289   3.761  -0.031 -0.4063 -0.4591 -2.3046
 1946TIP3    H227330   1.189   3.869   0.005  1.6990  0.4789  1.1718
 1947TIP3   OH227331   4.597   1.720   3.194 -0.0676 -0.0916  0.1013
 1947TIP3    H127332   4.555   1.701   3.110  0.9077 -0.8449 -0.2315
 1947TIP3    H227333   4.524   1.729   3.256 -0.7676 -0.0642 -0.7124
 1948TIP3   OH227334   3.532   0.589   1.328 -1.1279 -0.5330  0.3224
 1948TIP3    H127335   3.617   0.615   1.293 -2.1015  1.2426 -0.8398
 1948TIP3    H227336   3.481   0.563   1.252 -1.9381 -0.6705  0.9018
 1949TIP3   OH227337   0.781   0.004   5.175  0.3438 -0.1613 -0.0731
 1949TIP3    H127338   0.697   0.049   5.182  0.0651 -0.6013 -0.5117
 1949TIP3    H227339   0.845   0.075   5.165  0.1524  0.2243  1.2033
 1950TIP3   OH227340   6.185   1.283  14.766 -0.1028 -0.8105  0.2801
 1950TIP3    H127341   6.133   1.213  14.806 -1.9555  0.5083  0.3245
 1950TIP3    H227342   6.155   1.286  14.676  0.3369 -0.4058  0.1444
 1951TIP3   OH227343   6.002   1.549   1.782  0.4710 -0.0292  0.1162
 1951TIP3    H127344   5.934   1.501   1.735  1.5655 -2.9792  1.2970
 1951TIP3    H227345   5.954   1.608   1.840 -0.9800 -0.1569 -0.9048
 1952TIP3   OH227346   1.152   5.911  10.885 -0.2326 -0.3867  0.4622
 1952TIP3    H127347   1.175   6.001  10.862 -0.9359 -0.3131  0.0220
 1952TIP3    H227348   1.060   5.917  10.912  0.2415 -0.6559  2.2425
 1953TIP3   OH227349   5.936   3.274   1.357  0.6791 -0.3333  0.0175
 1953TIP3    H127350   5.909   3.287   1.265  2.2101 -1.0120 -0.5626
 1953TIP3    H227351   5.996   3.346   1.374 -0.7578  0.6710  1.0132
 1954TIP3   OH227352   3.798   2.916   0.681  0.0655 -0.1950  0.5944
 1954TIP3    H127353   3.787   2.999   0.727 -0.4345 -0.3037  0.6761
 1954TIP3    H227354   3.717   2.867   0.699  0.3081 -0.6562  0.4603
 1955TIP3   OH227355   0.419   2.752   4.653 -0.4632 -0.0748  0.2141
 1955TIP3    H127356   0.324   2.741   4.665  0.0482 -3.4413  2.3705
 1955TIP3    H227357   0.444   2.681   4.594  0.8902  0.0057  0.6585
 1956TIP3   OH227358   2.964   3.198   5.549  0.3353 -0.4138  0.0457
 1956TIP3    H127359   2.894   3.199   5.614  0.3414 -2.1950  0.1503
 1956TIP3    H227360   3.020   3.271   5.571 -1.1182  0.6398  0.3794
 1957TIP3   OH227361   2.796   3.516   1.683 -0.3320 -0.2684 -0.5785
 1957TIP3    H127362   2.871   3.459   1.702 -2.0973 -2.8802 -0.8781
 1957TIP3    H227363   2.744   3.466   1.620 -3.2408  0.5812  0.9772
 1958TIP3   OH227364   0.477   4.668  11.888 -0.0351 -0.0617  0.0741
 1958TIP3    H127365   0.417   4.738  11.863 -1.1641 -0.5562  1.3232
 1958TIP3    H227366   0.558   4.713  11.911 -1.1229  1.0026  2.0588
 1959TIP3   OH227367   6.412   1.442   3.451 -0.3722 -0.3388 -0.0481
 1959TIP3    H127368   6.365   1.424   3.370  0.2223 -1.3747 -0.1779
 1959TIP3    H227369   6.441   1.356   3.481  0.4199  0.1633  0.6471
 1960TIP3   OH227370   3.378   0.154   1.835  0.3512  0.2783 -0.7428
 1960TIP3    H127371   3.385   0.161   1.740  0.3815 -0.3012 -0.7833
 1960TIP3    H227372   3.467   0.135   1.864  0.3504  0.5000 -0.5907
 1961TIP3   OH227373   4.862   1.434  16.900  0.5585 -0.0089  0.2164
 1961TIP3    H127374   4.920   1.412  16.827 -0.1623  1.0877 -0.7269
 1961TIP3    H227375   4.846   1.528  16.891 -0.0097  0.0344  1.4525
 1962TIP3   OH227376   3.577   6.264   6.201  0.4274  0.4787  0.1743
 1962TIP3    H127377   3.574   6.173   6.229  0.1644 -0.1264 -1.6347
 1962TIP3    H227378   3.495   6.302   6.232 -1.2417 -0.9619 -2.1083
 1963TIP3   OH227379   1.774   6.156   3.862  0.4461  0.8235  0.2086
 1963TIP3    H127380   1.731   6.098   3.926  0.2965  0.7892  0.0763
 1963TIP3    H227381   1.702   6.193   3.811  0.5930  0.5032 -0.2343
 1964TIP3   OH227382   0.292   5.112  14.039  0.2769 -0.0364  0.2751
 1964TIP3    H127383   0.243   5.039  14.077  0.8254 -0.9832 -0.7872
 1964TIP3    H227384   0.315   5.082  13.951  2.7952  0.3579  0.7418
 1965TIP3   OH227385   1.036   6.035  15.425 -0.5222 -0.1647 -0.0989
 1965TIP3    H127386   1.007   6.121  15.396  2.0459  0.4811 -1.0096
 1965TIP3    H227387   1.043   6.043  15.520 -0.7111  0.5001 -0.1356
 1966TIP3   OH227388   0.501   4.480   3.238 -0.0942  0.0619 -0.2882
 1966TIP3    H127389   0.540   4.459   3.322  1.3652  0.9545 -0.7031
 1966TIP3    H227390   0.439   4.551   3.256 -2.7147 -2.2458  0.5967
 1967TIP3   OH227391   6.101   6.281  11.191  0.4152  0.2276  0.0283
 1967TIP3    H127392   6.065   6.338  11.259  0.8449 -0.5063  0.8880
 1967TIP3    H227393   6.160   6.337  11.141 -0.0830  0.8302  0.1122
 1968TIP3   OH227394   0.366   0.353   3.184  0.5735 -0.3989  0.3381
 1968TIP3    H127395   0.313   0.422   3.225 -1.0815 -1.2526 -0.2605
 1968TIP3    H227396   0.375   0.286   3.252 -0.2610 -0.8219  0.0525
 1969TIP3   OH227397   3.646   3.587   4.620  0.8613  0.1105  0.0558
 1969TIP3    H127398   3.627   3.496   4.642  0.6522  0.5856  2.0379
 1969TIP3    H227399   3.708   3.582   4.547  1.7412 -1.6447  0.8646
 1970TIP3   OH227400   1.666   2.707   2.510  0.3801  0.1200 -0.1830
 1970TIP3    H127401   1.694   2.769   2.576  0.0646 -0.9514  1.0026
 1970TIP3    H227402   1.570   2.709   2.514  0.2606  1.6973 -2.2291
 1971TIP3   OH227403   1.974   4.074  15.238  0.1071 -0.3042 -0.1603
 1971TIP3    H127404   2.062   4.101  15.210 -0.8622  2.6815 -0.7442
 1971TIP3    H227405   1.927   4.156  15.250 -3.1055 -1.7841 -1.4807
 1972TIP3   OH227406   2.226   1.156  15.612  0.3767 -0.8698 -0.1230
 1972TIP3    H127407   2.181   1.147  15.528  0.6627  1.7762 -0.6479
 1972TIP3    H227408   2.156   1.165  15.677  0.0702  1.1378 -0.6628
 1973TIP3   OH227409   2.883   3.058   3.720 -0.1601 -0.2261  0.7320
 1973TIP3    H127410   2.855   2.972   3.689 -3.1482  0.7477  0.3782
 1973TIP3    H227411   2.862   3.058   3.813 -1.7494  0.5943  0.4188
 1974TIP3   OH227412   3.508   2.791   3.479 -0.1543  0.2627  0.0331
 1974TIP3    H127413   3.537   2.849   3.550  2.5601 -2.8610  1.7462
 1974TIP3    H227414   3.571   2.804   3.409 -0.1992  0.1839 -0.0221
 1975TIP3   OH227415   6.767   0.699   5.172  0.3629  0.1757  0.0696
 1975TIP3    H127416   6.736   0.643   5.101 -1.9916  0.7782  0.5360
 1975TIP3    H227417   6.779   0.640   5.246 -1.5464  0.1399  0.3972
 1976TIP3   OH227418   6.787   6.442   5.894  0.0578  0.3245 -0.6921
 1976TIP3    H127419   6.817   6.399   5.975 -0.6754 -0.9737 -1.1025
 1976TIP3    H227420   6.868   6.466   5.849  0.4765 -0.2839 -0.2772
 1977TIP3   OH227421   5.452   6.394  10.994 -0.2369 -0.1742  0.3527
 1977TIP3    H127422   5.379   6.377  10.935 -0.7614 -0.6143  1.1110
 1977TIP3    H227423   5.436   6.337  11.069  0.5122  0.2454  0.8430
 1978TIP3   OH227424   2.447   0.308   0.164  0.0713 -0.5283  0.3870
 1978TIP3    H127425   2.357   0.290   0.191  0.4452 -3.0938  0.1413
 1978TIP3    H227426   2.481   0.365   0.233 -1.2107 -0.9300  1.3934
 1979TIP3   OH227427   4.324   2.623   5.077 -0.9948 -0.2091  0.2311
 1979TIP3    H127428   4.334   2.529   5.060 -0.2611 -0.0310 -0.3693
 1979TIP3    H227429   4.237   2.644   5.044 -1.1615 -0.6809  0.3663
 1980TIP3   OH227430   3.040   2.066   2.371  0.0185  0.1135 -0.1828
 1980TIP3    H127431   3.069   2.154   2.394 -1.8934  1.4396 -2.3518
 1980TIP3    H227432   3.121   2.019   2.350  1.0774  1.3388  0.9769
 1981TIP3   OH227433   1.886   0.634   5.068 -0.1475  0.2460 -0.1310
 1981TIP3    H127434   1.864   0.547   5.101 -0.3657  0.6666  0.8767
 1981TIP3    H227435   1.945   0.618   4.994 -2.5589 -0.8780 -1.9433
 1982TIP3   OH227436   2.640   0.037  11.753 -0.2416 -0.0608  0.8361
 1982TIP3    H127437   2.674   0.040  11.663  1.4360 -3.5851  1.1990
 1982TIP3    H227438   2.550   0.008  11.743 -0.4797  0.8066  0.2867
 1983TIP3   OH227439   3.995   6.098  15.300  0.6753 -0.7082 -0.2756
 1983TIP3    H127440   4.031   6.012  15.280  2.0611 -0.3470  0.5538
 1983TIP3    H227441   4.010   6.149  15.220  1.1867 -0.8259 -0.2591
 1984TIP3   OH227442   3.151   4.247   4.837  0.2182  0.4569  0.1413
 1984TIP3    H127443   3.129   4.322   4.892 -1.1786 -0.4984  0.9563
 1984TIP3    H227444   3.079   4.185   4.851  1.5438 -1.2290 -0.1254
 1985TIP3   OH227445   4.050   5.684  11.445  0.1105 -0.0996  0.4649
 1985TIP3    H127446   4.113   5.719  11.508  0.8201 -0.2967 -0.1085
 1985TIP3    H227447   4.012   5.608  11.488 -2.7712  2.2592  2.4759
 1986TIP3   OH227448   4.041   5.789   0.435  0.3110 -0.2738  0.5439
 1986TIP3    H127449   4.006   5.724   0.374  2.2006  0.0611 -1.0281
 1986TIP3    H227450   4.004   5.766   0.520 -2.1723 -0.9875 -0.6306
 1987TIP3   OH227451   4.667   1.597   1.292 -0.6975 -0.4652 -0.1817
 1987TIP3    H127452   4.655   1.585   1.198 -1.8004  0.6309 -0.2112
 1987TIP3    H227453   4.704   1.515   1.322  0.0514 -0.6911 -1.6358
 1988TIP3   OH227454   4.970   5.986   6.238 -0.5065  0.1120 -0.5193
 1988TIP3    H127455   4.989   5.894   6.220 -3.0907  0.0963 -4.3290
 1988TIP3    H227456   5.012   6.034   6.166  1.9217  2.2239  2.0861
 1989TIP3   OH227457   0.116   3.101  16.999 -0.3876 -0.5000  0.2509
 1989TIP3    H127458   0.170   3.082  16.922 -0.9332 -1.4798  0.0833
 1989TIP3    H227459   0.034   3.054  16.982 -1.2511  0.8461  0.5566
 1990TIP3   OH227460   4.391   3.434  16.197 -0.2132  0.0835 -0.2250
 1990TIP3    H127461   4.472   3.406  16.156 -0.9076 -0.0189 -1.5786
 1990TIP3    H227462   4.405   3.527  16.216  0.4411 -0.0830  0.1330
 1991TIP3   OH227463   2.844   5.251  12.857  0.6977  0.7327  0.1740
 1991TIP3    H127464   2.826   5.339  12.826  0.6859  1.0710  1.1160
 1991TIP3    H227465   2.885   5.207  12.783 -1.8779  0.6321 -1.3293
 1992TIP3   OH227466   0.454   4.068  10.826  0.0136  0.3108  0.5727
 1992TIP3    H127467   0.404   4.060  10.745 -0.2144 -0.6250  0.7887
 1992TIP3    H227468   0.459   4.162  10.842 -1.7347  0.4327  0.5771
 1993TIP3   OH227469   2.787   0.551  12.329  0.4463 -0.2094 -0.1402
 1993TIP3    H127470   2.709   0.579  12.282  1.2024  2.4348  0.0265
 1993TIP3    H227471   2.860   0.576  12.272  1.2281 -1.1336  0.4295
 1994TIP3   OH227472   6.421   5.820  12.818  0.7449  0.0697 -0.4087
 1994TIP3    H127473   6.420   5.837  12.912 -2.0692  1.2365 -0.5334
 1994TIP3    H227474   6.442   5.905  12.778 -2.6666  0.8780 -0.8172
 1995TIP3   OH227475   6.358   6.094   0.743  0.0327  0.2183 -0.1911
 1995TIP3    H127476   6.380   6.017   0.692 -0.4214  0.2430 -0.4262
 1995TIP3    H227477   6.364   6.065   0.834  0.7245  0.1428 -0.2549
 1996TIP3   OH227478   2.065   6.167  11.400 -0.4576  0.8244  0.2204
 1996TIP3    H127479   2.013   6.130  11.329  2.0906  0.2335 -1.4717
 1996TIP3    H227480   2.156   6.157  11.371  0.6819  1.1258  3.3077
 1997TIP3   OH227481   4.569   0.069   5.990  0.3253 -0.1965 -0.0488
 1997TIP3    H127482   4.488   0.039   6.030 -0.2598  0.9093 -0.3674
 1997TIP3    H227483   4.556   0.163   5.975  1.7917  0.0810  0.2046
 1998TIP3   OH227484   0.546   1.673  12.610  0.4234  0.2599 -0.8193
 1998TIP3    H127485   0.517   1.591  12.649 -0.8575 -0.0468 -2.3043
 1998TIP3    H227486   0.641   1.676  12.626 -0.0542  0.4391  2.6667
 1999TIP3   OH227487   4.896   3.429   2.868 -0.0144  0.2661  0.6523
 1999TIP3    H127488   4.942   3.346   2.855 -2.7893 -1.1826 -0.7242
 1999TIP3    H227489   4.896   3.442   2.963  1.1364 -0.8983  0.8260
 2000TIP3   OH227490   3.744   5.772  14.711  0.0646  0.1253  0.0813
 2000TIP3    H127491   3.722   5.690  14.756 -0.4151  0.7054  0.9176
 2000TIP3    H227492   3.832   5.756  14.676  0.3696 -0.4296  1.0379
 2001TIP3   OH227493   0.490   2.732  14.705  0.1740 -0.3219 -0.2778
 2001TIP3    H127494   0.559   2.762  14.765  0.3972 -2.4824  0.6342
 2001TIP3    H227495   0.490   2.796  14.634  0.6516  1.7359  1.4725
 2002TIP3   OH227496   2.528   3.039   4.828  0.1121 -0.0195  0.3995
 2002TIP3    H127497   2.580   3.086   4.892  0.9586 -0.5146  0.0849
 2002TIP3    H227498   2.438   3.068   4.845  0.6026  1.7795  0.1449
 2003TIP3   OH227499   5.362   4.875   5.428  0.0952 -0.5015 -0.3585
 2003TIP3    H127500   5.305   4.907   5.358 -0.3763 -1.1467 -0.2797
 2003TIP3    H227501   5.426   4.945   5.440 -0.8629  0.3774 -0.2295
 2004TIP3   OH227502   3.204   3.504   3.869 -0.3311  0.0186  0.4916
 2004TIP3    H127503   3.112   3.479   3.855 -0.8608  0.6594  2.5183
 2004TIP3    H227504   3.238   3.435   3.926  0.7902 -0.7672 -1.0538
 2005TIP3   OH227505   3.455   1.861  11.399 -0.1225 -0.0960 -0.2213
 2005TIP3    H127506   3.536   1.876  11.352  0.0855  0.5526  0.3191
 2005TIP3    H227507   3.388   1.905  11.347 -0.2972 -1.4213 -1.1578
 2006TIP3   OH227508   5.264   0.511   0.044 -0.1512 -0.0732 -0.4209
 2006TIP3    H127509   5.266   0.591  -0.010 -1.8223  0.3446  0.0711
 2006TIP3    H227510   5.320   0.532   0.119 -1.0775  0.9107  0.0237
 2007TIP3   OH227511   6.142   6.358  13.027 -0.1022  0.0024 -0.2747
 2007TIP3    H127512   6.133   6.400  13.113 -1.1710 -1.2088  0.2490
 2007TIP3    H227513   6.230   6.381  12.998  0.3479  0.3180  1.2317
 2008TIP3   OH227514   6.100   1.486  16.461 -0.6454  0.9798  0.2915
 2008TIP3    H127515   6.157   1.488  16.539 -1.5630  1.3468  0.9787
 2008TIP3    H227516   6.154   1.447  16.393  0.4591  1.3782  0.9004
 2009TIP3   OH227517   6.434   3.404   4.222  0.4844  0.0943  0.6298
 2009TIP3    H127518   6.382   3.342   4.172  2.5529 -1.6234  0.4541
 2009TIP3    H227519   6.382   3.484   4.222 -0.6353 -0.4859 -2.3538
 2010TIP3   OH227520   4.848   3.539  10.624  0.6874 -0.4402  0.3851
 2010TIP3    H127521   4.847   3.602  10.552  2.8844 -0.6221  0.1362
 2010TIP3    H227522   4.936   3.546  10.662 -0.3761 -0.4054  3.0297
 2011TIP3   OH227523   3.106   4.388   0.312 -0.1766 -0.4409  0.4442
 2011TIP3    H127524   3.114   4.417   0.220  0.3535 -0.6384  0.4266
 2011TIP3    H227525   3.184   4.423   0.354 -1.6559  1.9005  1.4378
 2012TIP3   OH227526   5.386   4.817  14.640 -0.1562 -0.0021 -0.8222
 2012TIP3    H127527   5.451   4.747  14.640  0.5278  0.6036  0.1496
 2012TIP3    H227528   5.341   4.808  14.556  1.1907 -0.4421 -1.5312
 2013TIP3   OH227529   6.833   0.739  10.315  0.0243  0.3654  0.4312
 2013TIP3    H127530   6.804   0.670  10.256  2.5297 -1.4690  1.1635
 2013TIP3    H227531   6.827   0.701  10.403  2.5517  0.5172  0.7662
 2014TIP3   OH227532   4.818   2.708   2.714  0.0294 -0.0960 -0.1635
 2014TIP3    H127533   4.829   2.752   2.798  1.7890 -0.9608  0.0872
 2014TIP3    H227534   4.723   2.697   2.705 -0.2272  0.7200  1.3193
 2015TIP3   OH227535   3.166   4.130  16.653 -0.9246  0.5411 -0.3531
 2015TIP3    H127536   3.189   4.161  16.740 -2.1501  3.0119 -0.8395
 2015TIP3    H227537   3.099   4.191  16.622 -0.8117 -0.4942 -2.8855
 2016TIP3   OH227538   4.337   4.416  15.499  0.0687  0.4906 -0.3575
 2016TIP3    H127539   4.347   4.432  15.406 -0.3223  0.7560 -0.3552
 2016TIP3    H227540   4.403   4.349  15.519  3.6259  3.7940  0.1310
 2017TIP3   OH227541   4.295   5.940   0.534  0.5572  0.0055  0.3313
 2017TIP3    H127542   4.283   5.906   0.623  1.2321  0.4399  0.6003
 2017TIP3    H227543   4.215   5.916   0.488  0.5014 -0.8663  0.8494
 2018TIP3   OH227544   3.912   5.591   0.263 -0.2391 -0.2652  0.2285
 2018TIP3    H127545   3.840   5.653   0.274 -0.2514 -0.1537 -0.4718
 2018TIP3    H227546   3.881   5.530   0.196  1.1135  1.0185 -1.6662
 2019TIP3   OH227547   6.656   4.215  13.618 -0.2621 -0.2234 -0.1251
 2019TIP3    H127548   6.690   4.224  13.707  0.4678 -1.1425 -0.2877
 2019TIP3    H227549   6.733   4.195  13.565 -0.8460 -0.8156 -0.7717
 2020TIP3   OH227550   4.525   4.614   4.037  0.2482  0.2792 -0.0146
 2020TIP3    H127551   4.521   4.571   4.123  1.9869  2.0343  1.0479
 2020TIP3    H227552   4.532   4.542   3.974 -1.8058 -1.0827  1.1998
 2021TIP3   OH227553   6.512   1.448  10.604 -0.2042  0.7752  0.2449
 2021TIP3    H127554   6.426   1.468  10.566  0.7155  1.5623 -1.5874
 2021TIP3    H227555   6.571   1.443  10.528  1.4063  0.4167  1.4536
 2022TIP3   OH227556   1.751   4.102  13.441  0.1151  0.2826  0.2172
 2022TIP3    H127557   1.774   4.108  13.534 -2.0041  1.9964  0.7147
 2022TIP3    H227558   1.802   4.171  13.399 -0.0893  0.5358  0.3837
 2023TIP3   OH227559   6.674   1.766  16.651  0.2905  0.0543  0.3289
 2023TIP3    H127560   6.761   1.734  16.628  0.5319  0.8506  0.1169
 2023TIP3    H227561   6.643   1.811  16.572 -0.3716 -0.3382  0.3527
 2024TIP3   OH227562   5.618   2.465  16.843 -0.0002  0.5205 -0.0393
 2024TIP3    H127563   5.583   2.378  16.820  0.6535  0.2365  0.0188
 2024TIP3    H227564   5.542   2.513  16.877 -0.1420 -0.4174  1.0236
 2025TIP3   OH227565   4.627   2.478   3.982  0.5318  0.2166 -0.3988
 2025TIP3    H127566   4.617   2.531   4.062  0.5106 -0.2591 -0.0823
 2025TIP3    H227567   4.541   2.482   3.940  0.3902  0.0410 -0.1288
 2026TIP3   OH227568   6.421   3.377   1.988  0.3395 -0.3264 -0.3690
 2026TIP3    H127569   6.353   3.361   2.054 -0.8162 -2.9902 -2.0361
 2026TIP3    H227570   6.499   3.336   2.024  0.1288 -0.3597  0.0560
 2027TIP3   OH227571   2.231   3.519   5.696 -0.0760  0.3153 -0.4593
 2027TIP3    H127572   2.155   3.563   5.656 -0.2100 -0.0501 -0.6134
 2027TIP3    H227573   2.192   3.446   5.744  0.1301  0.4693 -0.0570
 2028TIP3   OH227574   4.204   5.810   1.409  0.5236 -0.2390  0.4094
 2028TIP3    H127575   4.212   5.825   1.503  0.4669  1.3281  0.1783
 2028TIP3    H227576   4.121   5.850   1.385  2.5759  3.6687 -1.0526
 2029TIP3   OH227577   3.714   1.128   4.417  0.0772  0.4438  0.4452
 2029TIP3    H127578   3.796   1.086   4.394  0.0965  1.2405 -1.1383
 2029TIP3    H227579   3.740   1.208   4.464  0.3376  1.4278 -1.2688
 2030TIP3   OH227580   4.599   4.910  11.574 -0.1132 -0.3083 -0.7433
 2030TIP3    H127581   4.627   5.001  11.563 -0.3742 -0.3628 -2.0202
 2030TIP3    H227582   4.582   4.879  11.485 -0.4304 -1.4836 -0.2960
 2031TIP3   OH227583   3.643   1.059  16.565 -0.0838  0.2871 -0.1129
 2031TIP3    H127584   3.669   1.135  16.616 -1.3275  0.6864 -0.0283
 2031TIP3    H227585   3.600   1.001  16.628  0.3778 -0.2400 -0.2773
 2032TIP3   OH227586   2.521   1.222  11.855 -0.0332 -0.4482  0.0970
 2032TIP3    H127587   2.494   1.183  11.938  1.2058 -1.3582  0.0994
 2032TIP3    H227588   2.508   1.154  11.790  0.7185 -0.3774 -0.1447
 2033TIP3   OH227589   1.487   0.016   3.578  0.1867 -0.1207 -0.6732
 2033TIP3    H127590   1.571  -0.027   3.593 -0.1148 -0.1449  1.1276
 2033TIP3    H227591   1.468   0.061   3.660 -1.0850  0.7377 -1.4014
 2034TIP3   OH227592   0.412   3.336   2.034  0.3470  0.3007  0.7138
 2034TIP3    H127593   0.418   3.423   2.074 -1.5866 -0.2498  2.3927
 2034TIP3    H227594   0.388   3.279   2.107 -2.7534 -0.8889 -1.0981
 2035TIP3   OH227595   6.257   6.685  15.417  0.2301  0.4883 -0.1115
 2035TIP3    H127596   6.299   6.691  15.502 -1.4225 -0.3428  0.8127
 2035TIP3    H227597   6.264   6.593  15.392  2.1381  0.9922 -1.6941
 2036TIP3   OH227598   6.096   3.886   1.025 -0.1628 -0.2451  0.0411
 2036TIP3    H127599   6.061   3.880   1.114  0.5820 -0.2844  0.3402
 2036TIP3    H227600   6.143   3.804   1.012  1.6205  0.6573  0.4576
 2037TIP3   OH227601   4.272   6.055  14.929  0.5184 -0.1139  0.3214
 2037TIP3    H127602   4.327   6.005  14.989  1.2002  0.0426 -0.1540
 2037TIP3    H227603   4.293   6.147  14.948  0.0306 -0.0404  0.4972
 2038TIP3   OH227604   2.304   1.270  10.928  0.0124  0.6077 -0.0616
 2038TIP3    H127605   2.306   1.176  10.949  0.6088  0.2330 -1.6116
 2038TIP3    H227606   2.396   1.293  10.912 -0.0543  1.6276  0.9077
 2039TIP3   OH227607   6.805   1.550  14.819  0.5652  0.3502  0.2979
 2039TIP3    H127608   6.891   1.543  14.859  1.0996  1.3009 -0.6740
 2039TIP3    H227609   6.779   1.641  14.832 -1.2130 -0.3512  2.3755
 2040TIP3   OH227610   0.156   2.739   4.919  0.0162 -0.8600  0.3145
 2040TIP3    H127611   0.114   2.671   4.972 -0.1949 -0.9641  0.0095
 2040TIP3    H227612   0.208   2.789   4.983 -0.0911 -1.0980  0.5928
 2041TIP3   OH227613   4.003   1.108  10.576 -0.3796 -0.3771  0.1840
 2041TIP3    H127614   3.959   1.025  10.596  1.4947 -1.8965 -1.5014
 2041TIP3    H227615   3.949   1.148  10.508 -0.2326 -1.2806 -0.4876
 2042TIP3   OH227616   1.743   0.270  11.240  0.4452  0.4370  1.1641
 2042TIP3    H127617   1.730   0.364  11.228  0.8822  0.3272 -0.2990
 2042TIP3    H227618   1.760   0.236  11.153 -1.1338 -1.2475  1.4417
 2043TIP3   OH227619   2.711   5.540   2.235 -0.3329 -0.7784 -0.2317
 2043TIP3    H127620   2.654   5.540   2.158 -0.5393 -0.5147 -0.0826
 2043TIP3    H227621   2.653   5.565   2.307  0.1806  0.4729 -0.2341
 2044TIP3   OH227622   2.789   1.747   1.701  0.2476  0.3158 -0.0931
 2044TIP3    H127623   2.826   1.735   1.789 -1.1175  2.5204  0.8699
 2044TIP3    H227624   2.698   1.772   1.717 -0.3815 -0.4816 -2.2179
 2045TIP3   OH227625   0.994   0.738   2.646 -0.4612  0.0702 -0.2483
 2045TIP3    H127626   0.905   0.759   2.673 -0.0752 -0.7706  1.9116
 2045TIP3    H227627   1.027   0.679   2.714  1.3142 -0.6996 -1.6629
 2046TIP3   OH227628   0.091   6.272   1.907 -0.3157 -0.2100  0.2083
 2046TIP3    H127629   0.134   6.313   1.981  0.2078 -0.7056  0.1827
 2046TIP3    H227630  -0.003   6.277   1.928 -0.1891 -0.0367  0.7380
 2047TIP3   OH227631   5.260   3.417   3.505 -0.1741 -0.1007 -0.0736
 2047TIP3    H127632   5.346   3.404   3.465 -0.1225 -2.4299  0.6550
 2047TIP3    H227633   5.247   3.339   3.559 -2.5028  0.4656  0.2708
 2048TIP3   OH227634   5.219   6.761   3.455 -0.2134  0.8947  0.7292
 2048TIP3    H127635   5.307   6.749   3.490  0.1163 -0.3035 -0.4333
 2048TIP3    H227636   5.169   6.799   3.527  1.4269  2.3277  1.1677
 2049TIP3   OH227637   6.836   4.569  17.092  0.4880  0.5522 -0.2047
 2049TIP3    H127638   6.847   4.596  17.001  0.1599  0.6876 -0.2055
 2049TIP3    H227639   6.747   4.595  17.114  0.4475  0.2048  0.0481
 2050TIP3   OH227640   1.391   1.832   3.923  0.5482  0.0803 -0.3446
 2050TIP3    H127641   1.304   1.825   3.882  1.0959  0.4280 -1.6108
 2050TIP3    H227642   1.436   1.752   3.896  0.5643 -0.1935  0.4792
 2051TIP3   OH227643   4.650   5.038   2.951  0.1383 -0.0176  0.3217
 2051TIP3    H127644   4.621   4.997   2.869  0.2354  2.0520 -0.8172
 2051TIP3    H227645   4.569   5.052   3.000 -0.0455 -0.2202  0.0807
 2052TIP3   OH227646   2.879   1.394  17.036 -0.0530 -0.4176  0.3555
 2052TIP3    H127647   2.957   1.449  17.031  0.6659 -1.1122  2.7414
 2052TIP3    H227648   2.809   1.453  17.063  0.1246 -0.1971  0.3356
 2053TIP3   OH227649   1.754   3.073   2.419  0.2822  0.2625 -0.7354
 2053TIP3    H127650   1.837   3.091   2.375  2.2489 -4.8138  0.2718
 2053TIP3    H227651   1.706   3.017   2.358 -0.8402  0.2057  0.1595
 2054TIP3   OH227652   1.780   3.512  14.043  0.0539 -0.2461 -0.1419
 2054TIP3    H127653   1.689   3.536  14.027  0.4505  1.2840 -0.1789
 2054TIP3    H227654   1.810   3.476  13.959 -0.6501 -1.3139  0.0321
 2055TIP3   OH227655   5.624   3.777   1.668 -0.5171 -0.5473  0.1149
 2055TIP3    H127656   5.660   3.693   1.639 -0.8580 -1.1198  1.3255
 2055TIP3    H227657   5.650   3.838   1.599  0.9782 -1.3517 -0.0815
 2056TIP3   OH227658   4.426   2.605  16.561 -0.4056 -0.5014  0.5108
 2056TIP3    H127659   4.472   2.681  16.594  0.5907 -0.4876 -0.8326
 2056TIP3    H227660   4.357   2.589  16.626  0.5709  0.3449  1.8117
 2057TIP3   OH227661   4.988   5.674   5.165  0.6344  0.6414  0.1260
 2057TIP3    H127662   4.985   5.590   5.210  0.2787  0.4546 -0.2464
 2057TIP3    H227663   5.081   5.695   5.160  0.7126  0.3531  0.3733
 2058TIP3   OH227664   1.292   1.211  14.005  0.7221  0.0033  0.2775
 2058TIP3    H127665   1.333   1.148  14.064  1.3391  0.7803  0.6938
 2058TIP3    H227666   1.211   1.236  14.048  0.2174 -0.8755 -0.1321
 2059TIP3   OH227667   4.497   1.477   5.578 -0.1685  0.3862  0.1341
 2059TIP3    H127668   4.555   1.434   5.515 -0.2687  1.7219 -0.9256
 2059TIP3    H227669   4.547   1.481   5.659 -0.0681 -1.4554  0.1969
 2060TIP3   OH227670   4.517   5.942   4.271 -0.1805  0.3780  0.6161
 2060TIP3    H127671   4.434   5.897   4.287 -0.7517  0.9514 -0.5759
 2060TIP3    H227672   4.576   5.908   4.338 -1.2452 -0.3884  1.2001
 2061TIP3   OH227673   4.201   5.533   0.060 -0.7760 -0.2400  0.4331
 2061TIP3    H127674   4.225   5.569  -0.025 -1.1497  1.1491  0.8844
 2061TIP3    H227675   4.263   5.462   0.074  1.2222  1.3636  0.2658
 2062TIP3   OH227676   6.602   2.436   1.720 -0.2236  0.1814 -0.8541
 2062TIP3    H127677   6.605   2.469   1.810  0.3640 -0.4842 -0.6250
 2062TIP3    H227678   6.510   2.416   1.705 -0.3110  0.1957 -0.3619
 2063TIP3   OH227679   2.862   0.118  10.842  0.0419  0.2746 -0.4041
 2063TIP3    H127680   2.931   0.054  10.828 -0.7984 -0.5623 -0.8484
 2063TIP3    H227681   2.868   0.178  10.768 -1.4012 -1.3930 -1.9725
 2064TIP3   OH227682   3.848   5.638  10.372  0.1359  0.4142 -0.6440
 2064TIP3    H127683   3.832   5.730  10.352 -0.0257  0.6123  0.3448
 2064TIP3    H227684   3.812   5.591  10.297 -0.9273  1.0891 -0.5829
 2065TIP3   OH227685   1.153   3.188   4.950  0.4070 -0.0953  0.4734
 2065TIP3    H127686   1.070   3.141   4.946  0.0140  0.6675 -0.9721
 2065TIP3    H227687   1.187   3.185   4.861  0.7944  1.5822  0.5387
 2066TIP3   OH227688   6.832   0.938   2.173 -0.6196 -0.2819  0.2905
 2066TIP3    H127689   6.813   1.029   2.197 -1.1798 -0.1299 -0.6537
 2066TIP3    H227690   6.776   0.922   2.097  2.1971 -0.1807 -1.9828
 2067TIP3   OH227691   3.354   1.781   1.745 -0.7260 -0.4338  0.5224
 2067TIP3    H127692   3.317   1.869   1.733 -0.8774 -0.5508  0.1191
 2067TIP3    H227693   3.333   1.758   1.836  2.1935  1.3057  1.7946
 2068TIP3   OH227694   1.972   1.401  14.904 -0.0183 -0.1857  0.5775
 2068TIP3    H127695   2.040   1.370  14.844  1.0201  0.4083  1.4186
 2068TIP3    H227696   1.958   1.492  14.879  0.5146  0.1047  1.2984
 2069TIP3   OH227697   6.280   1.710   1.312 -0.5092 -0.0846 -0.3531
 2069TIP3    H127698   6.245   1.717   1.401 -0.6488 -2.9230 -0.0826
 2069TIP3    H227699   6.350   1.776   1.308  1.3128 -1.5875  2.8217
 2070TIP3   OH227700   0.631   6.828  16.193  0.2424  0.1381  0.0308
 2070TIP3    H127701   0.726   6.834  16.205  0.0673  0.3498  1.4681
 2070TIP3    H227702   0.597   6.909  16.231 -0.5406 -0.0578 -0.2364
 2071TIP3   OH227703   2.625   4.490   2.459 -0.1392  0.7757  0.0580
 2071TIP3    H127704   2.697   4.434   2.488  0.7172  2.1454  0.6763
 2071TIP3    H227705   2.664   4.548   2.393 -0.3364  2.3247  1.2382
 2072TIP3   OH227706   2.829   1.437  11.728  0.2904  0.4083  1.1311
 2072TIP3    H127707   2.906   1.425  11.783  1.6737 -0.9046 -0.9215
 2072TIP3    H227708   2.865   1.446  11.639 -1.7265  3.7167  0.4866
 2073TIP3   OH227709   4.287   6.199  12.252  0.1548  0.3978 -0.2243
 2073TIP3    H127710   4.354   6.244  12.303 -0.1915  0.1060  0.5045
 2073TIP3    H227711   4.335   6.136  12.199  0.6466  1.6088 -1.2718
 2074TIP3   OH227712   1.011   4.335   0.255 -0.0897  0.4778 -0.0841
 2074TIP3    H127713   0.920   4.353   0.229  0.0999  2.3588  0.4055
 2074TIP3    H227714   1.062   4.403   0.211  1.0897 -0.4471 -0.2091
 2075TIP3   OH227715   0.283   2.918  11.654  0.1837 -0.1490 -0.0672
 2075TIP3    H127716   0.212   2.981  11.645 -1.4543 -1.5836  1.9427
 2075TIP3    H227717   0.329   2.943  11.734  0.2672 -0.7825  0.0925
 2076TIP3   OH227718   6.132   0.871   1.569  0.3227  0.3210 -0.0250
 2076TIP3    H127719   6.051   0.854   1.617 -0.2657  2.3845 -0.2008
 2076TIP3    H227720   6.105   0.876   1.477  0.9327 -0.5604 -0.2647
 2077TIP3   OH227721   1.305   2.323   0.404 -0.4591 -0.4933  0.2013
 2077TIP3    H127722   1.242   2.395   0.405 -0.3419 -0.3910  1.4660
 2077TIP3    H227723   1.367   2.347   0.335 -0.5885  0.4757  0.4069
 2078TIP3   OH227724   6.331   1.689  11.214  0.2789  0.1864 -0.4820
 2078TIP3    H127725   6.324   1.663  11.122 -0.6264 -3.4903  0.4657
 2078TIP3    H227726   6.241   1.689  11.245  0.7360 -0.8330  0.9063
 2079TIP3   OH227727   0.207   4.745   1.706 -0.3222  0.0744 -0.1655
 2079TIP3    H127728   0.202   4.824   1.760 -0.8894  0.3616 -0.6362
 2079TIP3    H227729   0.174   4.772   1.621 -0.1394 -0.5724 -0.4463
 2080TIP3   OH227730   0.366   2.381   3.182 -0.1435  0.8926  0.3064
 2080TIP3    H127731   0.405   2.294   3.170 -0.3733  1.0317 -1.9191
 2080TIP3    H227732   0.416   2.438   3.124 -0.6650  2.0542  0.9565
 2081TIP3   OH227733   2.832   3.892   0.574 -0.6353  0.8072  0.4032
 2081TIP3    H127734   2.751   3.943   0.581 -2.1719 -1.3327 -0.8652
 2081TIP3    H227735   2.843   3.877   0.481 -0.2313 -1.1281  0.7308
 2082TIP3   OH227736   6.205   2.441   4.696 -1.0358  0.1591 -0.1688
 2082TIP3    H127737   6.184   2.350   4.716 -0.7884  0.0689 -0.3219
 2082TIP3    H227738   6.240   2.475   4.779 -1.4339  0.2088 -0.0173
 2083TIP3   OH227739   5.817   0.338   3.740  0.3861 -1.2058 -0.0438
 2083TIP3    H127740   5.760   0.351   3.815  0.6276 -2.4663  0.3807
 2083TIP3    H227741   5.842   0.426   3.713  1.5304 -0.7523  2.3012
 2084TIP3   OH227742   1.965   0.577  13.875  0.3591  0.3729  0.6657
 2084TIP3    H127743   1.959   0.541  13.786  1.4109 -0.6963  1.0039
 2084TIP3    H227744   1.966   0.672  13.862  0.8802  0.2301 -0.5005
 2085TIP3   OH227745   5.777   5.882  12.183  0.0863 -0.0448  0.0889
 2085TIP3    H127746   5.825   5.962  12.203 -1.1522  0.5527  0.7317
 2085TIP3    H227747   5.826   5.813  12.229  0.2263  0.5802  0.8936
 2086TIP3   OH227748   0.498   0.489  14.540  0.3146 -1.2299  0.1434
 2086TIP3    H127749   0.432   0.530  14.484  0.8858  1.4783  1.2965
 2086TIP3    H227750   0.568   0.464  14.480 -0.6218 -1.7318 -0.7683
 2087TIP3   OH227751   0.351   0.906  14.509  0.1950 -0.1474  0.3576
 2087TIP3    H127752   0.424   0.862  14.466 -1.3989 -1.8056 -0.8415
 2087TIP3    H227753   0.337   0.856  14.590 -1.3024 -1.6579 -0.7651
 2088TIP3   OH227754   0.528   1.522   0.903  0.3479 -0.2516 -0.0600
 2088TIP3    H127755   0.617   1.533   0.936 -0.1329 -0.3540  1.3545
 2088TIP3    H227756   0.531   1.442   0.851  1.5256  0.8232 -1.7424
 2089TIP3   OH227757   2.625   0.880  15.465 -0.2690  0.1908  0.7759
 2089TIP3    H127758   2.643   0.799  15.512  0.5116 -0.6406 -0.8761
 2089TIP3    H227759   2.709   0.904  15.426 -0.8015  1.0440  0.1293
 2090TIP3   OH227760   5.113   4.846  12.043  0.0861 -0.0108  0.0974
 2090TIP3    H127761   5.129   4.839  12.137  1.3759  0.6249 -0.0468
 2090TIP3    H227762   5.025   4.884  12.036 -0.1173 -0.2773  1.0320
 2091TIP3   OH227763   3.325   5.640   5.057  0.0283  0.2357 -0.4368
 2091TIP3    H127764   3.241   5.659   5.099  0.2926  0.7624 -0.1486
 2091TIP3    H227765   3.304   5.572   4.993 -0.8303  1.1178 -1.1276
 2092TIP3   OH227766   1.372   0.808   0.551  0.7556  0.0520 -0.1606
 2092TIP3    H127767   1.306   0.760   0.600 -1.7045  2.9683 -0.3647
 2092TIP3    H227768   1.375   0.764   0.465 -2.1437  0.7225 -0.6937
 2093TIP3   OH227769   2.883   5.655  15.003  0.8149  0.1110  0.1192
 2093TIP3    H127770   2.917   5.669  14.915  0.3156 -0.0202 -0.0940
 2093TIP3    H227771   2.843   5.568  15.001 -0.3948  0.6494  0.0923
 2094TIP3   OH227772   1.802   0.244  10.947 -0.0119  0.1831 -0.3846
 2094TIP3    H127773   1.711   0.265  10.964  0.0422  0.4161 -0.3733
 2094TIP3    H227774   1.820   0.285  10.862  0.1237  0.2638 -0.3162
 2095TIP3   OH227775   3.322   3.116  11.278 -0.3909 -1.0158  1.1271
 2095TIP3    H127776   3.239   3.162  11.268 -0.7542 -1.7696  0.6965
 2095TIP3    H227777   3.299   3.025  11.291  0.3854 -1.3062  0.5533
 2096TIP3   OH227778   0.286   2.669   5.614  0.0695 -0.1951 -0.2328
 2096TIP3    H127779   0.284   2.758   5.650 -1.1858  0.4975 -1.9010
 2096TIP3    H227780   0.208   2.627   5.649 -0.3075 -0.0388 -0.8813
 2097TIP3   OH227781   6.121   6.808   1.531 -0.1020  0.0266  0.0372
 2097TIP3    H127782   6.192   6.851   1.483 -1.0880  0.7835 -0.7941
 2097TIP3    H227783   6.065   6.771   1.463 -1.5918  1.2100  0.5629
 2098TIP3   OH227784   0.506   5.535  15.711 -0.2088 -0.2150 -0.7321
 2098TIP3    H127785   0.484   5.572  15.626  1.4201 -1.4115 -1.7257
 2098TIP3    H227786   0.600   5.553  15.722 -0.2592 -0.6020  0.5423
 2099TIP3   OH227787   3.915   4.550   4.042  0.1623 -0.7482  0.2814
 2099TIP3    H127788   3.953   4.562   3.955  2.4866 -0.2551  1.2920
 2099TIP3    H227789   3.854   4.477   4.031 -0.3352 -0.0992 -1.9311
 2100TIP3   OH227790   0.502   4.532  15.033 -0.0938  0.0251 -0.8981
 2100TIP3    H127791   0.590   4.547  15.068 -0.1369 -1.9824  0.1841
 2100TIP3    H227792   0.451   4.607  15.062  1.1751  1.0897 -1.3213
 2101TIP3   OH227793   2.135   0.178  12.387  0.3838  0.3134  0.5997
 2101TIP3    H127794   2.174   0.260  12.356  0.1952 -0.5367 -2.1793
 2101TIP3    H227795   2.041   0.193  12.384  0.3459 -0.0177 -0.0198
 2102TIP3   OH227796   5.660   2.275   5.240  0.0392  0.4728  0.4846
 2102TIP3    H127797   5.679   2.191   5.200 -1.5139  1.2093 -2.0253
 2102TIP3    H227798   5.740   2.326   5.229  0.5580 -0.2402  0.8808
 2103TIP3   OH227799   6.070   1.877   0.588 -0.9061 -0.1183  0.2135
 2103TIP3    H127800   6.088   1.971   0.580  2.3335 -0.6707 -0.6528
 2103TIP3    H227801   6.124   1.849   0.661  0.0527 -1.6536 -1.0338
 2104TIP3   OH227802   3.003   2.248   3.590 -0.0401 -0.3158 -0.6024
 2104TIP3    H127803   2.937   2.221   3.526 -1.2066 -1.4403  0.9726
 2104TIP3    H227804   3.085   2.211   3.558 -0.5536 -0.6406 -1.5700
 2105TIP3   OH227805   1.700   2.378  11.063  0.1040  0.2478  0.2079
 2105TIP3    H127806   1.686   2.285  11.043 -1.4286  0.4703  0.1158
 2105TIP3    H227807   1.784   2.380  11.109 -1.2844 -1.6307  3.1548
 2106TIP3   OH227808   1.316   2.717  15.868 -0.0588 -0.3524 -0.4742
 2106TIP3    H127809   1.336   2.737  15.776 -1.2370 -1.8844 -1.1026
 2106TIP3    H227810   1.328   2.623  15.876 -0.9105 -0.3846  0.7037
 2107TIP3   OH227811   3.211   0.453   3.421 -0.2982 -0.5511 -0.1470
 2107TIP3    H127812   3.236   0.493   3.337 -1.1805 -0.6355 -0.4587
 2107TIP3    H227813   3.181   0.365   3.397 -0.8891 -0.4491  0.2122
 2108TIP3   OH227814   3.895   0.280   3.243  0.4210 -0.5474  0.2963
 2108TIP3    H127815   3.885   0.352   3.306 -0.1431 -0.4296  0.0832
 2108TIP3    H227816   3.862   0.203   3.289 -2.1442 -0.0697 -0.5757
 2109TIP3   OH227817   0.235   6.427   2.106 -0.4388 -0.1732 -0.1879
 2109TIP3    H127818   0.314   6.385   2.140 -1.0426 -1.3594 -0.1919
 2109TIP3    H227819   0.182   6.445   2.183  0.4191  1.9622 -0.0348
 2110TIP3   OH227820   4.673   0.767  16.913 -0.0205 -0.0403 -0.1149
 2110TIP3    H127821   4.769   0.766  16.905  0.1859  3.0099  0.8428
 2110TIP3    H227822   4.656   0.761  17.007 -0.4403  3.5067  0.1833
 2111TIP3   OH227823   1.796   5.984   0.784 -0.0720 -0.3780 -0.3047
 2111TIP3    H127824   1.875   6.002   0.837 -0.4150 -1.3062  0.5536
 2111TIP3    H227825   1.745   6.065   0.790  1.0190  0.4215 -1.2786
 2112TIP3   OH227826   0.309   6.383  15.212  0.4597  0.0593 -0.1326
 2112TIP3    H127827   0.401   6.357  15.216  0.6587  0.2905 -2.1393
 2112TIP3    H227828   0.267   6.312  15.163 -0.3999  0.0731  0.5594
 2113TIP3   OH227829   0.205   2.033   3.145  0.1469 -0.3227 -0.0474
 2113TIP3    H127830   0.118   2.053   3.179  0.8555  1.4871  0.8327
 2113TIP3    H227831   0.211   1.937   3.149 -1.7678 -0.4708 -0.0956
 2114TIP3   OH227832   0.915   5.352  13.251 -0.2216  0.0418 -0.0059
 2114TIP3    H127833   0.964   5.327  13.329 -1.1390 -1.3943  0.1437
 2114TIP3    H227834   0.983   5.377  13.188  0.7195 -1.6974  0.2565
 2115TIP3   OH227835   0.520   3.163  17.008  0.5446  0.1296 -0.6599
 2115TIP3    H127836   0.504   3.073  16.982  0.2973  0.7100 -2.6398
 2115TIP3    H227837   0.440   3.189  17.055  1.4752 -1.2914  1.9326
 2116TIP3   OH227838   4.396   5.596  17.014  0.0379 -0.2754  0.3114
 2116TIP3    H127839   4.356   5.596  16.927 -1.2531  2.1221  0.8162
 2116TIP3    H227840   4.452   5.673  17.014  0.1311 -0.3277  1.5479
 2117TIP3   OH227841   2.107   1.105  13.272 -0.5483 -0.2467  0.2101
 2117TIP3    H127842   2.024   1.106  13.225 -0.0220 -0.3973 -0.7475
 2117TIP3    H227843   2.114   1.016  13.308 -1.4545  0.1812  1.5348
 2118TIP3   OH227844   2.604   4.087   0.244 -0.0550 -0.1061  0.0596
 2118TIP3    H127845   2.650   4.169   0.260 -2.6329  1.1846  1.4959
 2118TIP3    H227846   2.615   4.071   0.150  3.7448 -0.2972  0.3892
 2119TIP3   OH227847   3.724   2.848  14.030  0.0102  0.1276 -0.0949
 2119TIP3    H127848   3.684   2.772  14.071  2.0979 -0.6490  0.6563
 2119TIP3    H227849   3.652   2.909  14.016 -1.4404 -1.2880  0.8761
 2120TIP3   OH227850   4.693   5.590  12.395 -0.1867  0.1792  0.0668
 2120TIP3    H127851   4.729   5.527  12.333  0.6276  1.4726 -0.8307
 2120TIP3    H227852   4.608   5.554  12.420  0.2467 -1.2543 -0.4000
 2121TIP3   OH227853   3.798   5.283   2.649  0.0112 -0.0424  0.3424
 2121TIP3    H127854   3.825   5.367   2.613 -0.2411  0.1596  0.6208
 2121TIP3    H227855   3.707   5.296   2.677 -0.0736 -0.4439  0.2695
 2122TIP3   OH227856   4.102   2.040  12.768 -0.3510 -0.3458 -0.6107
 2122TIP3    H127857   4.149   2.122  12.753 -0.2404 -0.2146  0.3883
 2122TIP3    H227858   4.156   1.973  12.726  1.0661 -0.2774  0.9785
 2123TIP3   OH227859   4.903   2.587  13.745 -0.2627  0.0031  0.1449
 2123TIP3    H127860   4.901   2.682  13.730 -1.7747 -0.0399 -0.0584
 2123TIP3    H227861   4.813   2.559  13.731 -0.0007 -1.3509  1.0341
 2124TIP3   OH227862   0.872   0.855  12.537  0.0968 -0.0663 -0.9112
 2124TIP3    H127863   0.799   0.838  12.598 -0.1255 -1.3091 -1.4779
 2124TIP3    H227864   0.831   0.855  12.451  0.7784 -0.9493 -1.2518
 2125TIP3   OH227865   4.616   6.773  10.878 -0.0732  0.4035 -0.4631
 2125TIP3    H127866   4.623   6.849  10.936 -0.6256 -0.5709  0.9603
 2125TIP3    H227867   4.572   6.707  10.931  0.9070 -1.1111 -1.4421
 2126TIP3   OH227868   3.522   3.516   5.287  0.0985 -0.2092  0.1310
 2126TIP3    H127869   3.471   3.435   5.286  0.8635 -0.6944 -1.3278
 2126TIP3    H227870   3.500   3.559   5.205 -0.2095  1.0457  0.8341
 2127TIP3   OH227871   2.858   0.560   1.357 -0.3398 -0.2785 -0.1193
 2127TIP3    H127872   2.819   0.475   1.378  0.7097 -0.8547 -0.4271
 2127TIP3    H227873   2.935   0.566   1.414  1.0116 -0.6775 -1.8061
 2128TIP3   OH227874   5.822   2.507   0.262 -0.8053  0.3354  0.4281
 2128TIP3    H127875   5.815   2.436   0.198 -0.4521 -0.0729  0.8303
 2128TIP3    H227876   5.867   2.578   0.216 -0.8660  0.1736  0.1228
 2129TIP3   OH227877   1.961   5.576  15.477  0.1823  0.1353 -0.2058
 2129TIP3    H127878   1.869   5.596  15.458  0.1499  0.1879  0.0014
 2129TIP3    H227879   2.010   5.630  15.415  0.0847  0.5711  0.0907
 2130TIP3   OH227880   1.802   4.105  14.490 -0.0332  0.3104 -0.0878
 2130TIP3    H127881   1.837   4.018  14.509 -1.4382 -0.2242  0.1292
 2130TIP3    H227882   1.780   4.142  14.575 -1.0352  0.1881 -0.2896
 2131TIP3   OH227883   5.340   1.403  10.859  0.0103  0.4470  0.0141
 2131TIP3    H127884   5.345   1.499  10.858 -0.4247  0.5332  2.1943
 2131TIP3    H227885   5.400   1.375  10.790  0.3271  2.2738 -0.5027
 2132TIP3   OH227886   6.239   6.782   2.354 -0.9391  0.0944 -0.2063
 2132TIP3    H127887   6.264   6.804   2.444 -0.9835 -0.7041  0.0167
 2132TIP3    H227888   6.250   6.863   2.305  2.6721 -0.2361 -0.2586
 2133TIP3   OH227889   2.395   5.428   2.749  0.2996 -0.0512  0.2567
 2133TIP3    H127890   2.417   5.496   2.812 -1.6674 -0.5979  1.6159
 2133TIP3    H227891   2.316   5.459   2.705  2.1797  0.8021 -2.8049
 2134TIP3   OH227892   2.528   6.231  13.195  0.3112 -0.6927  0.1339
 2134TIP3    H127893   2.554   6.199  13.109  3.7081  1.9528 -0.0671
 2134TIP3    H227894   2.530   6.327  13.186 -0.0308 -0.3387  2.9213
 2135TIP3   OH227895   5.020   4.675   0.917 -0.1074  0.1429 -0.3363
 2135TIP3    H127896   4.981   4.716   0.840 -0.4647  1.9644  0.7545
 2135TIP3    H227897   4.952   4.616   0.950 -0.5383  0.5099 -0.5586
 2136TIP3   OH227898   2.069   4.867   4.288  0.0261 -0.1486 -0.0434
 2136TIP3    H127899   2.072   4.917   4.206 -1.2465  0.9405  0.5245
 2136TIP3    H227900   2.159   4.842   4.305  0.7414  1.9703 -0.3952
 2137TIP3   OH227901   3.165   1.230   1.523 -0.4225  0.0451  0.4581
 2137TIP3    H127902   3.108   1.290   1.475 -1.9497 -1.7773 -0.1230
 2137TIP3    H227903   3.123   1.221   1.608  0.0732  0.1409  0.7187
 2138TIP3   OH227904   2.162   6.736  13.561 -0.0602  0.1994  0.4418
 2138TIP3    H127905   2.076   6.708  13.530  0.1177 -1.3195  1.2544
 2138TIP3    H227906   2.224   6.704  13.496  0.0762 -0.6245  0.9713
 2139TIP3   OH227907   5.963   1.308   3.135 -0.4960  0.6123  0.4166
 2139TIP3    H127908   5.920   1.274   3.056  1.3128  0.8546 -0.7215
 2139TIP3    H227909   5.941   1.401   3.136 -0.6836  0.5695  0.3029
 2140TIP3   OH227910   0.087   3.913   5.157 -0.7057 -0.4146 -0.6676
 2140TIP3    H127911   0.103   3.820   5.170 -0.6155 -0.1887  0.9528
 2140TIP3    H227912  -0.008   3.922   5.162 -0.6484 -0.2752  0.2737
 2141TIP3   OH227913   6.575   0.097   2.235  0.0782 -0.1643  0.3131
 2141TIP3    H127914   6.581   0.129   2.145  1.7023 -0.3986  0.3112
 2141TIP3    H227915   6.575   0.002   2.226 -2.3442 -0.2432  0.4569
 2142TIP3   OH227916   4.801   3.842  10.733 -0.2220  0.2972  0.1473
 2142TIP3    H127917   4.896   3.835  10.725 -0.2804  0.2033 -0.4639
 2142TIP3    H227918   4.766   3.786  10.664 -0.7402 -0.9025  1.3369
 2143TIP3   OH227919   4.931   6.096  13.330 -0.2520 -0.0589  0.0469
 2143TIP3    H127920   4.839   6.078  13.348 -0.6869  1.1683 -0.8575
 2143TIP3    H227921   4.967   6.122  13.415 -0.4549 -1.5944  0.6285
 2144TIP3   OH227922   2.429   4.558   2.168  0.0808  0.0683  0.5200
 2144TIP3    H127923   2.400   4.621   2.102  1.8309  0.4144  0.0151
 2144TIP3    H227924   2.375   4.480   2.153  0.6604  0.0204 -1.5722
 2145TIP3   OH227925   0.914   6.313  17.026 -0.7633 -0.0940 -0.1021
 2145TIP3    H127926   0.971   6.237  17.042 -1.1263 -0.2787  0.3394
 2145TIP3    H227927   0.916   6.361  17.109 -1.2992 -0.1347 -0.0648
 2146TIP3   OH227928   1.370   1.842   6.128 -0.0529 -0.4304  0.9603
 2146TIP3    H127929   1.349   1.833   6.221  0.1855  0.9591  1.1743
 2146TIP3    H227930   1.437   1.911   6.125 -0.9426  0.4123 -0.3384
 2147TIP3   OH227931   6.100   4.662   0.779  0.2473  0.0458 -0.0062
 2147TIP3    H127932   6.084   4.755   0.761  0.4791 -0.3553 -2.6209
 2147TIP3    H227933   6.013   4.628   0.802  0.0070  0.7435  0.1643
 2148TIP3   OH227934   1.582   0.213   3.167  0.1507 -0.3264 -0.0304
 2148TIP3    H127935   1.575   0.147   3.237  1.4434  0.0186  0.4545
 2148TIP3    H227936   1.524   0.284   3.195 -0.2497 -0.6978  0.0961
 2149TIP3   OH227937   3.555   0.471   1.576 -0.3995  0.3106  0.4754
 2149TIP3    H127938   3.523   0.519   1.499 -1.8617 -1.3838 -0.0436
 2149TIP3    H227939   3.480   0.469   1.636 -1.1179 -2.8543 -0.3347
 2150TIP3   OH227940   5.574   5.678   2.359 -0.2656 -0.6737  0.6350
 2150TIP3    H127941   5.607   5.744   2.420 -1.2272  0.5944 -0.1774
 2150TIP3    H227942   5.630   5.687   2.282 -2.3676  1.5008 -0.7586
 2151TIP3   OH227943   1.802   1.758   2.791 -0.5433  0.4929 -0.2130
 2151TIP3    H127944   1.790   1.755   2.696  0.0068 -0.6118 -0.2764
 2151TIP3    H227945   1.850   1.677   2.811  0.8850  1.5199  0.7802
 2152TIP3   OH227946   4.557   3.753   2.750  0.0895  0.3408  0.2001
 2152TIP3    H127947   4.475   3.720   2.787  0.5254  0.7252  1.5678
 2152TIP3    H227948   4.616   3.677   2.751  0.5482  0.6849  1.7037
 2153TIP3   OH227949   2.066   3.167   5.067  0.2110 -0.1889  0.4756
 2153TIP3    H127950   2.045   3.188   5.158 -0.9432 -0.0985  0.1969
 2153TIP3    H227951   2.008   3.224   5.015  2.4870  1.5417 -0.3635
 2154TIP3   OH227952   4.769   2.120  12.675 -0.4300  0.5338 -0.3620
 2154TIP3    H127953   4.763   2.214  12.690  1.8715  1.2447 -3.0291
 2154TIP3    H227954   4.717   2.105  12.596  0.9189 -0.0055 -1.1786
 2155TIP3   OH227955   1.246   0.439  14.153  0.9788  0.9203  0.2670
 2155TIP3    H127956   1.293   0.363  14.188  1.1403  1.2843  0.8530
 2155TIP3    H227957   1.306   0.477  14.089  0.1478 -0.5301 -1.4480
 2156TIP3   OH227958   2.747   2.989  14.772 -0.0785  0.2899  1.0510
 2156TIP3    H127959   2.763   3.068  14.721 -0.5158 -0.9541 -1.1038
 2156TIP3    H227960   2.679   2.942  14.724 -1.1892 -0.5540  3.2649
 2157TIP3   OH227961   6.699   1.850   3.169  0.0754  0.3455  0.9433
 2157TIP3    H127962   6.621   1.818   3.216 -1.1547  0.0045 -1.2085
 2157TIP3    H227963   6.727   1.927   3.219 -0.3706 -0.6955  2.9403
 2158TIP3   OH227964   4.867   1.376  13.300 -0.4609  0.3393  0.2730
 2158TIP3    H127965   4.836   1.287  13.289 -0.5033  0.6033 -2.2727
 2158TIP3    H227966   4.959   1.373  13.274 -0.9013  1.3011 -1.6146
 2159TIP3   OH227967   2.630   0.083  11.459 -0.4107  0.2946 -0.4885
 2159TIP3    H127968   2.651   0.029  11.382 -1.6761  0.0984 -0.7233
 2159TIP3    H227969   2.534   0.084  11.462 -0.3913  1.2462  0.4337
 2160TIP3   OH227970   0.912   3.274   2.817  0.3857 -0.4966  0.1023
 2160TIP3    H127971   0.941   3.205   2.757 -0.1824  0.1957 -1.0059
 2160TIP3    H227972   0.968   3.348   2.796  0.4997 -0.3907  0.7707
 2161TIP3   OH227973   0.986   2.519   4.071 -0.2651 -0.6122 -0.9855
 2161TIP3    H127974   0.972   2.512   4.166  0.9264 -1.4573 -0.8352
 2161TIP3    H227975   0.966   2.431   4.038  0.6703 -0.7212 -1.2959
 2162TIP3   OH227976   1.495   1.213  15.228  0.2084 -0.4225 -0.5456
 2162TIP3    H127977   1.475   1.243  15.139  3.2895 -1.8922 -1.9039
 2162TIP3    H227978   1.564   1.272  15.258 -0.7290 -0.0068  0.8940
 2163TIP3   OH227979   6.368   1.783   4.368 -0.4460 -0.1479 -0.2925
 2163TIP3    H127980   6.456   1.746   4.359 -0.2840  0.0767  0.3342
 2163TIP3    H227981   6.328   1.770   4.282  0.5032  0.5351 -0.8503
 2164TIP3   OH227982   6.422   2.650   1.421  0.6471  0.2960 -0.2144
 2164TIP3    H127983   6.391   2.637   1.331  0.9103  1.5171 -0.5064
 2164TIP3    H227984   6.514   2.622   1.419  0.8239  0.8681 -0.4914
 2165TIP3   OH227985   5.321   0.749  17.090  0.8027  0.6404  0.1024
 2165TIP3    H127986   5.409   0.725  17.061  0.8818  1.5134 -0.4025
 2165TIP3    H227987   5.281   0.791  17.014 -0.1935 -0.0840  0.1989
 2166TIP3   OH227988   3.570   3.504   2.928 -0.6494 -0.3332  0.0401
 2166TIP3    H127989   3.635   3.476   2.992  0.4604 -1.0507 -1.3469
 2166TIP3    H227990   3.616   3.570   2.875 -1.7414  0.7051  0.3303
 2167TIP3   OH227991   3.726   3.040  13.096 -0.2815 -0.5789 -0.0511
 2167TIP3    H127992   3.801   3.056  13.153  0.7783  0.6398 -1.7071
 2167TIP3    H227993   3.650   3.065  13.149  0.7810  2.2207  0.3170
 2168TIP3   OH227994   4.544   6.191   6.308  0.1441  0.5989 -0.0995
 2168TIP3    H127995   4.592   6.252   6.364  1.2192 -0.0661 -0.2750
 2168TIP3    H227996   4.568   6.104   6.340 -0.9404  0.2447 -0.2089
 2169TIP3   OH227997   1.338   5.314  14.384 -0.1673 -0.7161  0.4199
 2169TIP3    H127998   1.396   5.349  14.452 -0.5878 -0.0283  0.4346
 2169TIP3    H227999   1.360   5.364  14.305 -0.9731 -0.1980  0.5103
 2170TIP3   OH228000   2.338   1.715   0.202  0.2036  0.2917  0.1778
 2170TIP3    H128001   2.368   1.626   0.184 -1.4586 -0.5622  1.3634
 2170TIP3    H228002   2.243   1.710   0.199  0.0796  2.3584 -1.0554
 2171TIP3   OH228003   5.273   3.111  11.226  0.0707 -0.1479  0.1496
 2171TIP3    H128004   5.229   3.196  11.231 -0.7585 -0.6326  1.4555
 2171TIP3    H228005   5.208   3.048  11.257  0.8877 -1.1886 -0.1880
 2172TIP3   OH228006   3.162   0.856  11.777 -0.2803 -0.3404 -0.3189
 2172TIP3    H128007   3.103   0.930  11.765  0.3311  0.0709 -0.9064
 2172TIP3    H228008   3.178   0.852  11.871 -0.4900  0.1311 -0.2623
 2173TIP3   OH228009   5.315   3.720   0.989  0.0983 -0.1599 -0.4030
 2173TIP3    H128010   5.292   3.766   1.070 -1.3522  0.5486 -1.1593
 2173TIP3    H228011   5.274   3.634   0.998 -0.6201  0.1445 -0.6143
 2174TIP3   OH228012   6.693   0.921  15.114 -0.3047  0.7154  0.2106
 2174TIP3    H128013   6.788   0.906  15.110 -0.1960  0.9181  1.4157
 2174TIP3    H228014   6.684   0.997  15.173 -1.2442  0.3229  0.5949
 2175TIP3   OH228015   6.585   1.307   0.343 -0.1835  0.1133 -0.2939
 2175TIP3    H128016   6.655   1.318   0.407  0.4557  1.3114 -1.1645
 2175TIP3    H228017   6.506   1.337   0.389  0.0281 -0.3144  0.3651
 2176TIP3   OH228018   1.986   5.957   4.839  0.7064  0.3356  0.1742
 2176TIP3    H128019   1.981   5.862   4.846 -0.6004  0.3917  0.2208
 2176TIP3    H228020   2.007   5.973   4.747 -0.3742  0.0250 -0.1365
 2177TIP3   OH228021   1.167   4.492  12.211 -0.6514 -0.9074  1.0543
 2177TIP3    H128022   1.160   4.587  12.215 -0.9982 -0.8377 -0.5472
 2177TIP3    H228023   1.164   4.471  12.117 -1.7800 -2.5718  1.4075
 2178TIP3   OH228024   2.264   0.681  11.817 -1.0570  0.4775 -0.3774
 2178TIP3    H128025   2.258   0.774  11.794 -0.5365  0.9206  1.1501
 2178TIP3    H228026   2.280   0.637  11.733  2.0249  2.1109 -0.8285
 2179TIP3   OH228027   1.594   5.679  16.921  0.1191  0.4139  0.2993
 2179TIP3    H128028   1.561   5.604  16.971  0.1872  0.0597 -0.1799
 2179TIP3    H228029   1.572   5.755  16.974 -0.7949  0.1286  0.3435
 2180TIP3   OH228030   2.759   2.116  12.777  0.4640  0.0633  0.0488
 2180TIP3    H128031   2.789   2.094  12.865  1.1471  2.8563  0.6047
 2180TIP3    H228032   2.777   2.037  12.725 -1.4568 -2.2589  2.6560
 2181TIP3   OH228033   5.071   6.122   0.344 -0.7106 -0.5655 -0.2449
 2181TIP3    H128034   5.081   6.053   0.279  0.1744 -0.5309 -0.1513
 2181TIP3    H228035   5.113   6.198   0.305  1.2725 -0.9551  0.9890
 2182TIP3   OH228036   5.505   5.934   4.060  0.2781  0.2024 -0.2504
 2182TIP3    H128037   5.496   5.848   4.017 -0.7812  0.3947 -0.4550
 2182TIP3    H228038   5.483   5.997   3.991  0.4126  0.6076  0.0740
 2183TIP3   OH228039   1.336   0.764   0.278 -0.8749 -0.0667  0.4708
 2183TIP3    H128040   1.345   0.847   0.230 -1.3290 -0.0639  0.3872
 2183TIP3    H228041   1.299   0.704   0.213  0.7117 -0.7099  0.1287
 2184TIP3   OH228042   5.183   4.348   0.239 -0.5466  0.1068 -0.2729
 2184TIP3    H128043   5.180   4.427   0.186 -2.4006 -0.3446 -0.9490
 2184TIP3    H228044   5.162   4.377   0.328  3.0728  0.9434  0.4587
 2185TIP3   OH228045   4.280   5.479   3.854 -0.3420  0.0910  0.5319
 2185TIP3    H128046   4.253   5.431   3.775  0.8811  1.6455 -0.8887
 2185TIP3    H228047   4.364   5.440   3.878 -0.4574 -0.0158  0.7696
 2186TIP3   OH228048   4.946   4.641  12.160 -0.4300  0.3087 -0.2784
 2186TIP3    H128049   4.938   4.551  12.192 -0.7510  0.8844  1.3529
 2186TIP3    H228050   5.017   4.678  12.212  0.0294  0.8696 -1.2853
 2187TIP3   OH228051   5.179   6.062  12.723 -0.5801 -0.3702  0.1844
 2187TIP3    H128052   5.189   5.967  12.717 -1.0943 -0.3593 -1.1284
 2187TIP3    H228053   5.087   6.075  12.745 -0.0773 -0.2033  2.3598
 2188TIP3   OH228054   0.357   3.852  12.855 -0.3552 -0.0481 -0.5578
 2188TIP3    H128055   0.401   3.891  12.931  2.0685 -1.3616 -1.1739
 2188TIP3    H228056   0.284   3.910  12.837 -0.5241  0.7587  2.2688
 2189TIP3   OH228057   1.573   5.253  13.189  0.1057  0.0257  0.3023
 2189TIP3    H128058   1.478   5.267  13.183 -0.0022 -0.4630  0.7546
 2189TIP3    H228059   1.611   5.338  13.169 -0.3570 -0.2090 -1.7747
 2190TIP3   OH228060   5.649   4.205  13.869  0.1046  0.3718  0.0153
 2190TIP3    H128061   5.645   4.282  13.812 -1.3919  0.1458 -0.2166
 2190TIP3    H228062   5.717   4.150  13.829 -0.7878  0.2994 -1.4947
 2191TIP3   OH228063   3.457   5.000  13.883 -0.4171 -0.4019 -0.3188
 2191TIP3    H128064   3.503   4.926  13.923  0.9711  0.2793 -0.5918
 2191TIP3    H228065   3.407   5.039  13.956 -0.4098 -1.0403  0.0323
 2192TIP3   OH228066   3.804   4.481   5.300 -0.0059  0.2267 -0.0073
 2192TIP3    H128067   3.770   4.429   5.373  0.9738 -3.2970 -1.8169
 2192TIP3    H228068   3.893   4.502   5.325 -1.1379  3.5770  1.8366
 2193TIP3   OH228069   0.343   6.188   0.281 -0.1408 -0.0634 -0.0143
 2193TIP3    H128070   0.403   6.117   0.259 -0.3617  0.0048 -0.8675
 2193TIP3    H228071   0.341   6.243   0.203 -2.5108 -0.9056 -0.6112
 2194TIP3   OH228072   1.941   1.089   3.383  0.5702 -0.2081 -0.1944
 2194TIP3    H128073   1.952   1.153   3.312 -0.5503 -0.6234 -0.7648
 2194TIP3    H228074   1.931   1.142   3.462  2.7906  0.2540 -0.1515
 2195TIP3   OH228075   0.472   6.290   1.829 -0.2734 -0.0108 -0.2786
 2195TIP3    H128076   0.430   6.374   1.811  0.6889  0.1798 -1.7493
 2195TIP3    H228077   0.484   6.290   1.924  1.0011  2.1842 -0.3666
 2196TIP3   OH228078   4.104   1.747   6.720 -0.4903 -0.7327 -0.2208
 2196TIP3    H128079   4.040   1.706   6.661 -1.5309  0.2877  0.1583
 2196TIP3    H228080   4.124   1.678   6.784  0.3701 -1.7294 -1.5000
 2197TIP3   OH228081   6.245   5.116   4.840 -0.3630  0.1694 -0.0719
 2197TIP3    H128082   6.323   5.062   4.835 -1.0802 -0.7790 -2.2214
 2197TIP3    H228083   6.186   5.068   4.898 -0.9833 -1.4586 -1.9288
 2198TIP3   OH228084   1.657   5.512  11.211  0.1130 -0.2012  0.3883
 2198TIP3    H128085   1.743   5.493  11.174  0.6223  0.7835  1.0227
 2198TIP3    H228086   1.642   5.605  11.192 -1.2582 -0.5919 -0.5844
 2199TIP3   OH228087   6.502   1.326   5.814 -0.5342  0.0880  0.0493
 2199TIP3    H128088   6.487   1.301   5.905 -2.4265 -0.1316 -0.2802
 2199TIP3    H228089   6.430   1.385   5.793 -1.1367 -1.1999 -1.7797
 2200TIP3   OH228090   6.518   2.755   1.725  0.2911 -0.1494  0.0534
 2200TIP3    H128091   6.532   2.661   1.738  0.8701 -0.1651 -0.6571
 2200TIP3    H228092   6.568   2.776   1.647 -0.2244  0.6621 -0.0640
 2201TIP3   OH228093   6.112   1.364  10.834 -0.1002 -0.0563 -0.5587
 2201TIP3    H128094   6.095   1.458  10.827  3.2324  0.6790 -0.2400
 2201TIP3    H228095   6.105   1.332  10.744 -0.7458  0.5561 -0.7443
 2202TIP3   OH228096   0.041   1.281   5.022 -0.3211  0.2972  0.5182
 2202TIP3    H128097   0.082   1.196   5.007 -1.2022 -0.3774  1.7336
 2202TIP3    H228098   0.075   1.337   4.952 -0.7636 -1.4062 -1.1638
 2203TIP3   OH228099   6.482   1.201  16.595 -0.3721 -0.1383  0.3379
 2203TIP3    H128100   6.550   1.232  16.654 -0.5174  1.2565 -0.2012
 2203TIP3    H228101   6.407   1.259  16.612 -0.0905  0.9899 -1.9037
 2204TIP3   OH228102   1.130   6.517   6.260  0.1345 -0.8989 -0.1364
 2204TIP3    H128103   1.209   6.561   6.227  1.0909 -1.9646  0.6594
 2204TIP3    H228104   1.090   6.581   6.318  1.5552 -1.0630  1.0726
 2205TIP3   OH228105   6.078   6.357  11.813  0.1545  0.2400  0.1731
 2205TIP3    H128106   6.152   6.352  11.753 -0.3237  3.2890 -0.8727
 2205TIP3    H228107   6.111   6.323  11.896  1.9036 -0.8087 -0.8915
 2206TIP3   OH228108   0.848   6.523   2.168  0.2380  0.0512 -0.4428
 2206TIP3    H128109   0.782   6.537   2.100  0.7176 -0.3829 -1.0059
 2206TIP3    H228110   0.911   6.463   2.128  1.7507  1.5722 -0.4554
 2207TIP3   OH228111   1.512   0.753   3.545 -0.3609 -0.1554 -0.5409
 2207TIP3    H128112   1.572   0.811   3.498  0.1943  0.8612  1.3258
 2207TIP3    H228113   1.568   0.683   3.578  0.1857  1.4271  2.2554
 2208TIP3   OH228114   6.020   3.216  12.871  0.3338 -0.4885 -0.9512
 2208TIP3    H128115   5.993   3.136  12.827  0.3703 -0.3138 -1.2954
 2208TIP3    H228116   6.096   3.247  12.821  0.5872 -0.4721 -0.5623
 2209TIP3   OH228117   3.044   2.724   5.546  0.2080 -0.1025  0.1816
 2209TIP3    H128118   3.085   2.758   5.625  0.0663  1.7038 -0.4705
 2209TIP3    H228119   3.100   2.755   5.475 -1.4365  1.1704 -0.6285
 2210TIP3   OH228120   5.521   4.890  15.067 -0.0706  0.0137  0.1991
 2210TIP3    H128121   5.482   4.974  15.091  1.8432  1.1296 -0.4131
 2210TIP3    H228122   5.611   4.895  15.098 -0.3926 -2.6132  1.8741
 2211TIP3   OH228123   3.807   1.444  16.636  0.5616 -0.7185  0.9311
 2211TIP3    H128124   3.875   1.380  16.655 -0.6102 -2.7257 -1.0327
 2211TIP3    H228125   3.727   1.405  16.672  0.1840  0.9013  1.9475
 2212TIP3   OH228126   3.566   3.564  14.725  0.1789 -0.2256  0.4933
 2212TIP3    H128127   3.584   3.605  14.640 -0.1980 -0.6220  0.2158
 2212TIP3    H228128   3.492   3.506  14.708  1.2048 -1.6535  0.6522
 2213TIP3   OH228129   3.203   5.807  13.475  0.1691 -0.3820 -0.1421
 2213TIP3    H128130   3.158   5.739  13.525  1.2100 -0.7664  0.3161
 2213TIP3    H228131   3.188   5.785  13.384 -0.7013 -0.3979 -0.0008
 2214TIP3   OH228132   4.724   1.600   4.991 -0.4427  0.5357 -0.0520
 2214TIP3    H128133   4.732   1.682   4.942  2.5656 -0.1818 -1.0049
 2214TIP3    H228134   4.704   1.628   5.081 -2.3219  2.0925 -0.8838
 2215TIP3   OH228135   4.785   5.158  16.085  0.2126 -0.4128 -0.3252
 2215TIP3    H128136   4.877   5.174  16.105  0.4261 -0.8626 -0.9176
 2215TIP3    H228137   4.757   5.094  16.150  0.9178 -1.9097 -1.4285
 2216TIP3   OH228138   3.740   2.006  15.650  0.1011  0.4483  0.2569
 2216TIP3    H128139   3.819   2.058  15.664 -0.1434  0.8813  0.0468
 2216TIP3    H228140   3.669   2.059  15.687 -0.0272 -0.1724  0.9207
 2217TIP3   OH228141   5.062   5.919   0.162  0.1199  0.6899 -0.4918
 2217TIP3    H128142   5.014   5.841   0.188 -1.0498  0.7316 -2.3325
 2217TIP3    H228143   5.119   5.890   0.092 -0.3433  1.4601 -1.2085
 2218TIP3   OH228144   4.904   6.243  10.677  0.1651  0.0823 -0.0261
 2218TIP3    H128145   4.816   6.237  10.640  0.4369  0.4820 -0.7722
 2218TIP3    H228146   4.940   6.324  10.640  1.3444 -0.7830 -0.8434
 2219TIP3   OH228147   4.575   6.647  13.305  0.0408 -0.4037 -0.1865
 2219TIP3    H128148   4.574   6.588  13.230 -0.3593 -0.5950 -0.0364
 2219TIP3    H228149   4.482   6.664  13.324  0.1192  2.4594 -1.8957
 2220TIP3   OH228150   1.491   3.564  11.829 -0.3939 -0.2630  0.5360
 2220TIP3    H128151   1.500   3.638  11.889 -1.1071  0.1542  0.1407
 2220TIP3    H228152   1.544   3.587  11.753 -0.9937  0.0763  0.2073
 2221TIP3   OH228153   1.687   5.956   3.304 -0.2903  0.0825  0.2249
 2221TIP3    H128154   1.708   5.939   3.212 -0.8121 -0.9782  0.2901
 2221TIP3    H228155   1.591   5.947   3.308 -0.3909  1.2291  0.6556
 2222TIP3   OH228156   3.066   2.257  16.385  0.2374  0.0073 -0.2009
 2222TIP3    H128157   3.152   2.256  16.345 -0.7798  0.8993 -2.5788
 2222TIP3    H228158   3.042   2.350  16.388 -1.6094 -0.3526 -1.9168
 2223TIP3   OH228159   5.701   5.586  15.445  0.1229 -0.1268 -0.1596
 2223TIP3    H128160   5.791   5.605  15.419  0.6231 -2.4559 -0.3405
 2223TIP3    H228161   5.647   5.628  15.378  0.9782  1.8160  0.2746
 2224TIP3   OH228162   3.825   5.669   1.051 -0.0584 -0.1770 -0.2864
 2224TIP3    H128163   3.898   5.641   0.996  0.7978 -0.0156  0.7479
 2224TIP3    H228164   3.830   5.764   1.052  0.6630 -0.2074  1.0084
 2225TIP3   OH228165   0.100   0.322  16.278  0.4507  0.0297  1.1407
 2225TIP3    H128166   0.086   0.400  16.225  0.8153 -0.8361 -0.2655
 2225TIP3    H228167   0.173   0.345  16.336  0.5057  0.7516  0.7873
 2226TIP3   OH228168   3.185   3.706  14.326  0.1658  0.1250 -0.6204
 2226TIP3    H128169   3.131   3.652  14.269  0.3517 -0.7001 -0.0354
 2226TIP3    H228170   3.267   3.657  14.335  0.3727  0.5487 -0.1484
 2227TIP3   OH228171   3.865   4.897  14.631  0.2733 -0.1820 -0.1159
 2227TIP3    H128172   3.802   4.831  14.658 -0.3912 -0.6732 -2.6041
 2227TIP3    H228173   3.950   4.852  14.634 -0.3241 -1.7866 -3.2170
 2228TIP3   OH228174   0.498   0.166   0.747  0.2399  0.0864  0.0817
 2228TIP3    H128175   0.538   0.135   0.829  0.2178 -1.0917 -0.3330
 2228TIP3    H228176   0.492   0.261   0.758  1.8935  0.1568  0.7110
 2229TIP3   OH228177   4.877   4.442   4.606 -0.3964  0.0044  0.2610
 2229TIP3    H128178   4.888   4.427   4.512 -2.0314 -1.0121  0.1854
 2229TIP3    H228179   4.871   4.537   4.614  1.7934  0.2437 -0.3655
 2230TIP3   OH228180   5.498   5.098  13.462 -0.0385 -0.0946  0.2150
 2230TIP3    H128181   5.571   5.131  13.515  0.0173 -1.0435  0.7506
 2230TIP3    H228182   5.485   5.165  13.394 -0.2031  1.2261  1.4921
 2231TIP3   OH228183   3.923   0.524  12.431 -0.1729 -0.4406  0.4718
 2231TIP3    H128184   3.865   0.486  12.365 -0.5112 -1.1814  1.1799
 2231TIP3    H228185   3.881   0.607  12.455 -2.2919 -1.9882  2.6582
 2232TIP3   OH228186   1.256   3.928   4.094 -0.0011 -0.3658 -0.4792
 2232TIP3    H128187   1.199   3.857   4.124  0.1845 -0.3387 -0.0646
 2232TIP3    H228188   1.344   3.897   4.113  0.1381 -0.4647 -1.2396
 2233TIP3   OH228189   4.571   4.280  12.817  0.4284 -0.5218 -0.2606
 2233TIP3    H128190   4.658   4.271  12.777  0.0579  1.2202 -1.6163
 2233TIP3    H228191   4.582   4.350  12.882  0.9568 -3.1501  2.7237
 2234TIP3   OH228192   1.347   1.662   5.760  0.1205 -0.1147  0.2825
 2234TIP3    H128193   1.297   1.700   5.833 -0.6162 -2.8019  1.2987
 2234TIP3    H228194   1.436   1.695   5.772 -1.1291  4.8269 -1.5773
 2235TIP3   OH228195   3.977   6.710   1.865 -0.1568  0.1624  0.2895
 2235TIP3    H128196   3.929   6.726   1.945 -2.2427 -1.3991 -0.5484
 2235TIP3    H228197   3.984   6.796   1.823 -1.8197  0.5272  0.6866
 2236TIP3   OH228198   2.789   5.772   5.268  0.1079  0.0687  0.3656
 2236TIP3    H128199   2.700   5.758   5.236  0.6536  1.4677 -1.9603
 2236TIP3    H228200   2.778   5.799   5.359 -1.5090 -4.2702  1.6791
 2237TIP3   OH228201   1.060   5.916  16.668  0.4750 -0.1916  0.0296
 2237TIP3    H128202   1.097   6.003  16.682  1.2731 -0.0483 -2.4888
 2237TIP3    H228203   1.015   5.896  16.750  1.5517  1.9289  1.2296
 2238TIP3   OH228204   4.643   2.536  11.437 -0.6894  0.1404  0.0680
 2238TIP3    H128205   4.548   2.537  11.450 -0.5924  0.3404  0.7747
 2238TIP3    H228206   4.654   2.531  11.342 -1.4036  0.4567 -0.0365
 2239TIP3   OH228207   4.673   1.430  15.078  0.1617  0.2290  0.4167
 2239TIP3    H128208   4.594   1.470  15.041 -0.0135 -0.3144  0.1987
 2239TIP3    H228209   4.742   1.493  15.059 -0.1823  0.6164  0.4311
 2240TIP3   OH228210   3.977   4.519  10.835  0.4298  0.0088  0.2985
 2240TIP3    H128211   4.059   4.501  10.788  0.8235  0.6236  0.7456
 2240TIP3    H228212   3.923   4.565  10.771  0.0583 -1.2321 -0.3076
 2241TIP3   OH228213   1.053   4.881   0.204  0.3717  0.0738  0.0771
 2241TIP3    H128214   1.097   4.796   0.213  0.0353 -0.5786 -3.2328
 2241TIP3    H228215   0.973   4.872   0.255  1.5798 -0.5580  1.9863
 2242TIP3   OH228216   0.596   0.802  14.022 -0.3012  0.4178 -0.3386
 2242TIP3    H128217   0.657   0.757  13.964 -1.1341 -1.0331 -0.1199
 2242TIP3    H228218   0.650   0.867  14.067  1.0501 -0.6970 -0.2852
 2243TIP3   OH228219   5.007   0.918  15.212  0.7190  1.0070 -0.2303
 2243TIP3    H128220   5.070   0.976  15.169  0.8638  1.0378  0.0196
 2243TIP3    H228221   4.991   0.848  15.149  0.9533  1.0329 -0.3172
 2244TIP3   OH228222   2.402   2.100   4.596 -0.4588  0.0277  0.5199
 2244TIP3    H128223   2.489   2.102   4.555 -1.3415  0.7528 -1.4544
 2244TIP3    H228224   2.393   2.186   4.636  0.0070 -0.3150  1.3825
 2245TIP3   OH228225   0.963   5.510   0.369  0.1927  0.2356 -0.1625
 2245TIP3    H128226   0.912   5.578   0.414  1.5479  2.0349 -1.2176
 2245TIP3    H228227   1.006   5.462   0.440 -0.9700  0.2787  0.6169
 2246TIP3   OH228228   1.968   2.551   0.558  0.0308 -0.3086  0.2786
 2246TIP3    H128229   1.972   2.499   0.478  0.8880 -1.1807  0.8623
 2246TIP3    H228230   1.889   2.519   0.602 -1.0489  0.9298 -0.6920
 2247TIP3   OH228231   4.537   1.259   0.510  0.8931 -0.5954  0.2520
 2247TIP3    H128232   4.555   1.165   0.502  0.2265 -0.7945  1.0264
 2247TIP3    H228233   4.528   1.274   0.604 -0.2565  0.0092  0.0584
 2248TIP3   OH228234   0.318   2.422   4.598 -0.4938  0.1147  0.1590
 2248TIP3    H128235   0.297   2.331   4.577 -1.3870  0.4884 -0.6592
 2248TIP3    H228236   0.368   2.454   4.522 -1.2850  0.6556 -0.1541
 2249TIP3   OH228237   3.570   6.459  16.388  0.2325  0.0443  0.1515
 2249TIP3    H128238   3.492   6.514  16.396  1.0609  1.1753  0.7628
 2249TIP3    H228239   3.625   6.505  16.325  0.6590 -0.4263  0.1835
 2250TIP3   OH228240   2.088   2.667  13.979 -0.0055  0.5478 -0.9042
 2250TIP3    H128241   2.134   2.750  13.968 -0.3467  0.6611 -1.5432
 2250TIP3    H228242   2.054   2.647  13.891  0.9214 -0.7681 -0.9884
 2251TIP3   OH228243   0.844   1.125  15.493  0.1148  0.0340  0.2074
 2251TIP3    H128244   0.825   1.075  15.414 -0.4263 -0.7756  0.8474
 2251TIP3    H228245   0.876   1.209  15.460 -0.2989 -0.2147 -0.8726
 2252TIP3   OH228246   6.394   4.483   1.581 -0.2350  0.1950  0.0527
 2252TIP3    H128247   6.374   4.442   1.666  1.7481 -0.1779  0.3926
 2252TIP3    H228248   6.370   4.575   1.593 -1.8924 -0.2354  0.3000
 2253TIP3   OH228249   1.966   4.488   2.849  0.0209 -0.1432  0.0761
 2253TIP3    H128250   1.948   4.394   2.846  2.3081 -0.6557  0.9024
 2253TIP3    H228251   2.013   4.507   2.768  2.1610 -0.3552  1.2109
 2254TIP3   OH228252   0.582   4.599  15.640 -0.3260 -0.0714 -0.1869
 2254TIP3    H128253   0.499   4.588  15.687 -0.8725 -1.1778 -1.3329
 2254TIP3    H228254   0.573   4.681  15.592 -0.6954 -0.1041 -0.1734
 2255TIP3   OH228255   6.076   3.820  15.892  0.1112  0.0244  0.2032
 2255TIP3    H128256   6.002   3.879  15.910  0.8646  0.5785  1.7295
 2255TIP3    H228257   6.154   3.875  15.906  0.8373 -0.5032 -1.5384
 2256TIP3   OH228258   6.282   5.866   2.463 -0.0132 -0.4687  0.1144
 2256TIP3    H128259   6.236   5.909   2.535 -0.1678  0.0128 -0.2697
 2256TIP3    H228260   6.228   5.790   2.442 -0.5335 -0.0189 -0.2007
 2257TIP3   OH228261   2.168   5.907  15.971 -0.3939 -0.2337 -0.1044
 2257TIP3    H128262   2.117   5.895  15.891  2.5063 -1.4458 -1.9469
 2257TIP3    H228263   2.257   5.925  15.940  0.8821 -0.8357  2.8673
 2258TIP3   OH228264   3.395   3.634  11.611 -0.2156 -0.0878 -0.0305
 2258TIP3    H128265   3.334   3.705  11.633  0.2534  0.4346 -0.3890
 2258TIP3    H228266   3.357   3.594  11.532 -1.5460 -1.5425  1.2719
 2259TIP3   OH228267   2.733   4.617  15.259 -0.4346  0.1693  0.3013
 2259TIP3    H128268   2.689   4.590  15.178 -0.6558 -0.0266  0.4879
 2259TIP3    H228269   2.712   4.548  15.322 -0.4873  0.4607  0.6034
 2260TIP3   OH228270   3.426   0.140  15.395  0.5021  0.7552 -0.3770
 2260TIP3    H128271   3.410   0.176  15.308 -0.2720  2.2276  0.3382
 2260TIP3    H228272   3.387   0.052  15.393  1.0231  0.5363 -1.6787
 2261TIP3   OH228273   1.013   2.602   1.067 -0.3261 -0.2928  0.0527
 2261TIP3    H128274   0.985   2.591   1.158  1.1709  0.7301  0.6854
 2261TIP3    H228275   1.087   2.541   1.058 -0.3801 -0.2917 -0.4533
 2262TIP3   OH228276   4.118   1.967   4.612 -0.7043 -0.4287 -0.1233
 2262TIP3    H128277   4.172   1.980   4.690 -1.5835  1.1903  0.2737
 2262TIP3    H228278   4.177   1.986   4.539 -0.8425  2.2081  0.3269
 2263TIP3   OH228279   6.613   1.002   5.552  0.2165 -0.0363  0.2787
 2263TIP3    H128280   6.702   0.966   5.560  0.0214 -0.3560  1.0777
 2263TIP3    H228281   6.578   0.960   5.473  1.0520  0.7076 -0.5103
 2264TIP3   OH228282   6.551   3.866   0.654  0.4232 -0.3018  0.2168
 2264TIP3    H128283   6.476   3.926   0.651  1.2596  0.9012  1.6583
 2264TIP3    H228284   6.617   3.909   0.598 -0.2504 -1.8990 -1.9519
 2265TIP3   OH228285   2.441   4.165  13.323 -0.3914  0.2301  0.2599
 2265TIP3    H128286   2.467   4.221  13.396 -0.4138  1.3713 -0.5879
 2265TIP3    H228287   2.354   4.195  13.299 -1.0258 -1.1587  0.7273
 2266TIP3   OH228288   2.680   1.737   6.183  0.3599 -0.7681  0.1154
 2266TIP3    H128289   2.671   1.801   6.253  0.4011 -0.8728  0.2168
 2266TIP3    H228290   2.762   1.761   6.138  0.4445 -0.8294  0.2358
 2267TIP3   OH228291   3.853   4.283   5.705  0.4391 -0.3086  0.0683
 2267TIP3    H128292   3.870   4.356   5.765  2.8129 -0.5730 -0.2027
 2267TIP3    H228293   3.835   4.209   5.763  1.0715 -0.1872  0.4328
 2268TIP3   OH228294   5.194   5.774  12.758 -0.5240  0.6288 -0.2556
 2268TIP3    H128295   5.127   5.730  12.810 -1.6612  1.1144 -1.2650
 2268TIP3    H228296   5.189   5.732  12.672  3.1124 -2.0201  0.5856
 2269TIP3   OH228297   6.585   4.297   2.271 -0.0550  0.4952  0.0852
 2269TIP3    H128298   6.506   4.284   2.218  0.8952  3.4312 -2.3211
 2269TIP3    H228299   6.624   4.209   2.277 -0.4996 -0.1411 -3.7971
 2270TIP3   OH228300   4.072   2.638  15.818  0.2244  0.0554 -0.2804
 2270TIP3    H128301   4.068   2.567  15.754 -1.9644 -1.3999  1.3374
 2270TIP3    H228302   4.035   2.714  15.773 -3.7703 -1.5707 -0.1548
 2271TIP3   OH228303   4.782   5.415   2.441  0.2124 -0.4428 -0.0403
 2271TIP3    H128304   4.760   5.449   2.528  0.1568 -3.2323  1.1485
 2271TIP3    H228305   4.850   5.474   2.409  0.4552  0.5054  2.0322
 2272TIP3   OH228306   6.622   3.989   5.177  0.4910  0.3261  0.5664
 2272TIP3    H128307   6.568   4.020   5.104  0.4739 -0.7950  0.0769
 2272TIP3    H228308   6.606   4.051   5.247 -1.0419  0.3074  0.2682
 2273TIP3   OH228309   1.751   4.248  10.654  0.3533  0.0221 -0.1000
 2273TIP3    H128310   1.740   4.333  10.698 -1.4893  1.2007 -2.5780
 2273TIP3    H228311   1.665   4.207  10.659 -0.0619  0.3938 -2.8198
 2274TIP3   OH228312   4.090   4.537   5.328 -0.2693  0.0266  0.4069
 2274TIP3    H128313   4.164   4.502   5.377  0.4180  2.8985  1.5840
 2274TIP3    H228314   4.100   4.501   5.240  2.3281  0.0666  0.6274
 2275TIP3   OH228315   6.506   6.109  16.840  0.2653 -0.7294 -0.4845
 2275TIP3    H128316   6.562   6.031  16.843  2.2187  0.5342 -1.7567
 2275TIP3    H228317   6.419   6.074  16.821  0.7470 -2.7097  0.6011
 2276TIP3   OH228318   2.025   0.936   2.890 -0.6317  0.0435  0.6215
 2276TIP3    H128319   2.113   0.932   2.927 -0.2899 -0.0412 -0.1759
 2276TIP3    H228320   1.997   0.845   2.883  0.9087 -0.3168 -2.9820
 2277TIP3   OH228321   5.854   5.233   3.065  0.6005  0.4960  0.6660
 2277TIP3    H128322   5.932   5.216   3.012  1.9016  0.4007  2.4843
 2277TIP3    H228323   5.889   5.273   3.145 -1.2465  0.5522  1.4806
 2278TIP3   OH228324   4.766   3.016  13.242 -0.2730  0.3075 -0.4815
 2278TIP3    H128325   4.728   2.976  13.320  2.0739  0.5348  0.8771
 2278TIP3    H228326   4.792   2.942  13.187 -0.9673  0.1344 -0.5962
 2279TIP3   OH228327   4.107   2.285   3.607 -0.0652 -0.1035 -0.0490
 2279TIP3    H128328   4.131   2.318   3.520 -2.5181  1.0161 -0.3730
 2279TIP3    H228329   4.012   2.296   3.611 -0.6015 -3.8456  1.2499
 2280TIP3   OH228330   0.444   0.438  14.995 -0.0378 -0.4944 -0.4830
 2280TIP3    H128331   0.416   0.393  15.075 -0.3647  0.3660 -0.0966
 2280TIP3    H228332   0.373   0.500  14.977 -0.0902 -0.8539 -1.5969
 2281TIP3   OH228333   3.463   6.678   3.683 -0.2342 -0.2162  0.7958
 2281TIP3    H128334   3.445   6.596   3.728 -0.1480 -0.0625  1.1156
 2281TIP3    H228335   3.377   6.707   3.651  0.0049 -1.4260 -1.0774
 2282TIP3   OH228336   6.014   2.413  14.917  0.2266 -0.0165 -0.2464
 2282TIP3    H128337   6.049   2.493  14.878 -1.7692 -0.1390 -2.5486
 2282TIP3    H228338   5.919   2.425  14.916 -0.0485 -1.6723  1.1275
 2283TIP3   OH228339   1.609   1.200  14.124  0.6096  0.3015 -0.0690
 2283TIP3    H128340   1.669   1.212  14.050  1.8556 -1.4910  0.5865
 2283TIP3    H228341   1.598   1.287  14.160  1.6939  0.8825 -1.0684
 2284TIP3   OH228342   5.001   0.163  11.354  0.2434  0.1992 -0.4434
 2284TIP3    H128343   4.948   0.083  11.353  1.4583 -0.7993  2.4155
 2284TIP3    H228344   5.087   0.136  11.322  0.1173  0.8961 -1.4187
 2285TIP3   OH228345   0.779   2.158  14.927 -0.1746  0.3621  0.1980
 2285TIP3    H128346   0.742   2.185  14.843  0.8867 -1.2029 -0.8233
 2285TIP3    H228347   0.745   2.070  14.940 -0.2293  0.5441  1.3795
 2286TIP3   OH228348   4.051   4.588  13.926  0.3512  0.1537 -0.4144
 2286TIP3    H128349   4.132   4.599  13.876  0.3263  0.2811 -0.4259
 2286TIP3    H228350   4.025   4.676  13.951 -0.0584  0.1646 -0.8479
 2287TIP3   OH228351   1.901   6.024   3.652 -0.2463  0.4444 -0.4947
 2287TIP3    H128352   1.885   6.077   3.731 -1.4115 -1.1189  0.3916
 2287TIP3    H228353   1.818   6.029   3.604 -1.0075 -1.8799  0.4614
 2288TIP3   OH228354   3.886   3.972   6.141  0.1474 -0.3550  0.0384
 2288TIP3    H128355   3.937   4.053   6.134  0.8413 -0.6479  1.2871
 2288TIP3    H228356   3.920   3.916   6.072 -0.2281  0.3402 -0.7379
 2289TIP3   OH228357   4.235   4.951  11.759 -0.5525 -0.1374  0.0561
 2289TIP3    H128358   4.148   4.921  11.784 -0.3207 -0.8225  0.0884
 2289TIP3    H228359   4.273   4.984  11.841 -1.7364  2.7280 -0.4664
 2290TIP3   OH228360   0.570   1.130  13.647  0.3905  0.3484 -0.0039
 2290TIP3    H128361   0.600   1.043  13.622  1.4024  1.0673 -1.4151
 2290TIP3    H228362   0.645   1.169  13.693  0.3090  0.8382 -0.2767
 2291TIP3   OH228363   0.382   0.317  12.752 -0.5949  0.0944 -0.1002
 2291TIP3    H128364   0.458   0.368  12.780  0.1636 -1.1036  0.1113
 2291TIP3    H228365   0.313   0.340  12.815  0.0070  0.1788  0.5427
 2292TIP3   OH228366   3.602   4.535   1.871  0.1705  0.4219  0.0696
 2292TIP3    H128367   3.533   4.517   1.807  0.1180  0.0244  0.2349
 2292TIP3    H228368   3.659   4.598   1.828  1.3145 -1.3916 -1.2172
 2293TIP3   OH228369   6.174   5.538   6.512  0.7144  0.1550  0.2969
 2293TIP3    H128370   6.252   5.573   6.469 -0.2092  0.1834 -1.4255
 2293TIP3    H228371   6.200   5.449   6.538  1.0050 -0.2597 -1.2875
 2294TIP3   OH228372   0.219   4.308  11.854  0.2807  0.8522 -0.0435
 2294TIP3    H128373   0.179   4.355  11.928  0.5854 -0.5395  1.0402
 2294TIP3    H228374   0.313   4.316  11.868  0.3456  0.7699 -0.4171
 2295TIP3   OH228375   4.216   0.782  16.443  0.3301 -0.2621  0.2399
 2295TIP3    H128376   4.283   0.849  16.431  0.0926 -0.2685 -1.3880
 2295TIP3    H228377   4.149   0.824  16.496  0.1204  0.8597 -0.8694
 2296TIP3   OH228378   4.528   2.373  10.963  0.2171 -0.3246  0.0973
 2296TIP3    H128379   4.569   2.459  10.966 -1.0598  0.2674  1.5627
 2296TIP3    H228380   4.559   2.328  11.042 -1.3343 -0.1236  0.8524
 2297TIP3   OH228381   5.551   4.122  12.452 -0.5048 -0.2149 -0.0881
 2297TIP3    H128382   5.604   4.109  12.373 -0.5010 -0.2082 -0.0865
 2297TIP3    H228383   5.614   4.125  12.524 -0.4237  0.6983 -0.1830
 2298TIP3   OH228384   4.717   5.988   4.062 -0.1921 -0.4123 -0.5160
 2298TIP3    H128385   4.752   5.902   4.040  1.0956 -0.2353  0.7317
 2298TIP3    H228386   4.640   5.969   4.116 -0.3278 -0.7729 -0.8269
 2299TIP3   OH228387   1.199   3.791  10.175  0.2669 -0.3958 -0.1486
 2299TIP3    H128388   1.241   3.759  10.095 -1.3236 -0.5738 -0.9457
 2299TIP3    H228389   1.139   3.859  10.145 -1.0288 -1.0870  0.7476
 2300TIP3   OH228390   2.559   4.467   3.423 -0.0678 -0.2622  0.0263
 2300TIP3    H128391   2.642   4.463   3.469 -0.0426 -3.3065 -0.0863
 2300TIP3    H228392   2.496   4.426   3.482 -1.3581  1.2225 -0.2357
 2301TIP3   OH228393   6.194   0.330  12.451 -0.3816  0.4138  0.5345
 2301TIP3    H128394   6.242   0.388  12.510  0.4448 -0.3643  0.6417
 2301TIP3    H228395   6.135   0.388  12.403 -0.1882  1.2198  1.2530
 2302TIP3   OH228396   1.183   6.183   4.832  0.4754  0.1208 -0.0905
 2302TIP3    H128397   1.131   6.262   4.846 -1.3631 -1.1750  0.8649
 2302TIP3    H228398   1.167   6.130   4.910  0.8891 -1.5932 -1.1181
 2303TIP3   OH228399   2.417   3.938   4.594 -0.5930 -0.3675 -0.3165
 2303TIP3    H128400   2.352   3.920   4.662  0.4962 -0.9368  0.6005
 2303TIP3    H228401   2.468   3.857   4.587 -0.6342 -0.3017 -1.7815
 2304TIP3   OH228402   2.235   6.024  17.034 -0.5500 -0.0663  0.2862
 2304TIP3    H128403   2.300   5.954  17.028 -0.0078  0.4756 -0.3264
 2304TIP3    H228404   2.156   5.987  16.994  0.1309  0.1024 -1.3031
 2305TIP3   OH228405   5.766   6.187   4.673  0.1390  0.2544 -0.4108
 2305TIP3    H128406   5.814   6.109   4.700  0.1810  0.1827 -0.6854
 2305TIP3    H228407   5.682   6.154   4.641  0.1506  0.3219 -0.5138
 2306TIP3   OH228408   3.050   1.168   4.773  0.1343 -0.0301  0.0248
 2306TIP3    H128409   3.021   1.244   4.722  0.9195  1.5517  1.7900
 2306TIP3    H228410   2.969   1.128   4.804 -0.2868  0.6191 -0.2080
 2307TIP3   OH228411   4.948   2.773  14.881  0.7208 -0.1811 -0.4032
 2307TIP3    H128412   4.870   2.794  14.830 -0.8327  0.9163  2.2412
 2307TIP3    H228413   4.985   2.858  14.905  0.7788 -0.6027  1.1296
 2308TIP3   OH228414   1.866   5.459  11.041 -0.0607  0.5226 -0.6446
 2308TIP3    H128415   1.873   5.363  11.048  1.4560  0.7035  0.7628
 2308TIP3    H228416   1.948   5.486  11.001  0.2081  1.3551  0.4349
 2309TIP3   OH228417   2.304   3.227  11.947 -0.2588 -0.4553 -0.4675
 2309TIP3    H128418   2.298   3.315  11.910 -0.8797  0.0858  0.8544
 2309TIP3    H228419   2.274   3.169  11.877 -1.2434  0.5102 -0.8766
 2310TIP3   OH228420   0.759   5.935   5.302  0.0384  0.4165 -0.1383
 2310TIP3    H128421   0.723   5.869   5.243  0.7332 -0.2432  0.1639
 2310TIP3    H228422   0.716   5.918   5.386  1.1614 -0.4977  0.2735
 2311TIP3   OH228423   2.520   6.421   4.583  0.1959  0.2019  0.0881
 2311TIP3    H128424   2.589   6.396   4.521  0.4050  1.9707 -0.4312
 2311TIP3    H228425   2.540   6.372   4.663  0.6767 -1.1046 -0.8001
 2312TIP3   OH228426   6.177   3.311   5.533  0.1842  0.4862 -0.4827
 2312TIP3    H128427   6.145   3.351   5.452 -0.9036 -1.0843 -0.8814
 2312TIP3    H228428   6.232   3.238   5.504 -1.3328 -0.9727  0.1102
 2313TIP3   OH228429   2.949   4.911  16.177 -0.3082  0.1924  0.5710
 2313TIP3    H128430   2.859   4.931  16.151 -0.8110 -0.5933  1.5879
 2313TIP3    H228431   2.939   4.845  16.246  1.0330  0.4856  1.0761
 2314TIP3   OH228432   6.179   0.973   4.350 -0.1911 -0.1221  0.1168
 2314TIP3    H128433   6.107   0.929   4.395  0.3846 -1.3296 -0.1169
 2314TIP3    H228434   6.254   0.961   4.407 -0.2274  1.4927  0.5613
 2315TIP3   OH228435   6.392   5.974  14.135  0.0019  0.7128 -0.4819
 2315TIP3    H128436   6.310   5.933  14.105 -0.0072  1.3327 -1.3470
 2315TIP3    H228437   6.366   6.063  14.158 -0.0466  0.1887  1.7159
 2316TIP3   OH228438   3.476   3.753   4.234  0.3021 -0.4864  0.2250
 2316TIP3    H128439   3.469   3.847   4.250 -0.5135 -0.7303  1.4621
 2316TIP3    H228440   3.392   3.717   4.264  0.5003 -1.5763 -0.4642
 2317TIP3   OH228441   1.971   6.481   5.627 -0.2824 -0.4586  0.4832
 2317TIP3    H128442   2.010   6.457   5.711  2.1566  0.6726 -0.2337
 2317TIP3    H228443   2.038   6.533   5.583 -1.5772 -0.7728 -2.0778
 2318TIP3   OH228444   5.645   0.536   4.304  0.1583 -0.6286 -0.2214
 2318TIP3    H128445   5.612   0.446   4.307 -2.8409  0.3396 -0.4603
 2318TIP3    H228446   5.641   0.566   4.395 -1.4812  0.0372 -0.4726
 2319TIP3   OH228447   4.577   3.625  15.293  0.8069 -0.2464 -0.2567
 2319TIP3    H128448   4.643   3.673  15.242  1.1005 -2.1507 -1.7944
 2319TIP3    H228449   4.507   3.689  15.309  2.2371  1.3482 -0.0423
 2320TIP3   OH228450   5.728   4.079  13.450 -0.1892  0.0005 -0.5522
 2320TIP3    H128451   5.793   4.117  13.509 -0.5002  0.2732 -0.3848
 2320TIP3    H228452   5.646   4.121  13.474 -0.6401 -1.1310 -0.0258
 2321TIP3   OH228453   0.393   2.375  10.910  0.1907 -0.8048 -0.5056
 2321TIP3    H128454   0.397   2.449  10.849 -0.7020 -0.6505 -0.3883
 2321TIP3    H228455   0.484   2.349  10.921  0.6666  1.0082  0.3121
 2322TIP3   OH228456   4.180   3.056  11.114 -0.2563 -0.6448  0.2368
 2322TIP3    H128457   4.091   3.043  11.148 -0.8264 -0.4279 -1.0783
 2322TIP3    H228458   4.237   3.013  11.177 -1.1511  0.5619  1.9523
 2323TIP3   OH228459   3.043   5.678   4.911 -0.8934 -0.2168 -0.3937
 2323TIP3    H128460   3.001   5.722   4.985 -2.3403 -0.7808 -0.8495
 2323TIP3    H228461   3.118   5.733   4.890 -1.0013  0.4578  0.8912
 2324TIP3   OH228462   4.210   0.690   4.896 -0.0055 -0.7069  0.2928
 2324TIP3    H128463   4.257   0.673   4.815 -1.2928 -1.6137 -0.3061
 2324TIP3    H228464   4.271   0.739   4.950  1.4626 -1.4781 -0.6066
 2325TIP3   OH228465   0.142   1.099   4.381 -0.4194  0.1247  1.1899
 2325TIP3    H128466   0.123   1.178   4.431  1.1954  0.4924  1.2668
 2325TIP3    H228467   0.221   1.120   4.332 -0.3638 -1.2063  0.6712
 2326TIP3   OH228468   0.212   0.699   0.647 -0.3889 -0.4384 -0.0173
 2326TIP3    H128469   0.206   0.782   0.694  2.4274 -0.9875  1.5011
 2326TIP3    H228470   0.280   0.714   0.581 -1.7872 -0.7792 -1.6013
 2327TIP3   OH228471   0.756   3.011   2.197 -0.1434  0.1383  0.2586
 2327TIP3    H128472   0.714   3.090   2.231 -0.1059 -0.0181  0.6829
 2327TIP3    H228473   0.830   3.043   2.146 -0.7192  0.4143 -0.4176
 2328TIP3   OH228474   0.272   2.674   4.351  0.2675 -0.7913  0.2675
 2328TIP3    H128475   0.229   2.603   4.303  1.1035 -1.9584  1.1929
 2328TIP3    H228476   0.225   2.679   4.434  0.5990 -0.6845  0.4511
 2329TIP3   OH228477   2.158   0.521   3.748 -1.0316 -0.3683  0.1228
 2329TIP3    H128478   2.246   0.548   3.723 -1.2570 -0.6044 -1.0033
 2329TIP3    H228479   2.147   0.553   3.837 -0.7908  2.0892 -0.6348
 2330TIP3   OH228480   4.276   1.654   3.499 -0.0508 -0.2045  0.3540
 2330TIP3    H128481   4.258   1.561   3.493  0.1833 -0.1842 -1.0321
 2330TIP3    H228482   4.358   1.660   3.548  0.0509 -0.7314  0.2495
 2331TIP3   OH228483   5.391   6.365  14.918 -0.1017  0.0802 -0.7476
 2331TIP3    H128484   5.380   6.426  14.845  0.2984  0.7285 -0.2638
 2331TIP3    H228485   5.305   6.324  14.928 -1.7173  3.6547  1.7125
 2332TIP3   OH228486   5.230   5.256  11.023  0.0234  0.1247 -0.2061
 2332TIP3    H128487   5.205   5.327  10.963 -1.2268  2.6494  2.9536
 2332TIP3    H228488   5.148   5.210  11.041 -0.3750  1.4351  1.7922
 2333TIP3   OH228489   4.687   0.642   2.277 -0.4801  0.6508 -0.1539
 2333TIP3    H128490   4.593   0.633   2.293 -0.2774  1.2051  1.5664
 2333TIP3    H228491   4.712   0.720   2.327  1.1067 -0.1868  0.4163
 2334TIP3   OH228492   5.840   0.327   3.400  0.4828  0.5583  0.5092
 2334TIP3    H128493   5.934   0.341   3.404  0.1742  3.1727  0.3872
 2334TIP3    H228494   5.805   0.376   3.474 -0.8519  0.5225 -0.0587
 2335TIP3   OH228495   2.855   6.214   0.178  0.0167  0.3235 -0.3134
 2335TIP3    H128496   2.775   6.264   0.193  0.0644  0.1926  0.4096
 2335TIP3    H228497   2.829   6.145   0.116 -0.3415  0.4873 -0.3503
 2336TIP3   OH228498   0.161   5.981   5.398  0.0196 -0.3511 -0.2462
 2336TIP3    H128499   0.095   6.048   5.379  0.1284 -0.6027 -1.5915
 2336TIP3    H228500   0.113   5.898   5.393  0.3599 -0.5118 -0.8738
 2337TIP3   OH228501   6.553   1.665  16.123 -0.5084 -0.1476 -0.1702
 2337TIP3    H128502   6.627   1.722  16.145 -0.7960 -0.1070  0.7433
 2337TIP3    H228503   6.587   1.576  16.133 -0.4298 -0.1341 -0.3088
 2338TIP3   OH228504   5.926   4.814  11.347  0.1104 -0.1721 -0.3425
 2338TIP3    H128505   5.981   4.834  11.272  0.9915 -0.9129  0.0943
 2338TIP3    H228506   5.982   4.763  11.406 -0.9256 -0.6350  0.2771
 2339TIP3   OH228507   6.820   4.975   1.629  0.0240 -0.6869 -0.0498
 2339TIP3    H128508   6.786   5.064   1.621  0.0968 -0.7666 -1.4465
 2339TIP3    H228509   6.897   4.973   1.572 -0.9868 -2.1331 -1.4316
 2340TIP3   OH228510   3.761   1.958   5.830 -0.4236  0.2524  0.5809
 2340TIP3    H128511   3.725   1.968   5.742  0.2510 -2.1310 -0.0543
 2340TIP3    H228512   3.685   1.949   5.887 -0.8778  2.2998  0.3677
 2341TIP3   OH228513   4.672   3.105   3.311  0.0770 -0.0474  0.0378
 2341TIP3    H128514   4.596   3.147   3.272  0.2390  1.3171  1.1519
 2341TIP3    H228515   4.705   3.167   3.375  0.6783 -1.6204  1.3429
 2342TIP3   OH228516   5.551   4.681  16.132  0.0353 -0.1086 -0.4601
 2342TIP3    H128517   5.530   4.724  16.049 -0.0759 -0.5506 -0.6654
 2342TIP3    H228518   5.623   4.733  16.168  0.6789 -0.4319 -1.2602
 2343TIP3   OH228519   1.508   3.444  10.028  0.9297 -0.1739  0.3135
 2343TIP3    H128520   1.444   3.497   9.981 -0.6764 -1.1461  1.3013
 2343TIP3    H228521   1.492   3.355   9.998  0.6363 -0.6535  1.8005
 2344TIP3   OH228522   6.062   4.422  16.736  0.2384 -0.1956 -0.1781
 2344TIP3    H128523   6.084   4.338  16.776  1.7816  0.6168  0.7564
 2344TIP3    H228524   5.975   4.442  16.769  0.3742 -0.8355  0.6084
 2345TIP3   OH228525   2.771   5.067   4.734 -0.3731  0.1416  0.2933
 2345TIP3    H128526   2.859   5.104   4.726 -0.1715 -0.5841 -1.3507
 2345TIP3    H228527   2.745   5.085   4.824  1.6156  0.0446  0.9309
 2346TIP3   OH228528   6.319   0.234  10.324 -0.2072 -0.0829  0.2643
 2346TIP3    H128529   6.234   0.272  10.301  0.6038  2.3825  1.0374
 2346TIP3    H228530   6.306   0.140  10.313 -2.6516  0.2884 -0.8509
 2347TIP3   OH228531   2.962   2.530  15.824 -0.2087 -0.3251 -0.2202
 2347TIP3    H128532   2.908   2.579  15.761  0.5922  0.2588 -0.4777
 2347TIP3    H228533   2.980   2.592  15.894  0.8734 -0.2087 -0.5785
 2348TIP3   OH228534   3.154   2.935  13.036 -0.0465  0.0918 -0.4011
 2348TIP3    H128535   3.096   2.896  13.101 -0.8598  2.6053  0.4969
 2348TIP3    H228536   3.230   2.877  13.034 -2.0702 -2.7258 -0.8365
 2349TIP3   OH228537   6.191   4.706  12.388  0.6838  0.0690  0.2765
 2349TIP3    H128538   6.200   4.669  12.476 -0.6922 -0.7605  0.1086
 2349TIP3    H228539   6.136   4.783  12.400 -0.3341 -0.5960  0.0522
 2350TIP3   OH228540   2.578   4.117   4.189 -0.0842 -0.8904 -0.1821
 2350TIP3    H128541   2.554   4.057   4.118 -1.7188 -0.7122  0.1908
 2350TIP3    H228542   2.512   4.102   4.256 -0.4932  1.2687 -0.0458
 2351TIP3   OH228543   1.592   1.786   2.975 -0.1448 -0.7347  0.1925
 2351TIP3    H128544   1.670   1.774   2.921 -0.2260 -1.2548  0.1813
 2351TIP3    H228545   1.529   1.829   2.917 -0.3509 -1.6041 -0.2484
 2352TIP3   OH228546   3.343   3.709  13.490 -0.3000  0.6252  0.0928
 2352TIP3    H128547   3.374   3.782  13.437  2.5849 -0.3332  0.2629
 2352TIP3    H228548   3.376   3.729  13.578  2.1121 -1.5980 -0.1938
 2353TIP3   OH228549   3.247   0.184   0.347 -0.2889 -0.1215  0.2047
 2353TIP3    H128550   3.170   0.144   0.307  0.2254 -0.6045 -0.3367
 2353TIP3    H228551   3.250   0.150   0.436 -0.5847 -0.2687  0.1573
 2354TIP3   OH228552   6.311   1.482  12.375 -0.5313  0.6808 -0.2929
 2354TIP3    H128553   6.393   1.504  12.419 -0.5615 -1.1830  0.7976
 2354TIP3    H228554   6.242   1.508  12.437 -0.7709  1.6366 -0.9308
 2355TIP3   OH228555   5.624   4.827  17.110  0.0128 -0.1859 -0.4150
 2355TIP3    H128556   5.709   4.851  17.146 -0.7664  1.1291  0.6093
 2355TIP3    H228557   5.617   4.733  17.125  0.5954 -0.0205  1.0065
 2356TIP3   OH228558   3.441   2.399   4.965  0.3187 -0.0177 -0.1708
 2356TIP3    H128559   3.424   2.387   5.059  0.8311 -0.7097 -0.1553
 2356TIP3    H228560   3.448   2.494   4.954 -2.0653  0.2396  0.0478
 2357TIP3   OH228561   1.016   4.063  11.918 -0.3605  0.1838 -0.1448
 2357TIP3    H128562   0.932   4.020  11.933 -0.1824  0.0503  0.4868
 2357TIP3    H228563   1.039   4.102  12.002  0.2801  0.0850 -0.2662
 2358TIP3   OH228564   6.150   3.414  11.112  0.2136 -0.2956  0.2695
 2358TIP3    H128565   6.132   3.407  11.206  0.7972  0.7885  0.4764
 2358TIP3    H228566   6.114   3.499  11.087 -2.0107 -1.5225 -1.0055
 2359TIP3   OH228567   5.639   6.576  11.051  0.0126  0.3900  0.4938
 2359TIP3    H128568   5.580   6.506  11.024 -1.1642  1.4030  0.3695
 2359TIP3    H228569   5.674   6.612  10.969  2.2685 -1.3594  0.5888
 2360TIP3   OH228570   1.839   5.058   3.761  0.2511 -0.3034 -0.0868
 2360TIP3    H128571   1.900   5.088   3.829 -0.3018 -1.7229  1.0897
 2360TIP3    H228572   1.785   5.135   3.743  1.0974  0.4059  0.2950
 2361TIP3   OH228573   6.319   2.463  13.375  0.1547  0.2899 -0.5372
 2361TIP3    H128574   6.241   2.499  13.417  1.4451  1.0106  1.3548
 2361TIP3    H228575   6.378   2.538  13.364  1.6339 -0.6655  0.5448
 2362TIP3   OH228576   3.499   1.788  13.511  0.9393 -0.2945 -0.2598
 2362TIP3    H128577   3.542   1.704  13.496  2.2174  0.3358 -0.3403
 2362TIP3    H228578   3.522   1.811  13.601 -1.3858 -1.0978  0.6054
 2363TIP3   OH228579   4.789   2.069  10.646 -0.0195  0.3061 -0.1720
 2363TIP3    H128580   4.879   2.091  10.669 -1.0264  1.2171  3.4419
 2363TIP3    H228581   4.741   2.151  10.655 -1.5192 -0.5007 -0.4683
 2364TIP3   OH228582   1.130   0.266   1.576 -0.1293 -0.3920 -0.2869
 2364TIP3    H128583   1.178   0.287   1.496  1.6158  0.1170  0.8235
 2364TIP3    H228584   1.199   0.246   1.640 -1.4906 -1.5728  0.8807
 2365TIP3   OH228585   4.468   4.443  11.552  0.1462  0.0928 -0.4228
 2365TIP3    H128586   4.489   4.519  11.498  0.1146 -0.2509 -0.9228
 2365TIP3    H228587   4.504   4.368  11.504 -1.8941 -0.4887 -1.1616
 2366TIP3   OH228588   0.070   1.380  11.901  0.5007  0.7660  0.5691
 2366TIP3    H128589   0.114   1.373  11.816  0.2454  3.3165  0.1534
 2366TIP3    H228590  -0.010   1.430  11.882 -0.4283 -0.0981  2.0392
 2367TIP3   OH228591   4.265   1.731   3.840  0.5331  0.1303 -0.4781
 2367TIP3    H128592   4.206   1.747   3.767 -2.3369 -5.8701 -0.0709
 2367TIP3    H228593   4.228   1.782   3.912 -0.6933  0.8592 -1.5875
 2368TIP3   OH228594   4.478   3.109   2.232 -0.1970 -0.6556  0.1199
 2368TIP3    H128595   4.547   3.156   2.185 -0.7642  1.2697  1.1189
 2368TIP3    H228596   4.407   3.101   2.168 -0.4896  0.8429  0.2205
 2369TIP3   OH228597   6.276   2.695   1.882  0.2457  0.0267  0.1141
 2369TIP3    H128598   6.357   2.716   1.836 -0.3574  1.1269 -0.4970
 2369TIP3    H228599   6.208   2.698   1.814 -0.4419  0.1087  0.7894
 2370TIP3   OH228600   6.562   3.931  11.549  0.3534 -0.1471  0.3364
 2370TIP3    H128601   6.631   3.986  11.585 -0.3923  0.5323  0.7516
 2370TIP3    H228602   6.607   3.850  11.524  0.9963 -0.4546  2.3252
 2371TIP3   OH228603   0.991   2.048   3.679  0.1485 -0.3522  0.6305
 2371TIP3    H128604   1.013   2.130   3.636  1.3614 -1.1699 -0.3501
 2371TIP3    H228605   0.920   2.011   3.626  0.7157 -0.7103  0.1163
 2372TIP3   OH228606   4.135   5.184   3.920 -0.2922 -0.6277  0.5894
 2372TIP3    H128607   4.059   5.127   3.917 -1.2619  0.6389  0.1479
 2372TIP3    H228608   4.106   5.261   3.970  0.2074  0.5086 -0.8023
 2373TIP3   OH228609   2.000   0.148  11.300  0.0111  0.0175  0.5525
 2373TIP3    H128610   2.079   0.201  11.291  0.3219 -0.7758 -2.4306
 2373TIP3    H228611   1.930   0.205  11.267 -0.3041 -0.1193  0.9686
 2374TIP3   OH228612   6.628   0.815   0.853  0.0067  0.1658  0.0899
 2374TIP3    H128613   6.601   0.725   0.872 -0.8959  0.1067 -1.3265
 2374TIP3    H228614   6.589   0.867   0.924 -0.7227 -0.3769  0.0927
 2375TIP3   OH228615   5.243   3.848  14.620  0.5422 -0.5113 -0.3439
 2375TIP3    H128616   5.245   3.760  14.658 -0.5388 -0.2655  0.3518
 2375TIP3    H228617   5.150   3.872  14.622  0.8375  0.6844 -0.4475
 2376TIP3   OH228618   6.202   1.677   4.548 -0.5940 -0.3295  0.5642
 2376TIP3    H128619   6.218   1.587   4.576 -0.2331 -0.6460 -0.6258
 2376TIP3    H228620   6.277   1.699   4.493 -1.4051  0.1750 -0.3655
 2377TIP3   OH228621   2.829   4.308   1.225  0.1907 -0.4407 -0.0367
 2377TIP3    H128622   2.876   4.299   1.308  1.5634 -0.0731 -0.7496
 2377TIP3    H228623   2.737   4.309   1.250  0.5989  1.2574  1.6542
 2378TIP3   OH228624   4.969   3.487   1.794 -0.3627  0.0414 -0.2619
 2378TIP3    H128625   5.027   3.519   1.724  0.4779  2.0025  1.2237
 2378TIP3    H228626   4.971   3.557   1.859 -1.9566 -1.2631  1.2554
 2379TIP3   OH228627   4.742   2.983   5.146  0.2439 -0.4573  0.4602
 2379TIP3    H128628   4.761   2.894   5.118  3.7924 -0.8023  3.3270
 2379TIP3    H228629   4.706   2.974   5.234  0.9823  0.9378  0.9379
 2380TIP3   OH228630   4.645   5.851  16.311  0.1409  0.3958 -0.2989
 2380TIP3    H128631   4.627   5.860  16.404 -0.7994  1.2460 -0.5456
 2380TIP3    H228632   4.562   5.822  16.273  0.9766 -1.6937 -0.6603
 2381TIP3   OH228633   2.311   6.186  15.953 -0.2082  0.2810 -0.1612
 2381TIP3    H128634   2.270   6.272  15.960 -0.3727  0.2196 -0.3504
 2381TIP3    H228635   2.282   6.138  16.030  1.6615  1.1248  1.1506
 2382TIP3   OH228636   1.870   6.528   1.634 -0.0108  0.4484  0.0215
 2382TIP3    H128637   1.830   6.586   1.569  1.5712  0.2583 -1.1958
 2382TIP3    H228638   1.903   6.587   1.702 -2.4870  0.5942  1.2216
 2383TIP3   OH228639   2.747   5.403   0.448  0.3487 -0.4879  0.3087
 2383TIP3    H128640   2.839   5.383   0.431  0.4332 -1.9936  2.2609
 2383TIP3    H228641   2.704   5.318   0.452 -1.2545  0.2099 -1.0009
 2384TIP3   OH228642   5.272   5.307  12.736 -0.0946  0.4094 -0.1840
 2384TIP3    H128643   5.195   5.318  12.792  1.1374  2.2274  1.2596
 2384TIP3    H228644   5.296   5.396  12.710 -0.0130 -0.2996 -2.8406
 2385TIP3   OH228645   1.470   1.148  12.254 -0.2829 -1.3159  0.0723
 2385TIP3    H128646   1.398   1.195  12.296  1.0412  0.5628  0.3391
 2385TIP3    H228647   1.490   1.200  12.176  0.2524 -2.2704 -0.4378
 2386TIP3   OH228648   6.135   1.610  10.718 -0.2703 -0.4469 -0.3967
 2386TIP3    H128649   6.183   1.572  10.645 -1.9878 -2.1448 -0.7308
 2386TIP3    H228650   6.052   1.639  10.680 -0.2087  0.9376  0.4423
 2387TIP3   OH228651   4.497   3.575  10.357  0.3300  0.3646 -0.4254
 2387TIP3    H128652   4.421   3.559  10.301  0.2741 -2.6130  0.3458
 2387TIP3    H228653   4.476   3.656  10.403 -2.6696 -0.6230  0.1504
 2388TIP3   OH228654   4.421   0.772   3.208 -0.2869  0.4843 -0.4542
 2388TIP3    H128655   4.379   0.812   3.132 -0.1712  0.1278 -0.7053
 2388TIP3    H228656   4.458   0.846   3.256  1.7099  0.5675 -1.9821
 2389TIP3   OH228657   5.066   0.471  13.034 -0.1404  0.1405  0.1359
 2389TIP3    H128658   5.038   0.561  13.046  1.0120  0.4842  0.2950
 2389TIP3    H228659   5.018   0.442  12.956 -2.7007 -0.0568  1.6457
 2390TIP3   OH228660   4.811   3.795  15.494  0.3643  0.1264 -0.5103
 2390TIP3    H128661   4.854   3.821  15.575 -1.3162 -0.5368  0.6484
 2390TIP3    H228662   4.717   3.798  15.515 -0.0599 -1.2943 -2.0473
 2391TIP3   OH228663   4.112   3.985   0.841  0.4356 -0.0551  0.3009
 2391TIP3    H128664   4.039   4.028   0.795  0.2057  0.7344  1.3725
 2391TIP3    H228665   4.075   3.902   0.871 -0.7460  1.2490  2.7059
 2392TIP3   OH228666   4.670   6.590  16.549  0.0664  0.3313 -0.2485
 2392TIP3    H128667   4.588   6.631  16.576 -0.4568 -1.0826  0.4201
 2392TIP3    H228668   4.733   6.617  16.616  0.4460  2.2694 -1.3272
 2393TIP3   OH228669   2.246   6.015   5.080  0.2638  0.2077 -0.1951
 2393TIP3    H128670   2.286   6.078   5.141  0.8529  0.2945 -0.6594
 2393TIP3    H228671   2.302   5.937   5.086 -0.4322 -0.2619  0.3363
 2394TIP3   OH228672   2.125   3.865  13.903  0.4884  0.3215 -0.2506
 2394TIP3    H128673   2.150   3.928  13.971  0.5607  0.1418 -0.1072
 2394TIP3    H228674   2.163   3.899  13.823 -0.9425  1.3855 -0.5082
 2395TIP3   OH228675   1.204   0.156   4.588 -0.4957  0.1852  0.0355
 2395TIP3    H128676   1.133   0.214   4.615 -1.0887 -1.5283  2.4735
 2395TIP3    H228677   1.280   0.185   4.639  0.0462  0.6867 -1.0144
 2396TIP3   OH228678   2.024   2.323  10.357 -0.0528 -0.2593 -1.3066
 2396TIP3    H128679   2.022   2.388  10.287  0.0227  0.7810 -0.3810
 2396TIP3    H228680   2.078   2.252  10.322  0.0143  0.2500 -2.2808
 2397TIP3   OH228681   1.090   3.003  14.180  0.1408 -0.3001 -0.4596
 2397TIP3    H128682   1.135   3.087  14.181 -0.3848 -0.0107  0.3211
 2397TIP3    H228683   1.147   2.945  14.130  0.3241  0.6176 -1.3460
 2398TIP3   OH228684   6.473   0.229  14.808 -0.6966 -0.0784 -0.1848
 2398TIP3    H128685   6.387   0.213  14.768 -0.3094  2.1487 -2.1386
 2398TIP3    H228686   6.520   0.283  14.744  0.5881  2.4369  2.6036
 2399TIP3   OH228687   4.936   4.946   5.516  0.1081  0.2125 -1.0766
 2399TIP3    H128688   4.879   4.970   5.443  2.6179  1.1359 -2.8730
 2399TIP3    H228689   4.982   4.867   5.486  1.5219  0.8729 -0.7421
 2400TIP3   OH228690   4.750   5.199  10.861  0.7400 -0.2445 -0.2846
 2400TIP3    H128691   4.736   5.122  10.805 -1.4751  0.8285 -1.3414
 2400TIP3    H228692   4.754   5.272  10.800  0.2007  0.7530  0.8481
 2401TIP3   OH228693   2.764   6.723  15.326  0.1967  0.3685  0.7286
 2401TIP3    H128694   2.688   6.681  15.287  0.1856  0.6201  0.4722
 2401TIP3    H228695   2.814   6.757  15.252  0.0062  1.1432  0.9379
 2402TIP3   OH228696   1.010   0.790  13.230  0.1862  0.1223 -0.0154
 2402TIP3    H128697   0.960   0.871  13.222  2.0456  1.5522  1.6877
 2402TIP3    H228698   1.080   0.799  13.166 -0.8712 -1.2288 -1.4151
 2403TIP3   OH228699   6.570   2.300  12.891  0.3482  0.5246  0.4277
 2403TIP3    H128700   6.494   2.268  12.842 -0.3224  2.1673  0.3453
 2403TIP3    H228701   6.545   2.290  12.983  0.2068  0.6393  0.4027
 2404TIP3   OH228702   5.415   0.961   0.770 -0.0158  0.0721  0.4495
 2404TIP3    H128703   5.399   1.006   0.687 -1.8882 -0.7876  0.2992
 2404TIP3    H228704   5.510   0.967   0.782  0.4574 -0.5942 -2.2200
 2405TIP3   OH228705   6.022   5.988  12.384 -0.3828 -0.1832 -0.1572
 2405TIP3    H128706   6.066   5.981  12.300 -1.2788 -1.3119 -0.5546
 2405TIP3    H228707   6.055   5.913  12.435  1.7519  1.6146  1.3235
 2406TIP3   OH228708   2.911   5.121   2.777  0.1943 -0.1172 -0.2381
 2406TIP3    H128709   2.999   5.083   2.772  0.3550 -0.2253  2.1449
 2406TIP3    H228710   2.852   5.046   2.775  0.2672 -0.1809 -0.0621
 2407TIP3   OH228711   3.464   0.565  16.536  0.2429  0.7601  0.1284
 2407TIP3    H128712   3.558   0.574  16.554  0.7241 -0.8011 -1.2762
 2407TIP3    H228713   3.422   0.573  16.622  1.8282 -0.2472  1.0537
 2408TIP3   OH228714   0.107   3.709   1.556 -0.5961  0.1297  0.0134
 2408TIP3    H128715   0.038   3.770   1.585 -1.2150 -0.9380  0.8225
 2408TIP3    H228716   0.064   3.624   1.551  0.0792 -0.1490 -1.8090
 2409TIP3   OH228717   4.883   2.502  11.524  0.3583  0.2629  0.0695
 2409TIP3    H128718   4.873   2.495  11.620 -0.4149  1.5050  0.0981
 2409TIP3    H228719   4.793   2.496  11.491  0.7591 -2.3508 -0.7788
 2410TIP3   OH228720   0.159   1.809  11.052  0.0629  0.6081  0.8229
 2410TIP3    H128721   0.125   1.883  11.103 -1.3877  1.0786 -0.7473
 2410TIP3    H228722   0.204   1.850  10.978 -1.9780 -0.0134 -0.8499
 2411TIP3   OH228723   1.166   4.459  12.510 -0.3293  0.5187 -0.2574
 2411TIP3    H128724   1.167   4.546  12.469 -0.1974  0.1375 -1.0837
 2411TIP3    H228725   1.207   4.473  12.595 -0.4268  1.2912 -0.3253
 2412TIP3   OH228726   3.940   4.577   5.559 -0.4438 -0.0823  0.2932
 2412TIP3    H128727   4.006   4.579   5.489 -1.6014  1.4543 -0.8437
 2412TIP3    H228728   3.958   4.655   5.611 -1.6106  0.6202 -0.3135
 2413TIP3   OH228729   4.281   0.878  11.487 -0.1036  0.0278 -0.1316
 2413TIP3    H128730   4.375   0.879  11.467 -0.3635  0.8869 -1.4865
 2413TIP3    H228731   4.275   0.837  11.573  1.5024 -0.1542 -0.0702
 2414TIP3   OH228732   0.639   5.485   3.966 -0.0825 -0.0259  0.0042
 2414TIP3    H128733   0.724   5.507   3.928 -0.5826  0.8725 -0.6444
 2414TIP3    H228734   0.618   5.560   4.022  0.4184 -1.1128  1.7012
 2415TIP3   OH228735   0.878   5.596   5.279  0.3485  0.3475  0.1922
 2415TIP3    H128736   0.785   5.610   5.297  0.2333  0.2121 -0.2898
 2415TIP3    H228737   0.889   5.501   5.280  0.5561  0.3770  0.6198
 2416TIP3   OH228738   3.058   3.329  12.412  0.1270  0.3304 -0.0274
 2416TIP3    H128739   3.057   3.418  12.376  0.2101  0.1609 -0.4560
 2416TIP3    H228740   3.125   3.283  12.361  0.6139  0.2207  0.6920
 2417TIP3   OH228741   4.256   2.187  16.389 -0.2738 -0.0978  0.2046
 2417TIP3    H128742   4.182   2.243  16.412 -1.1789 -1.3143  0.3376
 2417TIP3    H228743   4.216   2.109  16.351  0.9615 -0.6441 -0.0111
 2418TIP3   OH228744   1.858   4.557  10.719 -0.0499 -0.3114  0.4425
 2418TIP3    H128745   1.785   4.618  10.719  0.4075  0.2557  0.9733
 2418TIP3    H228746   1.935   4.612  10.704  0.1861 -1.0278 -1.1936
 2419TIP3   OH228747   4.325   2.920   5.101  0.3694 -0.2776 -0.1234
 2419TIP3    H128748   4.359   2.842   5.144 -1.7907 -0.0919  2.1352
 2419TIP3    H228749   4.367   2.994   5.146  0.2134 -0.1051 -0.2557
 2420TIP3   OH228750   2.316   0.704  12.447  0.4926 -0.2507 -0.3484
 2420TIP3    H128751   2.239   0.758  12.425 -0.3422 -0.3789  1.9577
 2420TIP3    H228752   2.286   0.614  12.435  0.0640 -0.3171  1.1063
 2421TIP3   OH228753   2.748   4.863  13.834 -0.2317 -0.0842 -0.3176
 2421TIP3    H128754   2.691   4.934  13.863  0.1600 -0.4326  1.3946
 2421TIP3    H228755   2.761   4.880  13.741 -1.1148  1.4061 -0.2075
 2422TIP3   OH228756   2.336   1.509   4.489 -0.1421  0.4530  0.4510
 2422TIP3    H128757   2.349   1.529   4.582 -0.4834 -0.5274  0.7211
 2422TIP3    H228758   2.320   1.415   4.487  0.8514  0.2883 -0.7115
 2423TIP3   OH228759   1.617   6.730  15.414 -0.3249 -0.3031  0.7641
 2423TIP3    H128760   1.670   6.695  15.486 -1.2873 -0.4784  1.4031
 2423TIP3    H228761   1.531   6.745  15.452 -0.6699  0.2474 -0.1885
 2424TIP3   OH228762   3.401   2.455   2.126 -0.7698  0.5868  0.0118
 2424TIP3    H128763   3.330   2.497   2.078 -0.3822  0.8737 -0.3226
 2424TIP3    H228764   3.475   2.456   2.065 -0.8217 -0.8450 -0.1261
 2425TIP3   OH228765   1.235   0.064  14.185  0.6061  0.0663  0.3615
 2425TIP3    H128766   1.330   0.073  14.182  0.4079  2.2628 -1.2886
 2425TIP3    H228767   1.210   0.040  14.096 -0.2873 -2.4916  1.2217
 2426TIP3   OH228768   5.372   5.465  11.953 -0.3600 -0.1045  0.1675
 2426TIP3    H128769   5.323   5.439  11.876 -1.5790 -0.5893  1.0791
 2426TIP3    H228770   5.445   5.517  11.919 -0.2185 -1.2550 -1.3828
 2427TIP3   OH228771   1.394   5.142  10.460  0.0128  0.1377 -0.2816
 2427TIP3    H128772   1.459   5.198  10.419 -1.1607  0.6895 -1.4520
 2427TIP3    H228773   1.389   5.064  10.404  1.4885 -1.1162  1.2217
 2428TIP3   OH228774   5.849   1.895   0.945  0.2633 -0.1789 -0.5597
 2428TIP3    H128775   5.936   1.932   0.925 -1.0578  3.3986 -0.3574
 2428TIP3    H228776   5.793   1.927   0.874 -1.4817  0.0964  0.9030
 2429TIP3   OH228777   4.939   3.188  14.629  0.3809 -0.1738 -0.1205
 2429TIP3    H128778   4.920   3.097  14.602  1.3543 -0.1281 -1.0168
 2429TIP3    H228779   4.995   3.179  14.706 -0.6584 -0.3141  0.6407
 2430TIP3   OH228780   0.438   4.739   6.012 -0.3757  0.4491 -0.2448
 2430TIP3    H128781   0.349   4.739   5.975  0.3077  0.1862 -1.9938
 2430TIP3    H228782   0.495   4.747   5.936  1.1493 -0.7395  0.7203
 2431TIP3   OH228783   1.640   1.652   3.227 -0.2224 -0.5855 -0.4837
 2431TIP3    H128784   1.607   1.709   3.157 -0.1410 -0.1292 -0.1506
 2431TIP3    H228785   1.728   1.628   3.198 -0.5971 -1.2876 -1.0646
 2432TIP3   OH228786   1.588   2.500   1.875  0.4546  0.1986  0.2742
 2432TIP3    H128787   1.653   2.544   1.821  0.1253  0.8787  0.4152
 2432TIP3    H228788   1.567   2.420   1.828 -0.3705  1.1213 -0.9913
 2433TIP3   OH228789   4.390   2.868   0.666  0.5714 -1.1131 -0.3700
 2433TIP3    H128790   4.382   2.787   0.716 -3.1522 -0.9889 -0.5139
 2433TIP3    H228791   4.318   2.922   0.697  1.1368  0.9587 -2.4229
 2434TIP3   OH228792   4.457   2.070   6.186  0.3229 -0.0873  0.1724
 2434TIP3    H128793   4.435   2.163   6.190 -0.1222 -0.1730 -0.3101
 2434TIP3    H228794   4.553   2.068   6.195  0.5869  0.5680 -1.9179
 2435TIP3   OH228795   2.362   4.141  15.395  0.1711 -0.4963 -0.1937
 2435TIP3    H128796   2.343   4.047  15.392  0.0467 -0.6588  2.7562
 2435TIP3    H228797   2.443   4.147  15.447  0.7538  0.9804 -1.2216
 2436TIP3   OH228798   6.492   6.488  14.754  0.0992 -0.7975 -0.4510
 2436TIP3    H128799   6.494   6.483  14.658 -0.7272 -1.6599 -0.4337
 2436TIP3    H228800   6.420   6.431  14.779  0.5245 -0.8414  0.7059
 2437TIP3   OH228801   3.720   5.564  15.184  0.4274 -0.5306 -0.1469
 2437TIP3    H128802   3.784   5.635  15.192 -0.5089  0.1325  2.3843
 2437TIP3    H228803   3.650   5.600  15.130  0.7603 -0.1502 -0.3259
 2438TIP3   OH228804   0.279   6.639  10.487  0.1828 -0.1866  0.4245
 2438TIP3    H128805   0.345   6.593  10.435 -1.0693 -1.7712  0.1305
 2438TIP3    H228806   0.260   6.719  10.437 -0.4060 -1.2726 -1.1844
 2439TIP3   OH228807   0.063   3.085   2.054 -0.1856  0.2652  0.0887
 2439TIP3    H128808   0.001   3.013   2.068  0.8765 -0.4455  1.2670
 2439TIP3    H228809   0.021   3.138   1.986 -1.2248 -1.1951 -0.4902
 2440TIP3   OH228810   1.906   0.724  14.297  0.0282 -0.7084 -0.3489
 2440TIP3    H128811   1.865   0.810  14.292 -0.5125 -0.8517  1.1225
 2440TIP3    H228812   2.000   0.743  14.302 -0.0659 -0.2173 -0.3688
 2441TIP3   OH228813   5.317   3.488   1.347  0.3090  0.1425  0.2112
 2441TIP3    H128814   5.397   3.464   1.393 -0.3656 -1.0187  0.8144
 2441TIP3    H228815   5.303   3.417   1.285  0.9761  1.4740 -1.5602
 2442TIP3   OH228816   2.676   2.868  14.180 -0.0176  0.4785 -0.1075
 2442TIP3    H128817   2.676   2.944  14.238 -1.8403  0.0668  0.4838
 2442TIP3    H228818   2.594   2.823  14.199  0.1870 -0.6650 -1.7463
 2443TIP3   OH228819   3.066   1.208   1.764  0.1172  0.1922 -0.4947
 2443TIP3    H128820   3.018   1.161   1.832  0.0146  0.8357 -0.1176
 2443TIP3    H228821   3.098   1.288   1.807  1.4737 -0.1862 -0.7419
 2444TIP3   OH228822   4.779   2.419  12.806 -0.4477 -0.3582 -0.0417
 2444TIP3    H128823   4.777   2.510  12.837 -1.1058 -0.4731  0.2598
 2444TIP3    H228824   4.851   2.417  12.743 -1.9696  0.9728 -1.9272
 2445TIP3   OH228825   2.499   4.291  15.957  0.0053  0.1821 -0.0190
 2445TIP3    H128826   2.514   4.270  16.049  0.0871 -0.8546 -0.2543
 2445TIP3    H228827   2.585   4.283  15.916 -0.1680 -0.1444 -0.3277
 2446TIP3   OH228828   6.183   3.920   4.695  0.2593 -0.2567  0.0692
 2446TIP3    H128829   6.141   3.988   4.643 -1.0892 -1.0747  0.0459
 2446TIP3    H228830   6.178   3.952   4.785 -1.6272 -0.8971  0.2328
 2447TIP3   OH228831   5.105   2.421   5.684 -0.4852  0.3501 -0.5052
 2447TIP3    H128832   5.119   2.485   5.613  0.5693  0.5929 -0.0869
 2447TIP3    H228833   5.125   2.469   5.764  1.1484 -0.7160 -0.2287
 2448TIP3   OH228834   2.146   2.476   1.886  0.2261 -0.4112  0.3726
 2448TIP3    H128835   2.195   2.471   1.804 -0.3618  0.3185 -0.0348
 2448TIP3    H228836   2.091   2.398   1.887  0.1589 -0.3679  0.0211
 2449TIP3   OH228837   1.170   0.000   0.038 -0.1214  0.0672 -0.2271
 2449TIP3    H128838   1.086   0.010   0.084 -0.2681 -1.1520 -0.2048
 2449TIP3    H228839   1.168  -0.088   0.003  0.9535  0.2010 -0.6603
 2450TIP3   OH228840   0.639   2.956  15.378 -0.3950  0.3652 -0.2982
 2450TIP3    H128841   0.720   2.990  15.341  0.9059 -1.3138  0.8398
 2450TIP3    H228842   0.570   2.992  15.322  1.2614  0.0272 -2.7351
 2451TIP3   OH228843   3.305   3.153   3.783 -0.8063  0.3706 -0.5238
 2451TIP3    H128844   3.311   3.153   3.687 -0.6073  0.1928 -0.5126
 2451TIP3    H228845   3.234   3.093   3.802  2.0731 -3.3855 -0.4128
 2452TIP3   OH228846   1.684   2.284  15.558  0.3457  0.1588  0.0895
 2452TIP3    H128847   1.614   2.348  15.571  0.5035  0.3807 -0.1366
 2452TIP3    H228848   1.720   2.305  15.472  0.6120 -0.0265  0.1538
 2453TIP3   OH228849   5.996   2.892  15.903  0.0331  0.6225  0.3971
 2453TIP3    H128850   6.026   2.839  15.830  1.1032  2.9860 -0.9895
 2453TIP3    H228851   5.900   2.889  15.897  0.0538 -1.2322  0.4900
 2454TIP3   OH228852   6.189   6.184   3.108  0.2760 -0.8204  0.0544
 2454TIP3    H128853   6.249   6.236   3.053  1.3627  0.0441  1.9652
 2454TIP3    H228854   6.102   6.213   3.081  0.8026  0.2037 -0.6466
 2455TIP3   OH228855   5.180   2.926   2.773  0.1204  0.0983  0.0155
 2455TIP3    H128856   5.274   2.935   2.760  0.2926 -1.7528 -0.1707
 2455TIP3    H228857   5.142   2.949   2.688  0.3603  1.1979  0.1911
 2456TIP3   OH228858   4.584   4.772  12.440 -0.5859  0.3011  0.1325
 2456TIP3    H128859   4.655   4.739  12.495 -0.7091 -1.0090 -0.4479
 2456TIP3    H228860   4.540   4.693  12.408 -1.2167  1.0548 -0.9415
 2457TIP3   OH228861   3.241   5.057   1.963  0.4802  0.1884  0.8754
 2457TIP3    H128862   3.302   5.010   1.906  0.1461  0.8367 -0.0230
 2457TIP3    H228863   3.154   5.037   1.928  0.3184  1.2573  0.6474
 2458TIP3   OH228864   4.455   6.433   3.543  0.0674  0.7987 -0.0423
 2458TIP3    H128865   4.383   6.377   3.513  0.1196  2.0900 -2.8246
 2458TIP3    H228866   4.534   6.391   3.510  0.3405  1.1221  0.1880
 2459TIP3   OH228867   4.185   4.941  13.243  0.4190 -0.2833 -0.0567
 2459TIP3    H128868   4.262   4.997  13.248  1.5216 -1.6510 -0.9106
 2459TIP3    H228869   4.119   4.986  13.295  1.1627  1.9151 -0.9071
 2460TIP3   OH228870   1.687   2.762   3.697  0.2690  0.7463 -0.2084
 2460TIP3    H128871   1.750   2.832   3.716  1.2830  0.1193 -1.0933
 2460TIP3    H228872   1.730   2.683   3.730 -0.9218  0.5348  0.8999
 2461TIP3   OH228873   1.876   4.449  10.480 -0.3482 -0.2881  0.0680
 2461TIP3    H128874   1.847   4.473  10.568 -1.4020  2.6535 -0.9487
 2461TIP3    H228875   1.829   4.369  10.460 -0.9664 -0.3821  1.7415
 2462TIP3   OH228876   4.350   0.405  14.834 -0.0115  0.1251 -0.2594
 2462TIP3    H128877   4.329   0.361  14.751 -1.8123 -0.8312  0.6344
 2462TIP3    H228878   4.392   0.487  14.808  0.5353 -0.6796 -2.0695
 2463TIP3   OH228879   1.156   2.243  11.788 -0.0830 -0.1114 -0.0074
 2463TIP3    H128880   1.236   2.197  11.765  0.3648  0.6860 -0.0736
 2463TIP3    H228881   1.164   2.328  11.746  0.0828  0.8290  1.8174
 2464TIP3   OH228882   1.494   2.531   3.130  0.8472  0.7339 -0.7060
 2464TIP3    H128883   1.535   2.469   3.190  0.1553 -0.5548 -1.5408
 2464TIP3    H228884   1.475   2.481   3.051 -1.1007  1.6147 -0.8612
 2465TIP3   OH228885   5.253   4.688   1.096  0.0075  0.3319 -0.5575
 2465TIP3    H128886   5.329   4.705   1.041 -0.0571  1.8991 -0.1887
 2465TIP3    H228887   5.179   4.692   1.035  0.2515 -3.1992 -1.3356
 2466TIP3   OH228888   2.177   3.899   4.785  0.2763  0.2313 -0.1839
 2466TIP3    H128889   2.097   3.885   4.836  1.1545  0.5335  1.3573
 2466TIP3    H228890   2.208   3.810   4.764 -0.6534  0.1195 -1.1391
 2467TIP3   OH228891   1.830   4.727   6.123  0.4517  0.3078  0.0731
 2467TIP3    H128892   1.845   4.665   6.194  0.1166  0.7659  0.5559
 2467TIP3    H228893   1.880   4.692   6.049  1.6014  0.3546  0.8163
 2468TIP3   OH228894   1.439   3.919  15.215  0.0811 -0.4097 -0.6852
 2468TIP3    H128895   1.369   3.985  15.213 -0.7833 -1.1170  1.9353
 2468TIP3    H228896   1.398   3.841  15.177  0.3022 -0.1331 -1.5084
 2469TIP3   OH228897   2.905   4.559   5.181  0.0169 -0.2410 -0.2322
 2469TIP3    H128898   2.888   4.532   5.271  2.2577 -1.3735 -0.0798
 2469TIP3    H228899   2.913   4.655   5.186  0.4924 -0.3234  0.8363
 2470TIP3   OH228900   4.703   6.360  14.721  0.1466  0.2970 -0.2229
 2470TIP3    H128901   4.617   6.402  14.725 -0.5653 -1.0628 -0.3429
 2470TIP3    H228902   4.762   6.420  14.767 -0.6351  1.7744 -1.0881
 2471TIP3   OH228903   5.045   3.097   5.603  0.5086  0.2136  0.5127
 2471TIP3    H128904   5.023   3.117   5.695 -0.5000 -1.0951  0.5801
 2471TIP3    H228905   5.061   3.003   5.602  1.8986  0.4364 -0.4208
 2472TIP3   OH228906   2.538   3.432  14.548 -0.4634 -0.9740  0.1441
 2472TIP3    H128907   2.605   3.446  14.616 -0.2821 -0.7345 -0.0828
 2472TIP3    H228908   2.528   3.337  14.544  0.1797 -1.0408 -0.1237
 2473TIP3   OH228909   0.295   3.337  12.673 -0.1568 -0.6760 -0.7997
 2473TIP3    H128910   0.370   3.338  12.613  0.2721  0.6346 -0.2772
 2473TIP3    H228911   0.309   3.412  12.730 -1.3844 -0.9748 -0.0677
 2474TIP3   OH228912   0.510   2.266  12.477  0.0095  0.7834  0.0936
 2474TIP3    H128913   0.529   2.206  12.549 -1.1106 -1.4897 -1.3532
 2474TIP3    H228914   0.443   2.326  12.511 -1.6731 -1.2401  0.5700
 2475TIP3   OH228915   3.129   0.747   2.649  0.1444  0.6321  0.0590
 2475TIP3    H128916   3.221   0.719   2.644  0.9381  3.0183  0.0191
 2475TIP3    H228917   3.122   0.791   2.734 -0.8084  0.9206 -0.1594
 2476TIP3   OH228918   5.564   2.286  12.747 -0.0327  0.2249  0.2118
 2476TIP3    H128919   5.596   2.218  12.688 -0.9563  0.2600 -0.3498
 2476TIP3    H228920   5.637   2.302  12.807  0.6465 -0.3563 -0.4375
 2477TIP3   OH228921   4.306   4.148   4.068 -0.1107  0.3292 -0.0326
 2477TIP3    H128922   4.280   4.236   4.096 -2.1821 -0.0562 -0.6038
 2477TIP3    H228923   4.242   4.124   4.001  0.6555 -1.4746 -0.1812
 2478TIP3   OH228924   5.625   5.404   2.086 -0.1600 -0.0904  0.1388
 2478TIP3    H128925   5.689   5.338   2.113 -0.7969 -0.9179 -0.3447
 2478TIP3    H228926   5.665   5.487   2.111  1.8406 -0.4489 -1.5742
 2479TIP3   OH228927   6.068   4.873   2.084  0.0432 -0.0657  0.5811
 2479TIP3    H128928   6.139   4.935   2.067  0.1931 -0.6162 -0.9973
 2479TIP3    H228929   6.053   4.831   1.999 -2.7073  0.5628  0.6823
 2480TIP3   OH228930   2.318   3.980   3.737  0.1118  0.4593 -0.1387
 2480TIP3    H128931   2.283   4.025   3.660 -1.6075 -0.7406 -0.1142
 2480TIP3    H228932   2.273   3.895   3.738  0.1197  0.4184  2.1571
 2481TIP3   OH228933   5.475   2.034   0.547  0.0464  0.1045 -0.3374
 2481TIP3    H128934   5.411   1.998   0.608 -0.0809 -0.6794 -0.9142
 2481TIP3    H228935   5.520   1.957   0.512  2.0037  0.6622  0.7852
 2482TIP3   OH228936   4.812   5.279   6.380 -0.0247  0.1669  0.1485
 2482TIP3    H128937   4.846   5.208   6.325 -1.1554 -0.9897  0.8792
 2482TIP3    H228938   4.794   5.237   6.464 -0.9071  1.2923  0.5370
 2483TIP3   OH228939   2.230   6.551   5.661  0.1733 -0.6091 -0.2905
 2483TIP3    H128940   2.319   6.562   5.693 -0.1680  0.2375  0.4237
 2483TIP3    H228941   2.191   6.488   5.722  0.2042 -0.7765 -0.4431
 2484TIP3   OH228942   2.681   1.449   5.596 -0.5074 -0.1965 -0.3729
 2484TIP3    H128943   2.700   1.500   5.675 -0.7288 -0.8019  0.0809
 2484TIP3    H228944   2.763   1.404   5.576 -0.5441 -0.3001 -0.2924
 2485TIP3   OH228945   4.166   0.312   2.143 -0.2861  0.4636 -0.0399
 2485TIP3    H128946   4.095   0.355   2.095  0.5325  0.5875 -1.1698
 2485TIP3    H228947   4.156   0.219   2.123 -0.8843  0.3204  0.8438
 2486TIP3   OH228948   6.413   4.770   1.651  0.0311  0.1173 -0.1826
 2486TIP3    H128949   6.506   4.752   1.665 -0.3610 -1.1202  1.1118
 2486TIP3    H228950   6.375   4.771   1.739 -1.0417  1.6023 -0.6142
 2487TIP3   OH228951   0.869   2.639  15.157 -0.1664 -0.5872  0.1768
 2487TIP3    H128952   0.873   2.716  15.101 -2.4067 -0.4449  0.1425
 2487TIP3    H228953   0.959   2.606  15.158  0.4917  1.0105 -1.2083
 2488TIP3   OH228954   4.654   5.510   1.118 -0.3362  0.1884  0.2831
 2488TIP3    H128955   4.629   5.559   1.039 -1.4053 -0.8495 -0.0430
 2488TIP3    H228956   4.589   5.441   1.125  0.7141 -0.7453  1.1542
 2489TIP3   OH228957   2.479   2.238   4.037 -0.0336 -0.5217  0.2458
 2489TIP3    H128958   2.392   2.275   4.022  0.1404 -0.0853  0.3036
 2489TIP3    H228959   2.518   2.233   3.950 -0.5171 -1.7472  0.0747
 2490TIP3   OH228960   4.721   4.805  14.914  0.0229  0.5429 -0.2991
 2490TIP3    H128961   4.666   4.847  14.980  0.0716  0.3828 -0.1560
 2490TIP3    H228962   4.810   4.813  14.947 -0.1610 -2.0491  1.1018
 2491TIP3   OH228963   2.832   2.050   2.755  0.1857 -1.0314 -0.1836
 2491TIP3    H128964   2.786   1.970   2.731 -0.7895 -0.5492  0.0033
 2491TIP3    H228965   2.815   2.060   2.849  1.9228 -1.6119  0.2341
 2492TIP3   OH228966   1.698   2.274   4.399  0.4627 -0.0613  0.3869
 2492TIP3    H128967   1.684   2.187   4.361  0.4573  0.3504 -0.5800
 2492TIP3    H228968   1.757   2.317   4.338 -0.1721  0.8992  0.4306
 2493TIP3   OH228969   3.097   6.484   1.365 -0.1867 -0.5320 -0.2551
 2493TIP3    H128970   3.149   6.415   1.324  0.4562 -1.2687  1.6886
 2493TIP3    H228971   3.006   6.461   1.345  0.1033 -0.7525 -1.3850
 2494TIP3   OH228972   6.124   4.538  14.335 -0.5928  0.2563  0.0336
 2494TIP3    H128973   6.181   4.604  14.295 -1.4516 -0.0745 -1.8298
 2494TIP3    H228974   6.152   4.456  14.295 -2.1034  0.0360 -0.6381
 2495TIP3   OH228975   6.233   2.519   1.567  0.3870 -0.4391  0.0106
 2495TIP3    H128976   6.165   2.568   1.612  1.5014  0.1513  1.0915
 2495TIP3    H228977   6.275   2.583   1.510  1.3856 -0.2698  0.9044
 2496TIP3   OH228978   2.908   0.226  14.000  0.0125 -0.6205  0.4397
 2496TIP3    H128979   2.848   0.153  14.013  0.2178 -0.7941  0.4220
 2496TIP3    H228980   2.923   0.228  13.906 -0.0541 -0.5074  0.4324
 2497TIP3   OH228981   0.216   6.342   2.847 -0.0820 -0.6706 -0.1663
 2497TIP3    H128982   0.163   6.414   2.881  0.2591 -0.2875 -0.4315
 2497TIP3    H228983   0.293   6.385   2.809  0.4872 -1.2243  0.3433
 2498TIP3   OH228984   4.949   0.563  12.485 -0.1064 -0.1615 -0.8720
 2498TIP3    H128985   4.878   0.626  12.497 -0.3009 -0.2669 -1.4442
 2498TIP3    H228986   4.914   0.500  12.423  1.3173  1.1237 -3.1227
 2499TIP3   OH228987   1.022   2.257  13.682 -0.0188 -0.3143  0.5154
 2499TIP3    H128988   1.049   2.265  13.773 -0.2213 -0.0963  0.5560
 2499TIP3    H228989   1.102   2.275  13.632  0.1878 -0.8268  0.6526
 2500TIP3   OH228990   5.355   5.573   0.713  0.4095  0.3356  0.2285
 2500TIP3    H128991   5.436   5.619   0.690  0.1937 -0.7841 -3.5144
 2500TIP3    H228992   5.362   5.488   0.669 -2.2077 -0.3333  0.9037
 2501TIP3   OH228993   3.501   0.081  10.992 -0.2030  0.4373 -0.0866
 2501TIP3    H128994   3.409   0.058  10.975 -0.8094  2.2441  0.4223
 2501TIP3    H228995   3.515   0.160  10.940  1.2961 -0.1833 -0.6612
 2502TIP3   OH228996   3.811   5.818  14.143 -0.2038  0.2392 -0.2178
 2502TIP3    H128997   3.745   5.749  14.147 -0.3449  0.3258 -0.9183
 2502TIP3    H228998   3.875   5.794  14.211  0.8880 -1.7670 -1.8581
 2503TIP3   OH228999   2.913   2.463   3.030  0.6977  0.2841 -0.2957
 2503TIP3    H129000   2.962   2.451   2.949 -1.3127  1.4100 -1.7568
 2503TIP3    H229001   2.859   2.541   3.014 -0.1896  0.1943  1.9195
 2504TIP3   OH229002   0.042   0.617   2.091  0.1430 -0.2818  0.3587
 2504TIP3    H129003   0.119   0.674   2.083  0.5425 -0.6689  1.2788
 2504TIP3    H229004  -0.030   0.669   2.056  0.7981  0.1343 -0.4146
 2505TIP3   OH229005   6.460   6.162   1.031 -0.5713  0.3200  0.1586
 2505TIP3    H129006   6.553   6.151   1.050 -0.5953  0.9235  0.6801
 2505TIP3    H229007   6.444   6.256   1.044 -1.5662 -0.0172  1.5936
 2506TIP3   OH229008   1.708   0.548  16.218 -0.4389  0.5409 -0.0429
 2506TIP3    H129009   1.666   0.481  16.164  0.3916  0.5299 -0.7137
 2506TIP3    H229010   1.716   0.623  16.159  1.7974  0.0609 -0.4737
 2507TIP3   OH229011   1.968   5.907   1.195 -0.2185 -0.2301 -0.3947
 2507TIP3    H129012   1.998   5.918   1.104  2.2133 -0.3798  0.3098
 2507TIP3    H229013   1.936   5.993   1.221  0.6762  0.2740 -0.8967
 2508TIP3   OH229014   0.237   1.482   0.143  0.6379  0.3961 -0.2028
 2508TIP3    H129015   0.229   1.394   0.178  1.9567  0.6223  0.7574
 2508TIP3    H229016   0.155   1.525   0.166 -0.3610 -0.7952 -1.3980
 2509TIP3   OH229017   6.133   3.528  13.132  1.0561 -0.3531  0.1574
 2509TIP3    H129018   6.083   3.544  13.052 -0.0354 -0.6232  0.7698
 2509TIP3    H229019   6.221   3.561  13.112 -0.0359  2.8614  0.0295
 2510TIP3   OH229020   5.732   6.440   4.776 -0.9634  0.0747 -0.5038
 2510TIP3    H129021   5.797   6.504   4.749 -2.0263  1.8583  0.9616
 2510TIP3    H229022   5.766   6.356   4.744  1.7768  0.9853 -0.2118
 2511TIP3   OH229023   4.706   2.162  15.646  0.0634 -0.1473  0.2628
 2511TIP3    H129024   4.704   2.257  15.661 -0.0582  0.0386 -0.8121
 2511TIP3    H229025   4.799   2.141  15.641  0.1266 -0.3422  1.9145
 2512TIP3   OH229026   0.956   3.814  14.587  0.1113  0.0813  0.2069
 2512TIP3    H129027   1.020   3.786  14.522 -0.1428  0.8367 -0.3856
 2512TIP3    H229028   0.990   3.897  14.621 -0.5033  0.4495 -0.0588
 2513TIP3   OH229029   5.199   4.431  13.754 -0.4498  0.3066  0.2645
 2513TIP3    H129030   5.226   4.520  13.776 -1.5312  0.4847  0.9174
 2513TIP3    H229031   5.250   4.376  13.814  1.2193  0.3459 -1.0187
 2514TIP3   OH229032   4.749   2.418  12.283 -0.1200  0.2166 -0.1988
 2514TIP3    H129033   4.704   2.345  12.326 -0.5761  0.4085 -0.3466
 2514TIP3    H229034   4.779   2.473  12.355 -1.7471  1.0589 -0.1193
 2515TIP3   OH229035   0.745   3.780  14.374  0.2458  0.0614 -0.2005
 2515TIP3    H129036   0.712   3.865  14.403 -0.9497 -0.7369  0.8891
 2515TIP3    H229037   0.840   3.786  14.387  0.0925  0.9312  0.6652
 2516TIP3   OH229038   3.535   3.467  16.656  0.3132  0.2399 -0.0260
 2516TIP3    H129039   3.509   3.554  16.687  0.6180  1.5509 -3.0458
 2516TIP3    H229040   3.452   3.424  16.635  0.2209  0.8606 -0.9980
 2517TIP3   OH229041   0.177   1.408  12.731 -0.2371 -0.1587  0.1349
 2517TIP3    H129042   0.148   1.462  12.805 -0.0502  2.0754 -1.3179
 2517TIP3    H229043   0.271   1.428  12.722 -0.3629  0.0002 -0.9905
 2518TIP3   OH229044   4.049   1.705   2.768 -0.0087 -0.1849  0.0316
 2518TIP3    H129045   4.066   1.654   2.848  2.0162  2.4988  1.4632
 2518TIP3    H229046   3.954   1.721   2.771  0.0645  0.2146  2.1709
 2519TIP3   OH229047   0.807   1.486  13.017 -0.2165  0.2010  0.4825
 2519TIP3    H129048   0.879   1.538  12.980 -0.8098  0.6464 -0.0530
 2519TIP3    H229049   0.813   1.402  12.971  2.2835 -1.2053  3.0589
 2520TIP3   OH229050   4.394   5.701  15.696  0.2370  0.0651 -0.2502
 2520TIP3    H129051   4.368   5.762  15.626  0.2026  1.1437  0.6724
 2520TIP3    H229052   4.483   5.728  15.720  0.7909 -1.1867 -0.8015
 2521TIP3   OH229053   0.747   4.187  12.206  0.2825  0.5327 -0.4243
 2521TIP3    H129054   0.656   4.177  12.178  0.6659  0.2781 -1.6540
 2521TIP3    H229055   0.749   4.154  12.296 -0.5920 -0.6332 -0.8168
 2522TIP3   OH229056   3.407   5.578   3.340  0.0166  0.1711 -0.3424
 2522TIP3    H129057   3.358   5.657   3.317  0.0941  0.5339  0.7158
 2522TIP3    H229058   3.487   5.610   3.381  0.4010 -0.4531 -0.5771
 2523TIP3   OH229059   0.803   6.758  12.376 -0.3645 -0.5367 -0.3448
 2523TIP3    H129060   0.766   6.740  12.463 -2.0783 -2.0168 -1.2982
 2523TIP3    H229061   0.758   6.837  12.347  0.4522  0.1514  0.2123
 2524TIP3   OH229062   2.748   6.059   4.645 -0.0527  0.1303 -0.3951
 2524TIP3    H129063   2.827   6.097   4.607  0.7688 -0.7783  0.3385
 2524TIP3    H229064   2.691   6.040   4.571  2.5795 -4.1506 -1.6656
 2525TIP3   OH229065   2.026   6.787   3.944 -0.8697  0.1531  0.4644
 2525TIP3    H129066   2.108   6.833   3.928 -0.6895 -0.1250  0.5797
 2525TIP3    H229067   2.021   6.781   4.039 -2.1224  2.1429  0.5945
 2526TIP3   OH229068   1.952   3.373   1.106 -0.6047  0.1246  0.3342
 2526TIP3    H129069   1.917   3.398   1.192  0.5566  0.2876  0.7794
 2526TIP3    H229070   1.995   3.452   1.074 -1.1855  0.1193 -0.5012
 2527TIP3   OH229071   0.209   3.015  12.991  0.1415 -0.5477  0.3163
 2527TIP3    H129072   0.176   2.926  13.000  1.1838 -1.0249 -0.3388
 2527TIP3    H229073   0.158   3.067  13.053  1.4961 -2.1138  2.8924
 2528TIP3   OH229074   3.430   1.532   5.324 -0.0723  0.4534  0.3597
 2528TIP3    H129075   3.507   1.590   5.333 -0.7010  1.0381  2.8533
 2528TIP3    H229076   3.369   1.583   5.271  0.1257  1.2848  0.8992
 2529TIP3   OH229077   6.776   4.588  14.719  0.4843  0.7308  0.0171
 2529TIP3    H129078   6.871   4.579  14.708  0.5500  0.0188  1.0578
 2529TIP3    H229079   6.750   4.649  14.650  1.9341  2.2325  0.7443
 2530TIP3   OH229080   2.286   5.198   4.482  0.0535  0.2601 -0.3280
 2530TIP3    H129081   2.226   5.219   4.554 -0.6288  1.1602 -1.1344
 2530TIP3    H229082   2.340   5.276   4.471  0.3706  0.0080 -0.5827
 2531TIP3   OH229083   3.919   0.665   5.616  0.1297 -0.0863 -0.1056
 2531TIP3    H129084   3.843   0.707   5.576 -1.0167 -1.0027  1.0125
 2531TIP3    H229085   3.934   0.587   5.563  1.2325  0.8312 -1.1959
 2532TIP3   OH229086   3.953   3.019  13.890 -0.8138 -0.1507  0.1687
 2532TIP3    H129087   3.862   2.989  13.898 -0.2149 -2.6045 -1.1619
 2532TIP3    H229088   3.992   3.000  13.975 -1.7411  1.8902  1.1079
 2533TIP3   OH229089   2.975   0.774   2.422  0.2372  0.7494 -0.0928
 2533TIP3    H129090   2.906   0.708   2.408 -0.9094  1.9747 -0.4049
 2533TIP3    H229091   3.019   0.746   2.502 -0.7583  0.0339  0.2305
 2534TIP3   OH229092   2.163   5.082  12.624  0.0696  0.4611 -0.4402
 2534TIP3    H129093   2.070   5.064  12.608 -0.1466  2.1111 -1.2554
 2534TIP3    H229094   2.207   5.057  12.543  0.5954 -1.6290  0.4116
 2535TIP3   OH229095   5.135   1.051   3.597 -0.6007  0.2129 -0.5029
 2535TIP3    H129096   5.231   1.046   3.605 -0.7029  1.4397  3.0408
 2535TIP3    H229097   5.120   1.119   3.531  0.9783  0.6184 -0.4862
 2536TIP3   OH229098   6.197   2.423   2.919 -0.0738  0.6384 -0.2215
 2536TIP3    H129099   6.136   2.359   2.882  0.3428  0.9645 -1.5440
 2536TIP3    H229100   6.151   2.459   2.995 -0.3521 -1.1458  0.4977
 2537TIP3   OH229101   5.815   2.675  15.392 -0.2711  0.1994 -0.0995
 2537TIP3    H129102   5.835   2.750  15.336  1.9662 -1.0735 -1.1603
 2537TIP3    H229103   5.901   2.641  15.416 -1.2314 -1.9416  0.4816
 2538TIP3   OH229104   3.861   6.326   1.006 -0.0287 -0.0478  0.0918
 2538TIP3    H129105   3.908   6.303   0.926  1.8612  0.3614  1.0337
 2538TIP3    H229106   3.926   6.317   1.075 -0.8157  2.3095  1.2390
 2539TIP3   OH229107   5.552   2.674   3.207 -0.0260  0.5776 -0.0996
 2539TIP3    H129108   5.572   2.756   3.252  3.8134 -0.7712  1.0636
 2539TIP3    H229109   5.539   2.610   3.277  2.8976 -0.8959 -0.7274
 2540TIP3   OH229110   0.319   5.335   1.541 -0.4200  0.6387 -0.3270
 2540TIP3    H129111   0.373   5.296   1.610 -2.2676 -0.2308  0.6971
 2540TIP3    H229112   0.317   5.428   1.562  1.4284  0.8559 -0.9511
 2541TIP3   OH229113   1.376   4.208  11.165 -0.6111 -0.6390 -0.6210
 2541TIP3    H129114   1.322   4.221  11.088 -1.4099  0.6722  0.1190
 2541TIP3    H229115   1.449   4.268  11.154 -1.0748  0.0451 -0.0705
 2542TIP3   OH229116   6.659   6.154   4.683  0.4853 -0.1135 -0.1861
 2542TIP3    H129117   6.597   6.191   4.745  0.3362 -0.8656  0.1289
 2542TIP3    H229118   6.738   6.136   4.735  1.8335  2.8535 -1.0000
 2543TIP3   OH229119   3.598   2.772   2.572 -0.1025  0.3577 -0.1816
 2543TIP3    H129120   3.540   2.845   2.594  0.5456  1.2334 -1.3059
 2543TIP3    H229121   3.540   2.708   2.529 -1.0368 -0.6493  2.3659
 2544TIP3   OH229122   6.000   2.758   0.550  0.3187  0.4067  0.4830
 2544TIP3    H129123   5.921   2.708   0.530 -0.7587  1.3897  2.0542
 2544TIP3    H229124   6.060   2.693   0.587 -0.4210 -0.0662  0.8994
 2545TIP3   OH229125   5.821   1.281  16.486  0.6267  0.3101  0.1465
 2545TIP3    H129126   5.798   1.196  16.447  2.2334  0.1993 -0.6612
 2545TIP3    H229127   5.857   1.331  16.413  1.0315  1.1586  0.9216
 2546TIP3   OH229128   6.058   2.246  16.004 -0.3712 -0.3689  0.3749
 2546TIP3    H129129   5.998   2.181  15.967  0.0475 -1.0852  0.9255
 2546TIP3    H229130   6.063   2.315  15.938 -0.7192 -0.9668 -0.2867
 2547TIP3   OH229131   3.719   6.491   5.384  0.1955 -0.7847 -0.2376
 2547TIP3    H129132   3.759   6.564   5.336 -1.1329 -1.5060 -2.5818
 2547TIP3    H229133   3.645   6.464   5.330 -1.8643 -1.2524  2.6066
 2548TIP3   OH229134   0.110   1.170   1.650 -0.0620 -0.6297  0.2954
 2548TIP3    H129135   0.052   1.097   1.669 -0.1295 -0.1514  2.0492
 2548TIP3    H229136   0.075   1.243   1.701  1.5307 -0.0815  0.6523
 2549TIP3   OH229137   1.839   3.784  10.251 -0.3571 -0.2393  0.7310
 2549TIP3    H129138   1.759   3.822  10.285 -1.1310  0.9600 -2.1432
 2549TIP3    H229139   1.809   3.708  10.199  0.0204  1.3216 -1.9577
 2550TIP3   OH229140   4.273   5.475  15.159  0.5620  0.2748 -0.0611
 2550TIP3    H129141   4.209   5.536  15.124 -0.7459 -0.7798  0.4088
 2550TIP3    H229142   4.229   5.434  15.234  0.8027 -2.2796 -1.1865
 2551TIP3   OH229143   3.485   1.675   1.517  0.0892 -0.2315 -0.6888
 2551TIP3    H129144   3.474   1.716   1.603  1.4860 -0.2725 -0.4720
 2551TIP3    H229145   3.480   1.581   1.535 -0.9153 -0.2323 -0.8693
 2552TIP3   OH229146   4.673   3.911   5.276 -0.1750  0.3472  0.3131
 2552TIP3    H129147   4.713   3.842   5.223 -0.4905  0.0744  0.4266
 2552TIP3    H229148   4.703   3.893   5.365 -2.4160 -1.2860  0.8119
 2553TIP3   OH229149   5.648   0.992  11.142  0.3156 -0.6369 -0.0548
 2553TIP3    H129150   5.711   1.058  11.171  0.2714  0.0271 -1.4388
 2553TIP3    H229151   5.603   1.031  11.068 -0.6732 -1.7010 -0.0475
 2554TIP3   OH229152   3.444   0.684  14.738  0.2089 -0.7191  0.3564
 2554TIP3    H129153   3.421   0.705  14.829 -0.8322 -0.4987  0.0508
 2554TIP3    H229154   3.493   0.759  14.707 -0.6282 -0.1708  0.3181
 2555TIP3   OH229155   0.112   3.437   1.242  0.5435  0.3773  0.8023
 2555TIP3    H129156   0.189   3.389   1.212  1.4787  1.9174  0.6174
 2555TIP3    H229157   0.100   3.506   1.177 -0.0729  1.0914  1.6553
 2556TIP3   OH229158   6.462   5.584   4.741 -0.1184  0.6425 -0.0914
 2556TIP3    H129159   6.546   5.626   4.757  0.8753 -1.9041  2.2463
 2556TIP3    H229160   6.426   5.630   4.665  1.8189  4.0265  0.8254
 2557TIP3   OH229161   2.127   3.503  12.894  0.2742 -0.0322  0.5612
 2557TIP3    H129162   2.084   3.538  12.972 -0.4420  1.2921 -0.4048
 2557TIP3    H229163   2.188   3.437  12.928 -1.6395 -1.1196  2.0656
 2558TIP3   OH229164   4.630   0.972  11.172 -0.7160  0.2907 -0.3092
 2558TIP3    H129165   4.635   0.945  11.081  0.0500  0.1409 -0.2231
 2558TIP3    H229166   4.581   1.054  11.170 -2.9699 -0.9789 -0.5882
 2559TIP3   OH229167   4.110   3.752  14.604  0.2855  0.0567  0.7160
 2559TIP3    H129168   4.046   3.752  14.532  0.1104 -0.1228  0.8698
 2559TIP3    H229169   4.072   3.812  14.668  1.0401  1.1815  0.1360
 2560TIP3   OH229170   5.524   4.638  14.001 -0.0458 -0.5252  0.0267
 2560TIP3    H129171   5.612   4.616  13.970 -0.8327 -3.3494 -0.5504
 2560TIP3    H229172   5.532   4.637  14.096  0.9271  1.3193  0.0102
 2561TIP3   OH229173   0.178   2.152   3.405 -0.2266  0.0471  0.3041
 2561TIP3    H129174   0.265   2.113   3.396  0.0953  0.5986  0.8940
 2561TIP3    H229175   0.174   2.219   3.337 -0.0472  0.2634  0.5044
 2562TIP3   OH229176   5.201   3.650  10.188 -0.7290  0.1665 -0.3002
 2562TIP3    H129177   5.120   3.697  10.204  0.1536  1.3377  1.0674
 2562TIP3    H229178   5.228   3.618  10.275 -0.0139 -0.6781 -0.8083
 2563TIP3   OH229179   4.226   1.055   2.839  0.5811 -0.5395 -0.2215
 2563TIP3    H129180   4.274   1.124   2.794 -2.2199  0.9487 -1.1558
 2563TIP3    H229181   4.151   1.099   2.879 -0.9223 -2.8914 -0.2242
 2564TIP3   OH229182   4.647   0.282   0.694  0.1502  0.0054 -0.2057
 2564TIP3    H129183   4.703   0.209   0.667  0.4728  0.6530 -1.3294
 2564TIP3    H229184   4.692   0.319   0.770  0.6736 -0.1732 -0.4193
 2565TIP3   OH229185   3.752   6.508   4.613  0.2391 -0.0031  0.0081
 2565TIP3    H129186   3.741   6.555   4.530 -1.6641 -0.3832 -0.0008
 2565TIP3    H229187   3.759   6.577   4.679  1.5647  0.3001 -0.4259
 2566TIP3   OH229188   2.877   0.558  14.577 -0.2568 -0.3202  0.0306
 2566TIP3    H129189   2.940   0.585  14.644  0.0194  1.6485 -0.9365
 2566TIP3    H229190   2.898   0.613  14.502 -1.8949 -1.0188 -0.9893
 2567TIP3   OH229191   3.128   3.668  13.997 -0.7035 -0.7124 -0.6278
 2567TIP3    H129192   3.055   3.695  14.051 -0.9162 -0.9415 -0.7994
 2567TIP3    H229193   3.088   3.619  13.924 -0.4772  0.1153 -1.3233
 2568TIP3   OH229194   5.314   1.880   4.379  0.3607 -0.2438 -0.2321
 2568TIP3    H129195   5.257   1.852   4.308  0.4419 -0.3058 -0.2737
 2568TIP3    H229196   5.279   1.837   4.456  0.0710  0.0876 -0.1750
 2569TIP3   OH229197   5.344   6.281  13.588 -0.1854  0.0183  0.4805
 2569TIP3    H129198   5.385   6.326  13.515 -1.2837  0.6137  0.2193
 2569TIP3    H229199   5.366   6.334  13.665 -0.8575  0.6052  0.2735
 2570TIP3   OH229200   6.253   2.398   1.924 -0.3424  1.1293  0.5049
 2570TIP3    H129201   6.210   2.410   2.009 -1.0689  1.5553  0.0931
 2570TIP3    H229202   6.187   2.356   1.870  0.9771 -1.6305  0.8668
 2571TIP3   OH229203   5.492   1.332   5.011  1.3429 -0.4272  0.4161
 2571TIP3    H129204   5.560   1.399   5.007  0.2961  0.7297  1.2297
 2571TIP3    H229205   5.426   1.361   4.948 -0.4997  0.9911  2.8002
 2572TIP3   OH229206   1.629   4.406  15.884  0.4163 -0.4284  0.0038
 2572TIP3    H129207   1.699   4.364  15.833  1.0671 -0.2715  0.7532
 2572TIP3    H229208   1.601   4.340  15.946  2.0415  0.4546  1.7732
 2573TIP3   OH229209   4.117   6.785  11.005  0.2567 -0.1143 -0.6263
 2573TIP3    H129210   4.052   6.717  11.020 -2.3061  2.1333 -0.7247
 2573TIP3    H229211   4.151   6.767  10.917 -0.6566 -1.0424 -0.8055
 2574TIP3   OH229212   0.311   3.716   2.739 -0.2236  0.3685 -0.7291
 2574TIP3    H129213   0.303   3.795   2.685 -0.6612 -0.0905 -1.3545
 2574TIP3    H229214   0.226   3.708   2.782  0.3678  1.1527  0.6554
 2575TIP3   OH229215   2.894   4.016  16.059 -0.5242 -0.8497 -0.4165
 2575TIP3    H129216   2.987   4.031  16.072 -0.5065 -0.3538 -1.0596
 2575TIP3    H229217   2.856   4.016  16.147 -0.2835  1.4185 -0.2638
 2576TIP3   OH229218   4.399   6.248   0.786  0.4481 -0.3213  0.5133
 2576TIP3    H129219   4.469   6.286   0.839 -0.8209  0.9583  1.3699
 2576TIP3    H229220   4.441   6.225   0.703  1.4841  2.2919  0.2248
 2577TIP3   OH229221   4.291   1.544   0.920 -0.1742  0.0926 -0.0464
 2577TIP3    H129222   4.334   1.592   0.990  0.7654  0.0947 -0.5973
 2577TIP3    H229223   4.209   1.590   0.904 -1.2300 -0.8901  2.1797
 2578TIP3   OH229224   2.728   3.109  15.944 -0.0884  0.0842  0.7072
 2578TIP3    H129225   2.798   3.061  15.988  0.0159 -0.3190  0.1227
 2578TIP3    H229226   2.768   3.192  15.918 -0.2810  0.5258  1.7559
 2579TIP3   OH229227   6.318   1.729  15.217 -0.2954  0.0347  0.1647
 2579TIP3    H129228   6.387   1.671  15.251  0.1942  0.1156 -0.6635
 2579TIP3    H229229   6.348   1.817  15.239  0.4189  0.1425 -1.1103
 2580TIP3   OH229230   2.246   6.690   3.251  1.0753 -0.3263 -0.2012
 2580TIP3    H129231   2.253   6.776   3.291  0.9717 -0.1128 -0.6300
 2580TIP3    H229232   2.178   6.700   3.184  0.1052 -1.0824  0.6350
 2581TIP3   OH229233   0.965   6.367   4.887  0.5856  0.0086  0.0523
 2581TIP3    H129234   0.883   6.335   4.849  1.1821 -2.4348  0.5969
 2581TIP3    H229235   0.944   6.385   4.978  0.9971 -2.6940  0.7849
 2582TIP3   OH229236   1.637   4.658  14.601  0.6355  0.2208  0.5072
 2582TIP3    H129237   1.647   4.567  14.574 -0.9294  0.2424 -0.2676
 2582TIP3    H229238   1.665   4.660  14.692  0.9371 -0.9798  0.4491
 2583TIP3   OH229239   3.250   4.793   1.622  0.2639  0.4922 -0.2675
 2583TIP3    H129240   3.187   4.844   1.672 -0.2812  0.1866 -0.6372
 2583TIP3    H229241   3.203   4.767   1.543  1.1963  1.2117 -1.0882
 2584TIP3   OH229242   0.215   2.696  16.812  0.0064  0.6830  0.0290
 2584TIP3    H129243   0.273   2.768  16.787  1.5246 -0.8060 -0.9660
 2584TIP3    H229244   0.250   2.620  16.766 -0.5070 -1.0700  2.3363
 2585TIP3   OH229245   0.524   3.567   2.745 -0.5876 -0.4203 -0.1522
 2585TIP3    H129246   0.443   3.617   2.747 -1.2059 -1.4232  0.6194
 2585TIP3    H229247   0.498   3.478   2.724  0.3286 -0.7306 -0.0467
 2586TIP3   OH229248   1.035   1.631  12.900  0.4066  0.1582 -0.0905
 2586TIP3    H129249   1.042   1.708  12.957 -0.1548 -0.5286  0.9358
 2586TIP3    H229250   1.125   1.613  12.873  0.6832  0.5441  0.5360
 2587TIP3   OH229251   1.839   3.219  15.097  0.3014  0.0005  0.2501
 2587TIP3    H129252   1.754   3.257  15.115  0.5141 -0.3690  2.3270
 2587TIP3    H229253   1.828   3.171  15.015 -1.5159 -0.1075  0.5296
 2588TIP3   OH229254   5.457   4.853   5.012  0.0403  0.0567  0.2029
 2588TIP3    H129255   5.548   4.876   5.030 -0.3372  0.3314  2.0414
 2588TIP3    H229256   5.452   4.846   4.917  1.9738  0.0219  0.0590
 2589TIP3   OH229257   4.476   1.644  13.058 -0.5045 -0.3986  0.2379
 2589TIP3    H129258   4.486   1.579  13.128  3.6964  1.0535  1.2492
 2589TIP3    H229259   4.399   1.695  13.084  0.4393 -0.4040  3.4703
 2590TIP3   OH229260   0.026   4.071  16.512 -0.3005  0.2103 -0.7022
 2590TIP3    H129261  -0.001   4.004  16.448 -2.3367  0.2093  0.0809
 2590TIP3    H229262   0.067   4.139  16.460 -1.9925  0.2502 -2.0718
 2591TIP3   OH229263   4.590   4.422   5.194 -0.2476  0.1235  0.0769
 2591TIP3    H129264   4.656   4.461   5.251 -0.1045 -1.5776  1.1395
 2591TIP3    H229265   4.582   4.483   5.121  1.4936  1.0444  0.6131
 2592TIP3   OH229266   4.334   0.444   2.903 -0.1831 -0.1732 -0.1005
 2592TIP3    H129267   4.266   0.413   2.843  1.2672  0.2461 -2.0239
 2592TIP3    H229268   4.309   0.535   2.922 -0.8895 -0.4448  0.3459
 2593TIP3   OH229269   4.012   0.695   0.256 -0.0187  0.0273  0.5815
 2593TIP3    H129270   4.017   0.607   0.295 -0.7615 -0.5438 -0.5538
 2593TIP3    H229271   4.061   0.687   0.174  2.2935  1.4507  1.7100
 2594TIP3   OH229272   4.575   0.103  15.522  0.1747 -0.7104  0.2102
 2594TIP3    H129273   4.639   0.048  15.477 -0.1174 -0.3142 -0.7093
 2594TIP3    H229274   4.555   0.173  15.460 -0.0086  0.0279  1.0760
 2595TIP3   OH229275   4.714   6.532   3.243 -0.3375 -0.2871 -0.6489
 2595TIP3    H129276   4.661   6.468   3.290 -2.4681 -0.6103 -3.2191
 2595TIP3    H229277   4.719   6.607   3.303 -2.7477 -0.7091  0.2139
 2596TIP3   OH229278   2.614   4.052  11.099  0.0888  0.0385  0.5440
 2596TIP3    H129279   2.701   4.041  11.137  0.7047  0.5490 -0.6777
 2596TIP3    H229280   2.601   4.147  11.094 -0.9003 -0.0205  1.4795
 2597TIP3   OH229281   3.108   6.124   3.814 -0.1116  0.3781 -0.3454
 2597TIP3    H129282   3.199   6.101   3.796 -0.1700  1.1288 -1.7179
 2597TIP3    H229283   3.090   6.083   3.899  1.8643  1.2116  0.5595
 2598TIP3   OH229284   3.790   5.418  12.195  0.0831  0.1971 -0.6567
 2598TIP3    H129285   3.817   5.452  12.110 -1.8012 -1.0022 -1.7909
 2598TIP3    H229286   3.801   5.324  12.189  3.1102  0.2064  1.6881
 2599TIP3   OH229287   4.628   1.246   3.265 -0.4436 -0.1006 -0.4555
 2599TIP3    H129288   4.672   1.316   3.217 -0.2388  0.8115  0.9968
 2599TIP3    H229289   4.563   1.291   3.319  0.5998 -0.8406  1.5237
 2600TIP3   OH229290   1.047   1.303   0.842  0.6355 -0.2026  0.0235
 2600TIP3    H129291   1.132   1.324   0.802  0.0714 -0.7982 -1.5449
 2600TIP3    H229292   0.983   1.321   0.774 -0.2992 -2.0625  0.3659
 2601TIP3   OH229293   2.158   2.370   5.328 -0.8424 -0.5970  0.3566
 2601TIP3    H129294   2.244   2.330   5.317 -1.2923 -1.1217 -2.0259
 2601TIP3    H229295   2.125   2.335   5.410  1.5107  0.2850  1.7859
 2602TIP3   OH229296   4.936   6.361   1.933  0.4262 -0.9340  0.1869
 2602TIP3    H129297   4.888   6.430   1.977  2.1713  1.2314 -1.1210
 2602TIP3    H229298   4.891   6.348   1.850  0.8590 -0.3883 -0.1402
 2603TIP3   OH229299   0.519   5.278   2.717 -0.3403 -0.2113  0.1582
 2603TIP3    H129300   0.537   5.282   2.811  1.5040  2.0626 -0.1784
 2603TIP3    H229301   0.424   5.286   2.710 -0.5706 -1.0935  1.8271
 2604TIP3   OH229302   4.496   3.125   5.859 -0.1765 -0.0917  0.5653
 2604TIP3    H129303   4.434   3.140   5.787  2.0305  2.2305 -1.0152
 2604TIP3    H229304   4.464   3.181   5.929 -0.8610 -0.3238  0.4546
 2605TIP3   OH229305   2.652   3.015  16.375 -0.7936 -0.0564 -0.1528
 2605TIP3    H129306   2.573   2.990  16.424 -1.4914  2.6763  0.2909
 2605TIP3    H229307   2.694   3.081  16.430  0.4511  0.3861 -1.5731
 2606TIP3   OH229308   5.928   1.570  14.496  0.0087  0.4790  0.1399
 2606TIP3    H129309   5.839   1.539  14.511 -0.0952  0.8857  0.3877
 2606TIP3    H229310   5.949   1.621  14.574  1.3419 -1.5509  1.1917
 2607TIP3   OH229311   1.529   1.470  12.767 -0.2993  0.2662 -0.0062
 2607TIP3    H129312   1.440   1.450  12.796 -0.3302  1.5004  0.8211
 2607TIP3    H229313   1.569   1.515  12.842  0.5711  0.9489 -0.8584
 2608TIP3   OH229314   3.256   2.597  15.456  0.0720  0.4019 -0.0494
 2608TIP3    H129315   3.175   2.561  15.423 -0.5654  1.5065  0.2535
 2608TIP3    H229316   3.237   2.690  15.472  0.3661  0.0428  3.1435
 2609TIP3   OH229317   0.201   1.058  12.296 -0.1330  0.1041  0.4011
 2609TIP3    H129318   0.146   1.094  12.226  0.2732  0.0178  0.0341
 2609TIP3    H229319   0.150   0.985  12.332 -0.3245  0.1232  0.1719
 2610TIP3   OH229320   4.514   2.349  12.824 -0.6223 -0.3991  0.2771
 2610TIP3    H129321   4.609   2.353  12.813 -0.7646 -1.2724 -1.7740
 2610TIP3    H229322   4.496   2.404  12.900  1.4017  0.6946  0.0249
 2611TIP3   OH229323   4.387   4.136   0.361  0.5792 -0.0171  0.4180
 2611TIP3    H129324   4.294   4.157   0.357  0.0307 -1.7514  2.4750
 2611TIP3    H229325   4.427   4.213   0.401  0.0278  0.6770 -0.3288
 2612TIP3   OH229326   5.785   0.274   0.459  0.0300 -0.3813 -0.3604
 2612TIP3    H129327   5.872   0.313   0.451  0.1130  0.2284  2.4316
 2612TIP3    H229328   5.732   0.322   0.395  1.2151  1.0300 -0.3544
 2613TIP3   OH229329   6.549   3.989   4.516  0.0135  0.0139 -0.8860
 2613TIP3    H129330   6.471   4.045   4.518  0.3783  0.5936 -1.9899
 2613TIP3    H229331   6.518   3.903   4.546 -0.6792  0.6479  0.2626
 2614TIP3   OH229332   6.235   1.066   2.967  0.3366  0.5498 -0.5315
 2614TIP3    H129333   6.152   1.102   2.936 -1.2849 -1.1962  1.3944
 2614TIP3    H229334   6.286   1.142   2.995 -0.6850  1.6504 -1.5627
 2615TIP3   OH229335   4.849   1.399  16.285  0.0554  0.3979  0.3120
 2615TIP3    H129336   4.834   1.424  16.193  0.2305 -0.4069  0.0514
 2615TIP3    H229337   4.928   1.345  16.282 -1.6634 -2.3729  0.4161
 2616TIP3   OH229338   5.921   6.655  12.901 -0.0481 -0.2652  0.5712
 2616TIP3    H129339   5.916   6.587  12.834  1.9850 -0.7507  0.8546
 2616TIP3    H229340   5.837   6.701  12.894 -1.0556 -2.1218 -0.3182
 2617TIP3   OH229341   3.945   0.253  15.170 -0.3926 -0.1372  0.1818
 2617TIP3    H129342   3.857   0.221  15.148 -0.1039 -0.1212 -1.0868
 2617TIP3    H229343   3.975   0.296  15.090  1.0268 -0.7019  0.3902
 2618TIP3   OH229344   6.374   3.489  14.557 -0.0328  0.2801 -0.2506
 2618TIP3    H129345   6.396   3.578  14.584  0.0048 -0.3158  1.7997
 2618TIP3    H229346   6.342   3.499  14.467 -3.0187  2.8195  0.9025
 2619TIP3   OH229347   0.721   0.927  13.569 -0.2797  0.3582  0.1082
 2619TIP3    H129348   0.802   0.895  13.608 -0.8687 -1.3360  0.0120
 2619TIP3    H229349   0.749   0.970  13.488  0.5427  0.0018  0.1910
 2620TIP3   OH229350   6.190   6.131  14.932 -0.1148  0.1562  0.1270
 2620TIP3    H129351   6.248   6.182  14.877  1.0043 -1.0472  0.1312
 2620TIP3    H229352   6.142   6.075  14.871 -0.0352 -0.0372  0.2388
 2621TIP3   OH229353   5.764   3.957   1.864  0.9473 -0.3921  0.1850
 2621TIP3    H129354   5.751   3.907   1.784 -0.5984 -0.6231  0.5344
 2621TIP3    H229355   5.756   3.892   1.934  0.2240  0.1265  0.5959
 2622TIP3   OH229356   5.746   1.036  14.432 -0.4446 -0.2790 -0.4073
 2622TIP3    H129357   5.807   0.965  14.412  0.7126  0.8438 -1.0401
 2622TIP3    H229358   5.740   1.036  14.527  1.3484  0.1849 -0.2539
 2623TIP3   OH229359   5.064   1.812  16.224  0.1575  0.5514  0.2859
 2623TIP3    H129360   5.106   1.789  16.306  2.8210  0.6313 -0.9509
 2623TIP3    H229361   5.110   1.890  16.194 -0.1192  0.0258 -1.6803
 2624TIP3   OH229362   5.932   1.575   3.808  0.3714  0.1193  0.4383
 2624TIP3    H129363   5.945   1.542   3.719 -0.0743  0.4479  0.2470
 2624TIP3    H229364   5.942   1.669   3.800 -1.1409  0.2972  0.4543
 2625TIP3   OH229365   3.613   2.189   4.868 -0.1386 -0.9073  0.3679
 2625TIP3    H129366   3.567   2.269   4.894 -0.9407 -0.6967 -1.5138
 2625TIP3    H229367   3.705   2.216   4.861 -0.2832 -0.3529  0.4922
 2626TIP3   OH229368   4.350   0.062   1.872  0.7956  0.0612 -0.4056
 2626TIP3    H129369   4.314   0.065   1.961  2.0644 -1.1135  0.1758
 2626TIP3    H229370   4.291   0.118   1.821  1.3719  2.7006  1.6117
 2627TIP3   OH229371   1.547   3.767  13.726  0.5559 -0.3747 -0.4036
 2627TIP3    H129372   1.638   3.752  13.748  0.3484 -0.3166  0.5434
 2627TIP3    H229373   1.539   3.739  13.635  0.9661 -2.7349  0.2256
 2628TIP3   OH229374   4.292   1.714   5.377  0.2621  0.6870 -0.6195
 2628TIP3    H129375   4.240   1.767   5.317 -0.8604  1.5847  1.0700
 2628TIP3    H229376   4.231   1.691   5.447  1.6483  0.0815  0.4335
 2629TIP3   OH229377   5.654   6.467   5.777  0.0101  0.2270 -0.0976
 2629TIP3    H129378   5.634   6.467   5.684 -1.4980  1.1885  0.1956
 2629TIP3    H229379   5.698   6.550   5.793  0.9733 -0.2750 -0.0748
 2630TIP3   OH229380   0.025   1.265  17.023 -0.1527  0.4020  0.6120
 2630TIP3    H129381   0.061   1.194  16.969  0.7276  1.2715  0.0196
 2630TIP3    H229382   0.014   1.226  17.110 -1.3361 -0.9454 -0.1106
 2631TIP3   OH229383   1.175   0.582  11.079 -0.0465  0.0774  0.2839
 2631TIP3    H129384   1.224   0.501  11.093  0.2436  0.3208  0.6975
 2631TIP3    H229385   1.237   0.640  11.035 -0.3053  0.0251 -0.1591
 2632TIP3   OH229386   5.505   4.775   6.327  0.1978  0.0023 -0.0345
 2632TIP3    H129387   5.440   4.745   6.392 -1.0111 -0.1309 -1.2496
 2632TIP3    H229388   5.573   4.817   6.379 -1.4668  1.2743  1.2467
 2633TIP3   OH229389   6.098   1.090   2.098  0.1132  0.7355  0.5067
 2633TIP3    H129390   6.163   1.104   2.028 -0.5295 -1.7967 -0.7173
 2633TIP3    H229391   6.142   1.033   2.161 -0.6373 -0.4531 -0.0004
 2634TIP3   OH229392   6.341   0.133  11.457  0.3762  0.2451 -0.4647
 2634TIP3    H129393   6.392   0.213  11.445 -3.5635  3.1095 -0.0329
 2634TIP3    H229394   6.384   0.089  11.531  2.7163  1.8395 -0.7473
 2635TIP3   OH229395   2.987   1.193   0.746  0.2502 -0.0585  0.0506
 2635TIP3    H129396   3.004   1.226   0.834 -1.7178 -1.2874  0.9477
 2635TIP3    H229397   3.075   1.175   0.711  1.1775  2.3074  0.9500
 2636TIP3   OH229398   2.940   2.706  16.052 -0.0128 -0.1630  0.0114
 2636TIP3    H129399   3.021   2.755  16.040 -0.8609  1.1683 -0.5772
 2636TIP3    H229400   2.893   2.754  16.120 -0.6975 -0.3865 -0.2929
 2637TIP3   OH229401   1.673   3.066  13.390 -0.2979  0.0214  0.3337
 2637TIP3    H129402   1.653   3.156  13.413 -0.9043 -0.0991  0.2854
 2637TIP3    H229403   1.598   3.016  13.419  0.1088 -0.4956  0.5075
 2638TIP3   OH229404   0.339   2.008  15.351  0.0688 -0.0001  0.2425
 2638TIP3    H129405   0.344   2.036  15.260 -0.0223 -1.5927 -0.2821
 2638TIP3    H229406   0.428   1.977  15.371  0.2093  0.7802  0.8512
 2639TIP3   OH229407   3.473   4.948  14.594 -0.3194 -0.3677  0.8885
 2639TIP3    H129408   3.525   4.931  14.673  1.6706 -1.3604 -0.5362
 2639TIP3    H229409   3.429   5.031  14.611  0.9024 -0.0239  2.6199
 2640TIP3   OH229410   4.586   0.653  11.181  0.3158  0.2271 -0.8149
 2640TIP3    H129411   4.578   0.728  11.241  1.1532 -0.2024 -0.1503
 2640TIP3    H229412   4.527   0.675  11.108 -2.3221 -0.1191  1.0618
 2641TIP3   OH229413   5.084   0.578   6.090 -0.0517 -0.2041  0.0230
 2641TIP3    H129414   5.142   0.503   6.074 -1.0483 -0.9266 -0.2611
 2641TIP3    H229415   5.133   0.633   6.152  0.4657 -1.3540  0.6657
 2642TIP3   OH229416   5.746   6.612   4.486 -0.4133  0.4391  0.3119
 2642TIP3    H129417   5.825   6.559   4.476 -0.8789 -0.0632 -0.9117
 2642TIP3    H229418   5.763   6.691   4.436  0.0402  1.2109  1.6341
 2643TIP3   OH229419   5.185   2.594   1.867  0.2775  0.4475 -0.5760
 2643TIP3    H129420   5.273   2.633   1.867  1.8522 -2.8237 -0.2013
 2643TIP3    H229421   5.194   2.514   1.816 -3.1143  1.0454 -2.4465
 2644TIP3   OH229422   5.814   5.620   3.634 -0.2871 -0.2975  0.3422
 2644TIP3    H129423   5.780   5.574   3.557 -1.7600  1.3799 -0.0923
 2644TIP3    H229424   5.751   5.691   3.648  1.3399  0.9702  1.5591
 2645TIP3   OH229425   0.393   0.437  16.338 -0.3352  0.6254 -0.5175
 2645TIP3    H129426   0.410   0.519  16.384  1.1720  0.2767 -0.3898
 2645TIP3    H229427   0.372   0.374  16.407 -0.5472  0.6866 -0.5276
 2646TIP3   OH229428   3.278   2.409  16.871  0.1922 -0.5538  0.2396
 2646TIP3    H129429   3.311   2.323  16.897 -0.7828 -0.8246  0.5949
 2646TIP3    H229430   3.199   2.422  16.924 -1.1290 -0.5669 -1.6296
 2647TIP3   OH229431   2.251   4.336   4.181  0.2749 -0.1091 -0.5225
 2647TIP3    H129432   2.223   4.280   4.109 -2.6649  0.1187  0.3095
 2647TIP3    H229433   2.212   4.295   4.259  2.8120  0.0048  0.9242
 2648TIP3   OH229434   4.581   0.123  11.103 -0.0490 -0.1712  0.1743
 2648TIP3    H129435   4.555   0.204  11.059 -0.4457 -1.4521 -2.0942
 2648TIP3    H229436   4.500   0.087  11.138 -0.2504 -0.6245 -0.7137
 2649TIP3   OH229437   5.244   0.294   5.603 -0.9363 -0.2087 -0.3032
 2649TIP3    H129438   5.244   0.385   5.632 -0.5723 -0.6251  1.1041
 2649TIP3    H229439   5.337   0.272   5.591 -0.8917 -0.8611  1.0263
 2650TIP3   OH229440   4.553   4.764   4.535 -0.2388 -0.5582  0.1784
 2650TIP3    H129441   4.572   4.677   4.569 -1.2497 -0.7449  0.3021
 2650TIP3    H229442   4.475   4.751   4.480 -0.2753  0.2352  0.0393
 2651TIP3   OH229443   6.266   5.088   1.277  0.1331  0.2077  0.4469
 2651TIP3    H129444   6.334   5.154   1.283 -0.8146  1.1993  0.5476
 2651TIP3    H229445   6.305   5.009   1.315  2.3557 -0.2191 -2.4111
 2652TIP3   OH229446   1.182   6.725  13.967  0.2858  0.6642  0.6073
 2652TIP3    H129447   1.262   6.755  13.923  0.3929  1.0627  1.0654
 2652TIP3    H229448   1.122   6.703  13.896  1.3117 -1.0900  0.2264
 2653TIP3   OH229449   3.016   5.339   3.085  0.2368  0.2423 -0.4795
 2653TIP3    H129450   3.071   5.319   3.010  2.3428  1.6591  0.5999
 2653TIP3    H229451   3.017   5.259   3.137 -0.1607 -0.3004 -1.2790
 2654TIP3   OH229452   5.340   4.681  11.174  0.1574  0.1019 -0.3047
 2654TIP3    H129453   5.384   4.661  11.091 -0.4612 -0.0891 -0.5940
 2654TIP3    H229454   5.410   4.714  11.231  0.4148  1.2874 -1.2475
 2655TIP3   OH229455   5.234   0.504   3.882  0.0504  0.3958 -0.0962
 2655TIP3    H129456   5.321   0.467   3.897  0.6050  1.7141  0.1131
 2655TIP3    H229457   5.227   0.576   3.945 -1.0486  0.5392 -0.3585
 2656TIP3   OH229458   0.092   2.332   3.191  0.3923  0.0420 -0.6699
 2656TIP3    H129459   0.044   2.352   3.111 -0.4086  1.6165  0.1728
 2656TIP3    H229460   0.181   2.361   3.174  0.1265  0.7622 -0.8453
 2657TIP3   OH229461   0.746   1.187   5.991  0.1352 -0.1258 -0.1006
 2657TIP3    H129462   0.781   1.118   6.048  1.8831  0.1374 -0.7954
 2657TIP3    H229463   0.786   1.267   6.023 -1.5778  0.5378  0.4466
 2658TIP3   OH229464   0.286   3.854  16.212  0.2135  0.7030  0.0304
 2658TIP3    H129465   0.305   3.890  16.298 -0.8112  1.4596 -0.0382
 2658TIP3    H229466   0.194   3.873  16.198  0.1998 -0.0158 -0.9546
 2659TIP3   OH229467   3.822   0.958   1.503  0.5238 -0.4091  0.0412
 2659TIP3    H129468   3.793   0.878   1.546 -0.4962 -1.0757 -1.7783
 2659TIP3    H229469   3.765   1.026   1.538  1.1542 -0.5118  1.3262
 2660TIP3   OH229470   0.704   2.988   3.977 -0.1806 -0.0380  0.3433
 2660TIP3    H129471   0.674   2.963   4.064 -0.7512 -1.3848 -0.2074
 2660TIP3    H229472   0.625   3.017   3.932  0.1459  0.8410  0.3323
 2661TIP3   OH229473   6.146   4.111  16.570  0.7848 -0.3745  0.2577
 2661TIP3    H129474   6.183   4.089  16.656  1.0673  0.7289  0.4255
 2661TIP3    H229475   6.174   4.201  16.554 -1.8043  0.5297  0.3969
 2662TIP3   OH229476   3.714   0.966  16.974 -0.1450  0.0412  0.3495
 2662TIP3    H129477   3.685   0.923  16.894 -0.3581 -0.4294  0.6783
 2662TIP3    H229478   3.642   1.024  16.998  0.5403  1.3694 -0.6434
 2663TIP3   OH229479   1.744   6.408   3.513  0.3403  0.2625 -0.0946
 2663TIP3    H129480   1.741   6.343   3.583  2.3499 -1.1464 -1.1912
 2663TIP3    H229481   1.695   6.367   3.441  0.0546  0.7746 -0.1958
 2664TIP3   OH229482   2.436   4.967  13.458 -0.1100 -0.3981  0.3258
 2664TIP3    H129483   2.373   5.003  13.521  0.9422 -0.5962  1.5139
 2664TIP3    H229484   2.478   4.895  13.505  1.6540  0.3038 -0.1172
 2665TIP3   OH229485   4.235   4.166   4.566 -0.8897  0.3919  0.1300
 2665TIP3    H129486   4.171   4.098   4.545 -0.0416 -0.1207 -0.8719
 2665TIP3    H229487   4.234   4.171   4.661 -0.9095 -1.1076  0.2367
 2666TIP3   OH229488   3.004   6.505  11.783 -0.4109 -0.1670  0.1026
 2666TIP3    H129489   2.953   6.479  11.706 -0.9419  1.0860  0.0008
 2666TIP3    H229490   3.073   6.439  11.789 -1.0496 -0.9510 -0.7528
 2667TIP3   OH229491   5.368   4.860   6.101  0.0413  0.6536 -0.1654
 2667TIP3    H129492   5.278   4.855   6.134  0.2625  2.7096  0.9211
 2667TIP3    H229493   5.422   4.833   6.176  0.3867  1.3752 -0.1487
 2668TIP3   OH229494   2.366   5.197   2.910  0.7777 -0.5545  0.0351
 2668TIP3    H129495   2.429   5.228   2.975 -1.3795  0.8194  1.6058
 2668TIP3    H229496   2.382   5.251   2.833  0.0384  1.4708  1.2295
 2669TIP3   OH229497   3.011   2.837  10.784  0.5277 -0.0946 -0.3363
 2669TIP3    H129498   2.967   2.918  10.809  0.0323 -0.8241  1.3005
 2669TIP3    H229499   2.974   2.814  10.699 -0.3903  0.6496 -0.1451
 2670TIP3   OH229500   4.520   6.127  13.190 -0.0968  0.1363  0.3895
 2670TIP3    H129501   4.546   6.093  13.105 -1.0778  0.2577  0.0283
 2670TIP3    H229502   4.426   6.142  13.183  0.0095  1.3241  1.0908
 2671TIP3   OH229503   5.104   4.706  15.627  0.3504  0.3991  0.3570
 2671TIP3    H129504   5.127   4.647  15.555  0.7964  0.0802  0.7575
 2671TIP3    H229505   5.170   4.689  15.694  0.7283  1.6263  0.3295
 2672TIP3   OH229506   2.806   5.037  11.360 -0.6408 -0.1287  0.2645
 2672TIP3    H129507   2.865   5.107  11.386 -0.1233 -1.1214  1.9426
 2672TIP3    H229508   2.852   4.957  11.386 -1.1571 -1.1230 -1.6869
 2673TIP3   OH229509   0.490   2.699   2.577  0.2244 -0.4839  0.2184
 2673TIP3    H129510   0.504   2.791   2.554  1.3475 -0.5690  0.5015
 2673TIP3    H229511   0.443   2.663   2.502  1.0856 -0.0152 -0.5809
 2674TIP3   OH229512   5.028   5.208   0.656 -0.4541  0.1644  0.1183
 2674TIP3    H129513   5.099   5.144   0.661 -0.6467 -0.0098  0.6640
 2674TIP3    H229514   5.048   5.271   0.725 -0.7404  0.2063  0.1646
 2675TIP3   OH229515   6.637   5.878  13.528  0.1923  0.0077  0.1171
 2675TIP3    H129516   6.664   5.791  13.499  0.4581  0.3764 -0.7905
 2675TIP3    H229517   6.547   5.887  13.498 -0.0157 -0.1605  0.6890
 2676TIP3   OH229518   4.888   3.534   3.112  0.1929  0.5025 -0.4405
 2676TIP3    H129519   4.949   3.549   3.184 -0.3438 -0.0439  0.1480
 2676TIP3    H229520   4.802   3.549   3.150 -0.0286  2.5149 -1.5828
 2677TIP3   OH229521   1.303   6.081  12.438 -0.3072  0.4532  0.2194
 2677TIP3    H129522   1.397   6.096  12.449 -0.3007  1.1326 -0.6606
 2677TIP3    H229523   1.262   6.156  12.482 -0.4215  0.4757  0.0737
 2678TIP3   OH229524   4.969   1.965   2.928 -0.3072 -0.1807 -0.0745
 2678TIP3    H129525   4.904   2.007   2.984 -2.0194 -2.1270 -0.4592
 2678TIP3    H229526   5.031   1.926   2.989  0.2103  1.1959  0.3161
 2679TIP3   OH229527   1.127   6.823   1.151  0.3340 -0.2398  0.6112
 2679TIP3    H129528   1.221   6.805   1.160  0.3484 -0.2252  0.4842
 2679TIP3    H229529   1.094   6.753   1.096  0.3583  0.0252  0.2562
 2680TIP3   OH229530   4.944   4.996   4.310 -0.2128  0.3124 -0.8615
 2680TIP3    H129531   4.851   4.975   4.316  0.2995 -1.8108  1.8062
 2680TIP3    H229532   4.950   5.087   4.340 -1.3542  0.2176 -0.2840
 2681TIP3   OH229533   5.340   4.665   6.506  0.0263 -0.0687  0.1294
 2681TIP3    H129534   5.370   4.594   6.449  2.5619  0.3802  0.7710
 2681TIP3    H229535   5.325   4.624   6.591  0.3612 -0.0690  0.1934
 2682TIP3   OH229536   5.925   1.120   6.544 -0.1591  0.0930 -0.5019
 2682TIP3    H129537   5.840   1.158   6.566 -0.3946  1.0176 -2.7877
 2682TIP3    H229538   5.920   1.030   6.576 -1.5966  0.4344  0.3113
 2683TIP3   OH229539   2.211   6.293   3.263  0.5075  0.3545  0.0908
 2683TIP3    H129540   2.255   6.365   3.308  0.3442  1.6696 -1.7479
 2683TIP3    H229541   2.240   6.300   3.172 -0.9941 -0.7500 -0.5150
 2684TIP3   OH229542   4.341   2.970   0.415 -0.0329  0.1071 -0.3126
 2684TIP3    H129543   4.423   3.003   0.379 -0.6263  0.3550 -1.4677
 2684TIP3    H229544   4.367   2.923   0.495  0.9777  2.0582  0.5636
 2685TIP3   OH229545   6.319   3.681  17.003  0.3371  0.0467  0.5255
 2685TIP3    H129546   6.392   3.679  16.941 -0.3449  2.6253 -0.5009
 2685TIP3    H229547   6.361   3.673  17.089  1.5141 -1.2962 -0.1277
 2686TIP3   OH229548   1.127   0.247   3.392 -0.2190  0.5671 -0.2407
 2686TIP3    H129549   1.049   0.302   3.394 -1.8603 -1.6334 -0.3892
 2686TIP3    H229550   1.138   0.223   3.300  1.1937  1.4986 -0.3637
 2687TIP3   OH229551   6.743   5.752  11.784  0.4102  0.1900  0.4111
 2687TIP3    H129552   6.722   5.841  11.757  0.7746 -0.0927 -0.8952
 2687TIP3    H229553   6.808   5.762  11.853  1.2315  0.9357 -0.4437
 2688TIP3   OH229554   4.837   1.103  16.065 -0.0677 -0.0558 -0.4744
 2688TIP3    H129555   4.899   1.112  16.138 -0.7924 -1.3947  0.3312
 2688TIP3    H229556   4.822   1.193  16.036  0.4806  0.4776  0.8196
 2689TIP3   OH229557   1.715   1.961   3.445  0.1004  0.4286  0.0774
 2689TIP3    H129558   1.657   1.941   3.371  1.3810  0.0897 -0.8918
 2689TIP3    H229559   1.657   1.994   3.513 -1.0377  1.6624 -1.4061
 2690TIP3   OH229560   2.789   0.550   0.060 -0.2096 -0.2410 -0.4529
 2690TIP3    H129561   2.751   0.588   0.140  1.0752 -1.5688  0.8453
 2690TIP3    H229562   2.713   0.525   0.008 -1.0815  0.9592  0.1737
 2691TIP3   OH229563   5.940   0.374  12.895 -0.1449 -0.3975 -0.9006
 2691TIP3    H129564   5.964   0.401  12.807 -0.2301 -0.3628 -0.9119
 2691TIP3    H229565   5.946   0.278  12.893 -0.1022 -0.3942 -0.9310
 2692TIP3   OH229566   0.919   1.880  13.761 -0.2015  0.4362  0.4143
 2692TIP3    H129567   0.833   1.877  13.720 -0.2363  1.3946  0.3864
 2692TIP3    H229568   0.925   1.799  13.811 -0.5116 -0.3314 -0.7674
 2693TIP3   OH229569   2.761   3.699  15.066 -0.2638  0.3844  0.0486
 2693TIP3    H129570   2.784   3.606  15.069 -0.8534  0.2485  1.9103
 2693TIP3    H229571   2.767   3.728  15.157 -3.1271  1.3812  0.0451
 2694TIP3   OH229572   4.898   1.255   0.270  0.2086  0.6900  0.0068
 2694TIP3    H129573   4.913   1.302   0.188 -0.6312 -1.9301 -1.7770
 2694TIP3    H229574   4.890   1.324   0.336  1.7737  2.8710 -1.9184
 2695TIP3   OH229575   4.189   4.991  10.224 -0.2440 -0.1529  0.3921
 2695TIP3    H129576   4.251   5.060  10.201 -0.8886  0.7753  1.3303
 2695TIP3    H229577   4.141   5.026  10.300 -2.6680 -0.3452 -0.9446
 2696TIP3   OH229578   5.746   2.311   3.248  0.1632 -0.2580  0.1013
 2696TIP3    H129579   5.809   2.274   3.187  0.2844  3.8715 -2.7390
 2696TIP3    H229580   5.792   2.314   3.332  2.6779 -0.0336 -1.1879
 2697TIP3   OH229581   1.459   0.478   1.109 -0.4480  0.0893  0.4122
 2697TIP3    H129582   1.494   0.542   1.047 -1.0856  0.7233  0.6852
 2697TIP3    H229583   1.486   0.512   1.195  0.9656 -1.1063  0.4780
 2698TIP3   OH229584   3.285   3.996   3.101 -0.1751  0.0588 -0.2112
 2698TIP3    H129585   3.265   3.913   3.059  0.9021 -0.9041  1.0900
 2698TIP3    H229586   3.370   3.982   3.143 -0.4635  1.4772  0.9395
 2699TIP3   OH229587   2.198   1.759  15.067  0.5110  0.6213 -0.0016
 2699TIP3    H129588   2.276   1.802  15.100  1.2250 -1.1390  0.7515
 2699TIP3    H229589   2.192   1.785  14.975  3.1382 -0.7556 -0.6398
 2700TIP3   OH229590   5.058   5.063   0.090 -0.5364  0.1285 -0.1020
 2700TIP3    H129591   4.998   4.999   0.052 -0.1560  0.4474 -1.2723
 2700TIP3    H229592   5.119   5.084   0.020 -0.8190  1.9964  0.1574
 2701TIP3   OH229593   3.370   2.126   0.151 -0.3775 -0.4300 -0.1092
 2701TIP3    H129594   3.380   2.071   0.073 -0.2810  0.4429 -0.7323
 2701TIP3    H229595   3.410   2.076   0.222 -0.3290 -1.1719 -0.6526
 2702TIP3   OH229596   4.156   1.321  12.574 -0.1931  0.1699  0.1523
 2702TIP3    H129597   4.169   1.397  12.631 -2.2296  0.0860  0.8026
 2702TIP3    H229598   4.089   1.348  12.512  0.6368 -0.3847 -1.0177
 2703TIP3   OH229599   6.516   2.203   5.385  0.6614  0.0523 -0.0051
 2703TIP3    H129600   6.571   2.274   5.419  0.6001  0.2836 -0.3916
 2703TIP3    H229601   6.543   2.127   5.436 -0.1738  0.6144  1.3431
 2704TIP3   OH229602   3.269   5.035  14.940 -0.4420  0.0175 -0.1618
 2704TIP3    H129603   3.338   5.035  14.874  0.7081 -0.3988  0.9966
 2704TIP3    H229604   3.224   5.119  14.928  2.3511  1.8481  1.1329
 2705TIP3   OH229605   1.955   6.099   6.449 -0.5862  0.5066 -0.2814
 2705TIP3    H129606   1.867   6.072   6.475 -0.8168  0.2057 -1.3358
 2705TIP3    H229607   1.966   6.185   6.490 -0.2327 -0.6454  2.2462
 2706TIP3   OH229608   0.225   1.895   5.044  0.5604  0.1065  0.0260
 2706TIP3    H129609   0.247   1.817   5.096 -0.6351 -0.9887 -1.0338
 2706TIP3    H229610   0.130   1.902   5.050  0.0949 -1.1847 -3.4324
 2707TIP3   OH229611   5.095   2.757  11.222  0.0536  0.1383  0.5752
 2707TIP3    H129612   5.100   2.754  11.126  2.3956  2.3700  0.5031
 2707TIP3    H229613   5.110   2.667  11.250 -0.0888 -0.4570 -1.1152
 2708TIP3   OH229614   6.101   5.699   0.011  0.0347 -0.0914 -0.0920
 2708TIP3    H129615   6.178   5.750   0.035  0.3966 -0.3954 -0.5977
 2708TIP3    H229616   6.128   5.608   0.022 -0.0562 -0.2172 -0.8545
 2709TIP3   OH229617   3.458   0.622  11.757  0.1307  0.1709  0.3041
 2709TIP3    H129618   3.407   0.631  11.837 -0.2715 -0.1161  0.0850
 2709TIP3    H229619   3.437   0.700  11.706 -1.2187 -0.6174 -0.4058
 2710TIP3   OH229620   2.704   6.476   5.062 -1.3271  0.1815 -0.0401
 2710TIP3    H129621   2.618   6.494   5.026 -2.5300 -2.2427  1.3533
 2710TIP3    H229622   2.703   6.516   5.148 -0.5265  1.2697 -0.5173
 2711TIP3   OH229623   0.468   1.460  12.783  0.6493  0.2195 -0.3736
 2711TIP3    H129624   0.543   1.401  12.787 -0.0978 -0.8383 -1.4306
 2711TIP3    H229625   0.436   1.464  12.873  1.2497 -0.2682 -0.1281
 2712TIP3   OH229626   5.161   5.011  13.397 -0.3211  0.2223  0.3098
 2712TIP3    H129627   5.075   5.052  13.405 -1.3072 -1.5782 -0.3802
 2712TIP3    H229628   5.155   4.959  13.317  1.3445 -0.1395  0.3808
 2713TIP3   OH229629   1.899   3.237   4.869  0.3702 -0.5102 -0.1351
 2713TIP3    H129630   1.803   3.228   4.875  0.4828 -0.8823  1.6857
 2713TIP3    H229631   1.924   3.174   4.801 -0.7564  0.3087 -1.3571
 2714TIP3   OH229632   5.821   3.553   3.107  0.4900  0.3369 -0.2362
 2714TIP3    H129633   5.880   3.596   3.045 -1.8575  2.4193 -1.1876
 2714TIP3    H229634   5.733   3.573   3.075 -0.8127 -0.3290  2.5961
 2715TIP3   OH229635   5.405   6.441   0.012  0.3991  0.1359  0.2838
 2715TIP3    H129636   5.474   6.380   0.039 -0.2162 -0.2658  1.0050
 2715TIP3    H229637   5.406   6.439  -0.084  0.2341 -1.2067  0.2924
 2716TIP3   OH229638   6.132   3.407   5.246  0.8921 -0.0180 -0.0870
 2716TIP3    H129639   6.139   3.502   5.251  1.5865 -0.0469 -0.3521
 2716TIP3    H229640   6.045   3.387   5.280  1.2244  0.6106  1.1912
 2717TIP3   OH229641   5.015   3.429   4.366 -0.2908  0.5503 -0.3958
 2717TIP3    H129642   5.074   3.400   4.435  0.5561  1.7657 -0.5836
 2717TIP3    H229643   5.000   3.350   4.313  1.0347  0.1806 -0.2571
 2718TIP3   OH229644   2.264   4.281   1.839  0.0630  0.3736  0.2128
 2718TIP3    H129645   2.318   4.252   1.913  0.7537 -0.6176 -0.6426
 2718TIP3    H229646   2.218   4.203   1.810  0.1999  0.6260 -0.7299
 2719TIP3   OH229647   1.304   5.982  14.286 -0.1372  0.4442  0.0076
 2719TIP3    H129648   1.362   6.052  14.314 -1.5309  1.9755 -0.7826
 2719TIP3    H229649   1.238   5.977  14.355  0.8042 -1.2200  0.8536
 2720TIP3   OH229650   2.391   5.395  13.985 -0.5744  0.2606  0.1768
 2720TIP3    H129651   2.415   5.345  14.063 -0.7626 -1.3722 -0.7598
 2720TIP3    H229652   2.474   5.408  13.939 -0.5939  0.3551  0.1687
 2721TIP3   OH229653   3.823   5.317  14.456  0.0702  0.0397 -0.2323
 2721TIP3    H129654   3.823   5.324  14.360 -1.2298  1.1683 -0.1824
 2721TIP3    H229655   3.775   5.236  14.474 -2.1762  1.2189 -0.5294
 2722TIP3   OH229656   4.578   2.724   2.399  0.3768  0.1871  0.1555
 2722TIP3    H129657   4.517   2.688   2.463  0.2661  1.2180  0.6393
 2722TIP3    H229658   4.592   2.652   2.336 -1.2821 -0.0786  0.0596
 2723TIP3   OH229659   3.413   3.892  10.874 -0.3886  0.1777  0.0347
 2723TIP3    H129660   3.380   3.807  10.904  0.5943 -0.7646 -1.4353
 2723TIP3    H229661   3.366   3.909  10.793  0.7664  0.0955 -0.6780
 2724TIP3   OH229662   0.460   2.329   4.843 -0.2953 -0.8622 -0.0387
 2724TIP3    H129663   0.395   2.394   4.818  0.0490 -0.0404  1.1245
 2724TIP3    H229664   0.491   2.293   4.760 -1.7691 -0.8337 -0.6328
 2725TIP3   OH229665   4.099   3.271  13.818 -0.5183 -0.1750  0.4179
 2725TIP3    H129666   4.038   3.202  13.843 -0.4890 -0.2269  0.3482
 2725TIP3    H229667   4.097   3.333  13.891  0.1264 -0.6994  0.8916
 2726TIP3   OH229668   4.802   5.405   1.312  0.9310  0.5677  0.6404
 2726TIP3    H129669   4.867   5.353   1.264 -1.9178 -0.7782 -2.0681
 2726TIP3    H229670   4.755   5.454   1.245 -0.7226  1.6862  2.4959
 2727TIP3   OH229671   0.483   2.960  13.650  0.3279 -0.4283 -0.1152
 2727TIP3    H129672   0.533   2.894  13.697  0.8266 -0.9809 -1.3686
 2727TIP3    H229673   0.535   2.979  13.572 -0.6031  0.2420 -0.5994
 2728TIP3   OH229674   3.676   6.174  12.552 -0.6389 -0.4271  0.6199
 2728TIP3    H129675   3.603   6.119  12.525  1.0334 -3.5220  1.8800
 2728TIP3    H229676   3.748   6.147  12.495  0.2744  0.4288  1.3387
 2729TIP3   OH229677   3.766   0.025  10.599 -0.1597 -0.3558  0.0318
 2729TIP3    H129678   3.772   0.097  10.535 -0.9804 -0.3984 -0.1108
 2729TIP3    H229679   3.724   0.065  10.675  0.6729 -0.3450  0.4959
 2730TIP3   OH229680   6.822   6.431  11.411 -0.0233  0.2657  0.9692
 2730TIP3    H129681   6.746   6.376  11.390  0.5184  0.0143 -0.4235
 2730TIP3    H229682   6.794   6.520  11.387 -0.5137  0.4640  2.2038
 2731TIP3   OH229683   3.945   5.657  10.095  0.3479  0.0684 -0.4479
 2731TIP3    H129684   3.881   5.587  10.093  0.2783  0.1240 -0.2486
 2731TIP3    H229685   3.897   5.734  10.064  0.5836 -0.0917 -1.2356
 2732TIP3   OH229686   4.433   0.421  13.316 -0.4634 -0.5540  0.9846
 2732TIP3    H129687   4.469   0.472  13.244  0.0299  1.9698  2.8851
 2732TIP3    H229688   4.343   0.403  13.290 -0.0811 -0.3739 -0.5681
 2733TIP3   OH229689   6.560   6.815  16.298 -0.0475 -0.1331  0.6896
 2733TIP3    H129690   6.594   6.898  16.264 -1.3872 -0.4134 -1.5161
 2733TIP3    H229691   6.634   6.756  16.297  0.3459  0.3593 -0.1707
 2734TIP3   OH229692   2.023   0.650   4.820 -0.7464  0.1086  0.1432
 2734TIP3    H129693   1.968   0.656   4.742  1.3124 -0.6336 -1.4752
 2734TIP3    H229694   2.108   0.621   4.787 -0.0642 -1.2624  2.8192
 2735TIP3   OH229695   3.972   4.309  11.269 -0.1626  0.5979  0.5924
 2735TIP3    H129696   3.972   4.245  11.198 -1.1957  1.9273 -0.6723
 2735TIP3    H229697   3.958   4.257  11.348  0.6568 -0.8853 -0.1920
 2736TIP3   OH229698   5.347   5.173  14.271  0.1509  0.0100  0.2330
 2736TIP3    H129699   5.324   5.082  14.253  1.2304  0.1111 -2.0155
 2736TIP3    H229700   5.323   5.186  14.362 -0.6848 -2.3130  0.4158
 2737TIP3   OH229701   0.366   5.527  15.938  0.9141  0.2459  0.1427
 2737TIP3    H129702   0.418   5.514  15.858  1.1806  0.5047  0.2738
 2737TIP3    H229703   0.413   5.595  15.986  1.4012 -0.7473  1.0925
 2738TIP3   OH229704   0.103   6.326  14.250  0.2456  0.1409  0.1477
 2738TIP3    H129705   0.144   6.354  14.332 -0.5660  0.4268  0.4691
 2738TIP3    H229706   0.092   6.407  14.200 -1.3078  0.3184  0.7121
 2739TIP3   OH229707   5.849   3.009  13.552 -0.4168 -0.5017  0.0250
 2739TIP3    H129708   5.894   3.048  13.626 -0.9208  1.5706 -0.6792
 2739TIP3    H229709   5.915   3.006  13.482 -0.3455 -1.0451  0.1144
 2740TIP3   OH229710   5.011   2.143   3.184 -0.3742  0.6267  0.0817
 2740TIP3    H129711   5.087   2.086   3.171 -1.0941 -0.5714  0.9144
 2740TIP3    H229712   5.035   2.198   3.258  0.6006  1.9570 -1.1544
 2741TIP3   OH229713   4.280   2.930   5.711  0.1086 -0.2492 -0.1255
 2741TIP3    H129714   4.265   3.025   5.709  2.6324  0.2210 -0.4423
 2741TIP3    H229715   4.293   2.911   5.804 -2.5709 -0.7541  0.2157
 2742TIP3   OH229716   1.287   5.948  15.890  0.2898  0.4309  0.2228
 2742TIP3    H129717   1.348   6.011  15.850 -0.6122  0.4791 -1.1569
 2742TIP3    H229718   1.250   5.994  15.965  0.6947  1.0216  0.0680
 2743TIP3   OH229719   1.272   1.171   4.761 -0.0943 -0.3417 -0.3141
 2743TIP3    H129720   1.298   1.171   4.853 -1.2421  0.1778  0.0234
 2743TIP3    H229721   1.277   1.263   4.735  1.3386 -0.6135 -1.1265
 2744TIP3   OH229722   3.183   2.201  14.734  0.5228  0.3816  0.2375
 2744TIP3    H129723   3.156   2.121  14.780  0.2992 -0.1551 -0.7957
 2744TIP3    H229724   3.279   2.201  14.741  0.5473 -0.1496 -0.0192
 2745TIP3   OH229725   3.125   1.926  14.782 -0.2873  0.0598 -0.8461
 2745TIP3    H129726   3.112   1.836  14.753  0.8434 -0.3068 -0.2908
 2745TIP3    H229727   3.197   1.921  14.845 -0.8895  1.2103 -0.0177
 2746TIP3   OH229728   2.301   2.396   2.742 -0.6564 -0.2144  0.3187
 2746TIP3    H129729   2.262   2.368   2.660 -0.0146 -1.1667  0.3225
 2746TIP3    H229730   2.236   2.374   2.809 -1.3951  1.0175  0.0459
 2747TIP3   OH229731   0.007   4.710  11.375 -0.5817 -0.0550  0.6754
 2747TIP3    H129732   0.071   4.723  11.305 -0.4722 -1.4492  0.5074
 2747TIP3    H229733   0.044   4.755  11.450  1.2420 -1.8940  0.9492
 2748TIP3   OH229734   4.789   2.149   4.264 -0.0176 -0.3894  0.7653
 2748TIP3    H129735   4.765   2.236   4.296  1.1548  0.2253  0.0307
 2748TIP3    H229736   4.788   2.094   4.342  0.0024  0.4591  1.3844
 2749TIP3   OH229737   0.822   6.533   1.629  0.5408  0.4210 -0.4160
 2749TIP3    H129738   0.870   6.562   1.551 -0.6003  0.5188 -1.0990
 2749TIP3    H229739   0.861   6.448   1.651 -0.6857 -0.7841 -2.5460
 2750TIP3   OH229740   2.811   5.672   0.233 -0.0405  0.4585 -0.5229
 2750TIP3    H129741   2.837   5.606   0.297 -0.2148  1.2762  0.4290
 2750TIP3    H229742   2.832   5.756   0.276 -0.4272  1.0296 -1.4227
 2751TIP3   OH229743   2.263   2.710   4.740 -0.3303  0.1184 -0.3321
 2751TIP3    H129744   2.252   2.796   4.702  1.7533  0.9860  0.8564
 2751TIP3    H229745   2.266   2.725   4.835 -0.3992 -1.3055 -0.0689
 2752TIP3   OH229746   0.422   6.125  16.930 -0.1125  0.3525  0.3996
 2752TIP3    H129747   0.340   6.094  16.890  0.1340  0.5424 -0.2625
 2752TIP3    H229748   0.452   6.051  16.984  0.8164 -0.8587 -1.6706
 2753TIP3   OH229749   0.329   2.771  13.271  0.2213  0.4388  0.6734
 2753TIP3    H129750   0.320   2.697  13.331 -0.1061 -0.2699 -0.2182
 2753TIP3    H229751   0.271   2.749  13.198  2.2122  0.1911 -0.9290
 2754TIP3   OH229752   6.168   3.133  12.564  0.1483  0.1401  0.0617
 2754TIP3    H129753   6.159   3.106  12.472 -2.1055 -1.4744  0.6679
 2754TIP3    H229754   6.116   3.213  12.570 -1.6602 -0.9875  0.3355
 2755TIP3   OH229755   0.558   4.716   5.773  0.1207  0.6319  0.2465
 2755TIP3    H129756   0.652   4.727   5.763  0.3173 -0.4189  0.8717
 2755TIP3    H229757   0.524   4.727   5.684  0.6344  2.5177  0.2251
 2756TIP3   OH229758   5.781   4.880  13.537 -0.3683  0.1398 -0.3109
 2756TIP3    H129759   5.811   4.795  13.505  0.5514  0.2220  0.2734
 2756TIP3    H229760   5.824   4.889  13.622 -0.4311  1.1992 -0.3810
 2757TIP3   OH229761   0.419   4.727  12.328  0.2553  1.0059  0.3289
 2757TIP3    H129762   0.387   4.704  12.416  2.0700  0.8683  0.9934
 2757TIP3    H229763   0.412   4.823  12.326  0.2823  1.0181  0.6582
 2758TIP3   OH229764   0.283   1.797  13.966  0.0920 -0.0411 -0.0509
 2758TIP3    H129765   0.339   1.760  14.034  1.1704  0.5164 -0.6245
 2758TIP3    H229766   0.300   1.891  13.969 -0.5118  0.0911 -0.5164
 2759TIP3   OH229767   2.365   0.145  11.515  0.1405  0.2197 -0.1969
 2759TIP3    H129768   2.325   0.159  11.429 -2.5268 -1.5416  0.6458
 2759TIP3    H229769   2.291   0.137  11.575  1.8764  3.3549  2.7296
 2760TIP3   OH229770   0.960   2.754  14.027  0.1544 -0.7792  0.2271
 2760TIP3    H129771   1.036   2.739  14.083  0.8226  0.7766 -0.2073
 2760TIP3    H229772   0.953   2.673  13.975  0.9058 -1.3377  0.9575
 2761TIP3   OH229773   4.625   0.119  14.223  0.2491 -0.1582 -0.0941
 2761TIP3    H129774   4.703   0.065  14.235  0.1868  0.1271  2.1291
 2761TIP3    H229775   4.590   0.094  14.137  3.2089  0.2997 -1.5320
 2762TIP3   OH229776   1.014   2.043  14.284 -0.5480  0.2008 -0.3290
 2762TIP3    H129777   1.016   2.074  14.374  1.5056  0.8242 -0.5408
 2762TIP3    H229778   1.001   1.948  14.292 -1.8861  0.4321  0.5250
 2763TIP3   OH229779   0.248   4.801  16.848 -0.2113 -0.1272  0.1535
 2763TIP3    H129780   0.304   4.779  16.923 -1.0444  1.6106  1.3680
 2763TIP3    H229781   0.190   4.726  16.838  1.1092 -1.1763  0.0232
 2764TIP3   OH229782   4.540   0.978  11.754  0.2627 -0.2749  0.5885
 2764TIP3    H129783   4.461   0.995  11.805  1.3280  1.3728  1.7998
 2764TIP3    H229784   4.605   0.951  11.819  0.7454 -1.5445 -0.3779
 2765TIP3   OH229785   6.449   3.701   3.955  0.3101  0.1491  0.4533
 2765TIP3    H129786   6.484   3.641   3.889 -0.3253  2.6584 -2.3829
 2765TIP3    H229787   6.521   3.762   3.973 -0.1377  0.6465  0.5847
 2766TIP3   OH229788   0.734   0.743  12.828 -0.6025  0.5982 -0.2386
 2766TIP3    H129789   0.744   0.648  12.825 -2.0988  0.4250 -0.2745
 2766TIP3    H229790   0.660   0.762  12.771  0.0493  1.8558 -0.7041
 2767TIP3   OH229791   4.784   2.222  13.008  0.6620  0.3963  0.4223
 2767TIP3    H129792   4.799   2.298  12.952 -0.7839  1.3325  1.2297
 2767TIP3    H229793   4.845   2.232  13.081 -0.8175  1.9050  1.5394
 2768TIP3   OH229794   2.141   2.764  13.037  0.0796 -0.6347  0.0897
 2768TIP3    H129795   2.165   2.674  13.017 -0.6800 -0.4757 -1.7745
 2768TIP3    H229796   2.102   2.797  12.956 -3.0075  0.2442  1.7541
 2769TIP3   OH229797   6.505   5.469   2.791  0.2275  0.1438 -0.1392
 2769TIP3    H129798   6.584   5.478   2.738 -1.8621  2.1135 -3.2760
 2769TIP3    H229799   6.447   5.413   2.738 -2.0822  2.4503 -0.2370
 2770TIP3   OH229800   1.769   2.044  15.737 -0.1334 -0.2854  0.3942
 2770TIP3    H129801   1.725   2.125  15.762  0.1877 -0.0953  0.3466
 2770TIP3    H229802   1.796   2.058  15.647 -0.3386 -0.5618  0.2875
 2771TIP3   OH229803   2.436   3.193  10.970  0.0511 -0.6246 -0.0180
 2771TIP3    H129804   2.459   3.196  10.877  1.9915 -1.0404  0.3986
 2771TIP3    H229805   2.424   3.100  10.989 -4.6464 -0.3952 -0.7089
 2772TIP3   OH229806   2.506   3.288  11.720  0.0896  0.2373  0.2376
 2772TIP3    H129807   2.482   3.353  11.654  0.2170 -0.3585 -0.3948
 2772TIP3    H229808   2.525   3.209  11.671 -0.6076 -0.4536  1.0482
 2773TIP3   OH229809   3.493   1.888  17.096 -0.0467  0.2413  0.1971
 2773TIP3    H129810   3.530   1.830  17.029  0.3028  0.3856  0.2685
 2773TIP3    H229811   3.399   1.888  17.077  0.1011  0.6129 -0.5593
 2774TIP3   OH229812   6.774   1.856  14.228 -0.0665 -0.3433 -0.4631
 2774TIP3    H129813   6.840   1.891  14.289 -1.3268  1.5060 -0.0535
 2774TIP3    H229814   6.747   1.932  14.177 -1.9651 -1.0105 -0.5163
 2775TIP3   OH229815   0.991   1.267   5.526  0.7001  0.0098 -0.0946
 2775TIP3    H129816   1.085   1.277   5.516  1.2335 -2.5374  1.2641
 2775TIP3    H229817   0.979   1.242   5.618 -1.1842 -0.7026 -0.4716
 2776TIP3   OH229818   2.639   6.673  15.911 -0.4292  0.7247  0.3828
 2776TIP3    H129819   2.597   6.754  15.880 -0.4558  1.4655  2.2307
 2776TIP3    H229820   2.569   6.608  15.911 -0.2627  0.4579 -1.7571
 2777TIP3   OH229821   1.023   2.847   5.389 -0.3370  0.3333  0.2368
 2777TIP3    H129822   1.089   2.795   5.435 -0.1807  0.0987 -0.2568
 2777TIP3    H229823   1.045   2.840   5.297 -2.4006 -1.6943 -0.1870
 2778TIP3   OH229824   0.668   3.266   2.280 -0.1636  0.3869  0.3086
 2778TIP3    H129825   0.607   3.304   2.343 -2.0420  0.0811 -1.2172
 2778TIP3    H229826   0.646   3.309   2.197  2.8659  1.4736 -0.0173
 2779TIP3   OH229827   4.458   6.499   4.829  0.2766 -0.4962  0.6119
 2779TIP3    H129828   4.552   6.500   4.816  0.1646 -0.1302 -0.2099
 2779TIP3    H229829   4.437   6.406   4.843  0.5996 -0.7517 -0.4694
 2780TIP3   OH229830   5.865   6.353   5.090 -0.5443  0.2137 -0.1668
 2780TIP3    H129831   5.912   6.300   5.026 -1.8284 -0.0721 -0.9066
 2780TIP3    H229832   5.902   6.440   5.082  0.9011 -0.3270  0.3569
 2781TIP3   OH229833   4.800   2.957  10.670 -0.6543 -0.2886 -0.1526
 2781TIP3    H129834   4.882   2.920  10.637 -0.4427  0.4593 -0.4719
 2781TIP3    H229835   4.790   2.919  10.758  1.3670  1.6072  0.9677
 2782TIP3   OH229836   6.834   4.313   1.738 -0.0770 -0.2579 -0.7177
 2782TIP3    H129837   6.890   4.378   1.697 -0.8664  0.1462 -1.1724
 2782TIP3    H229838   6.760   4.303   1.678 -2.0170  1.4405  1.2501
 2783TIP3   OH229839   3.565   0.209   2.445 -0.2012 -0.6224 -0.2233
 2783TIP3    H129840   3.584   0.120   2.416 -0.3292 -1.0976  1.0973
 2783TIP3    H229841   3.500   0.241   2.382  1.0589 -0.8266 -1.7107
 2784TIP3   OH229842   6.578   2.183  16.446 -0.2968  0.1787  0.2267
 2784TIP3    H129843   6.512   2.204  16.380 -0.7559  0.8045  0.8689
 2784TIP3    H229844   6.618   2.267  16.468 -1.3462  0.2783  1.9738
 2785TIP3   OH229845   6.817   5.281  13.263 -0.8084  0.0307  0.5285
 2785TIP3    H129846   6.795   5.188  13.272 -0.3051 -0.0931  0.4995
 2785TIP3    H229847   6.901   5.290  13.307 -0.4334  0.3003 -0.2348
 2786TIP3   OH229848   4.894   6.492   2.924  0.2264  0.0272 -0.4506
 2786TIP3    H129849   4.923   6.583   2.918  0.7331 -0.1409 -0.5255
 2786TIP3    H229850   4.973   6.440   2.913  0.2962 -0.3995  1.7017
 2787TIP3   OH229851   3.988   5.952   1.333 -0.4912  0.7129  0.5439
 2787TIP3    H129852   3.918   5.922   1.275  1.0182  0.6496 -1.3580
 2787TIP3    H229853   3.943   5.985   1.411 -2.6491  1.1526 -0.8089
 2788TIP3   OH229854   5.354   2.092  14.147  0.2108  0.1597 -0.2619
 2788TIP3    H129855   5.294   2.166  14.151  0.6658  0.5792 -1.0340
 2788TIP3    H229856   5.333   2.048  14.065  0.5778 -0.0223 -0.2585
 2789TIP3   OH229857   5.433   6.696  16.961  0.0403 -0.0467 -0.1510
 2789TIP3    H129858   5.422   6.785  16.926 -2.0522  0.2712  1.1239
 2789TIP3    H229859   5.462   6.710  17.051 -1.1905 -0.5912  0.3499
 2790TIP3   OH229860   2.801   3.234  12.161  0.1792  0.1117 -0.5087
 2790TIP3    H129861   2.881   3.190  12.191 -0.7368 -0.6906  0.8711
 2790TIP3    H229862   2.733   3.203  12.221 -1.1014  1.0732 -1.4177
 2791TIP3   OH229863   6.264   2.995   5.785  0.3325  0.2828  0.0341
 2791TIP3    H129864   6.187   3.015   5.732  0.0299 -0.5425  0.1467
 2791TIP3    H229865   6.279   3.075   5.836  0.0636  0.7504 -0.6054
 2792TIP3   OH229866   3.222   1.526   4.829 -0.4638  0.2733 -0.4881
 2792TIP3    H129867   3.144   1.563   4.786  0.1545  2.3119  0.0742
 2792TIP3    H229868   3.282   1.507   4.757 -1.3064 -1.0351 -0.9009
 2793TIP3   OH229869   6.191   4.682   5.057  0.1387  0.5288  0.6596
 2793TIP3    H129870   6.133   4.608   5.078 -0.8040  0.7090 -1.0563
 2793TIP3    H229871   6.274   4.641   5.034 -0.6538 -0.1310 -1.2217
 2794TIP3   OH229872   4.008   6.667  13.391  0.3337  0.6265  0.3460
 2794TIP3    H129873   4.040   6.593  13.442  1.0891  0.6720 -0.0553
 2794TIP3    H229874   3.965   6.628  13.315  3.1136  0.5807 -1.3208
 2795TIP3   OH229875   6.577   1.734  15.691  0.5378 -0.2776  0.2748
 2795TIP3    H129876   6.593   1.667  15.625  1.3920 -1.4266  1.5814
 2795TIP3    H229877   6.640   1.804  15.670  1.3968 -1.0088  0.3429
 2796TIP3   OH229878   2.737   3.901  14.410  0.7946 -0.4862 -0.4374
 2796TIP3    H129879   2.711   3.921  14.320  1.6529 -1.4955 -0.9353
 2796TIP3    H229880   2.654   3.893  14.458  0.3387  0.3089 -1.0746
 2797TIP3   OH229881   3.597   0.789  15.257 -1.3600 -0.2931 -0.2141
 2797TIP3    H129882   3.531   0.764  15.321 -0.4828 -0.8159  0.5011
 2797TIP3    H229883   3.667   0.725  15.269 -0.5577  0.4861 -0.6969
 2798TIP3   OH229884   2.632   5.467  12.999 -0.4863 -0.1015 -0.0236
 2798TIP3    H129885   2.682   5.487  12.919 -1.1128 -0.9881 -0.6693
 2798TIP3    H229886   2.654   5.537  13.060  1.9300 -0.7123 -0.0939
 2799TIP3   OH229887   6.443   1.285  15.040 -0.1682 -0.2393 -0.4519
 2799TIP3    H129888   6.381   1.356  15.058 -0.8269 -1.2736  1.6961
 2799TIP3    H229889   6.397   1.206  15.068  0.5004 -1.5883 -2.8796
 2800TIP3   OH229890   1.885   5.986   2.888  0.3986 -0.3759 -0.1278
 2800TIP3    H129891   1.960   5.928   2.872 -0.7198 -2.8404  2.6276
 2800TIP3    H229892   1.816   5.928   2.921 -1.8426  2.1792  0.0363
 2801TIP3   OH229893   2.719   1.470  15.243  0.7160 -0.3583  0.0499
 2801TIP3    H129894   2.720   1.539  15.309  2.5181 -0.0170 -0.2936
 2801TIP3    H229895   2.733   1.389  15.292  1.0783 -0.2130  0.1827
 2802TIP3   OH229896   6.554   6.251  13.516  0.4400  0.0535  0.1543
 2802TIP3    H129897   6.600   6.314  13.572 -0.2404  0.2100  0.5460
 2802TIP3    H229898   6.616   6.179  13.506  0.6512  0.1127  0.9567
 2803TIP3   OH229899   2.184   5.660   1.316  0.0864 -0.3209 -0.1435
 2803TIP3    H129900   2.184   5.568   1.341  0.4216 -0.0743  0.8346
 2803TIP3    H229901   2.118   5.700   1.372  0.1695  0.0901 -0.3365
 2804TIP3   OH229902   6.664   4.696   5.107  0.1185 -0.9864 -0.2228
 2804TIP3    H129903   6.615   4.776   5.127  0.4853 -1.0503  0.9895
 2804TIP3    H229904   6.625   4.629   5.162  0.9659 -1.2355  0.1024
 2805TIP3   OH229905   3.568   0.450  15.075  0.3495 -0.7018 -0.0628
 2805TIP3    H129906   3.494   0.483  15.126  1.0206  0.9813 -0.1286
 2805TIP3    H229907   3.527   0.395  15.007 -0.8050 -0.1476  0.1644
 2806TIP3   OH229908   4.016   1.446  15.011 -0.0059 -0.0649 -0.4577
 2806TIP3    H129909   4.042   1.507  14.942  0.0044 -0.8000 -1.1198
 2806TIP3    H229910   3.954   1.387  14.968 -2.2408  1.1536  0.8695
 2807TIP3   OH229911   3.810   2.869  12.205  0.2451 -0.2525 -0.4845
 2807TIP3    H129912   3.902   2.895  12.207  0.3961 -0.7938  1.4532
 2807TIP3    H229913   3.762   2.951  12.201  0.7893  0.2553  1.9473
 2808TIP3   OH229914   2.024   4.208  10.581 -0.0551  0.0750  0.0145
 2808TIP3    H129915   2.081   4.285  10.578 -0.6495  0.4914 -2.1441
 2808TIP3    H229916   1.950   4.236  10.636  0.0006  0.8570 -0.2881
 2809TIP3   OH229917   1.623   0.782   0.357 -0.3547 -0.9616 -0.4080
 2809TIP3    H129918   1.566   0.745   0.290 -0.7266  0.7668 -1.1020
 2809TIP3    H229919   1.593   0.873   0.367  1.1757 -0.5047  0.4350
 2810TIP3   OH229920   1.891   6.421  11.157 -0.7690 -0.2642 -0.5978
 2810TIP3    H129921   1.869   6.392  11.068  0.8324 -1.5719 -0.6250
 2810TIP3    H229922   1.817   6.394  11.211 -1.3377 -0.3024 -1.3885
 2811TIP3   OH229923   5.173   2.277  11.861 -0.1127 -0.3291  0.0231
 2811TIP3    H129924   5.180   2.368  11.888 -0.2894  0.0755 -1.2405
 2811TIP3    H229925   5.094   2.245  11.904 -0.7441  0.4789 -0.5085
 2812TIP3   OH229926   2.019   2.872  13.713 -0.1254 -0.1130  0.3046
 2812TIP3    H129927   2.114   2.885  13.716 -0.3436  1.9067 -0.3965
 2812TIP3    H229928   2.002   2.836  13.626 -0.1248  0.8321 -0.0943
 2813TIP3   OH229929   2.666   4.786   4.513  0.6107  0.2058 -0.8228
 2813TIP3    H129930   2.623   4.869   4.491  4.0056  2.0600 -1.0584
 2813TIP3    H229931   2.614   4.720   4.467 -4.0659  1.6085  1.7199
 2814TIP3   OH229932   2.126   2.016  11.062 -0.0166 -0.2145 -0.0364
 2814TIP3    H129933   2.159   2.039  10.975 -0.5983 -1.4535 -0.6210
 2814TIP3    H229934   2.033   2.035  11.058 -0.1652 -0.8772  0.0822
 2815TIP3   OH229935   1.342   6.469   1.321  0.8330 -1.2252  0.6929
 2815TIP3    H129936   1.367   6.474   1.229  0.8840 -0.0374  0.7488
 2815TIP3    H229937   1.423   6.486   1.369  0.5834 -0.6517  0.9253
 2816TIP3   OH229938   3.697   5.769  11.473  0.1440  0.2581  0.4081
 2816TIP3    H129939   3.714   5.765  11.567  1.2475 -3.4537  0.2026
 2816TIP3    H229940   3.777   5.805  11.435  0.9696 -1.1683  0.7232
 2817TIP3   OH229941   0.688   4.307   2.013  0.0232  0.1559  0.5320
 2817TIP3    H129942   0.674   4.316   2.108 -2.4863  0.1729  0.2120
 2817TIP3    H229943   0.703   4.213   2.000 -0.0496  0.0928  0.8842
 2818TIP3   OH229944   1.175   6.163   3.596 -0.3096  0.1208  0.1384
 2818TIP3    H129945   1.088   6.165   3.554 -0.0786 -0.8124 -0.4136
 2818TIP3    H229946   1.226   6.227   3.547 -0.8082  1.0411  0.7822
 2819TIP3   OH229947   5.112   5.145  13.152  0.2373 -0.1499  0.0537
 2819TIP3    H129948   5.189   5.169  13.101 -0.1105  0.2748 -0.2898
 2819TIP3    H229949   5.098   5.052  13.133  0.1937 -0.0321 -0.5285
 2820TIP3   OH229950   0.659   4.868  15.625  0.4835 -0.2767 -0.4569
 2820TIP3    H129951   0.575   4.861  15.670 -0.4814 -1.5644 -2.3372
 2820TIP3    H229952   0.701   4.945  15.665 -1.3406  0.1116  0.8634
 2821TIP3   OH229953   0.427   2.174  13.518 -0.0033  0.2140  0.2623
 2821TIP3    H129954   0.489   2.247  13.512  0.9162 -0.3605  2.1458
 2821TIP3    H229955   0.365   2.202  13.586 -0.5642 -0.1082 -0.1154
 2822TIP3   OH229956   1.804   4.916   6.462  0.6557 -0.9233  0.0616
 2822TIP3    H129957   1.754   4.995   6.442  0.2953 -0.6234  1.9614
 2822TIP3    H229958   1.894   4.937   6.435  1.1872  1.2909  3.0875
 2823TIP3   OH229959   2.163   2.457   3.862 -0.7109  0.4957 -0.1220
 2823TIP3    H129960   2.234   2.502   3.908  1.9410 -1.0949 -2.3187
 2823TIP3    H229961   2.153   2.374   3.909  3.3597 -2.0191 -3.0431
 2824TIP3   OH229962   1.962   5.006  14.256 -0.1856 -0.1619 -0.5081
 2824TIP3    H129963   1.949   4.913  14.273 -0.5392 -0.4529 -2.1711
 2824TIP3    H229964   1.935   5.050  14.337  1.4897 -1.5624  0.8794
 2825TIP3   OH229965   2.287   2.861  13.913 -0.2913  0.3822  0.1758
 2825TIP3    H129966   2.319   2.942  13.953 -1.1763  0.5250  0.6134
 2825TIP3    H229967   2.331   2.857  13.828  0.8268  0.5992  0.7352
 2826TIP3   OH229968   5.593   3.031  10.363 -0.0650  0.1762 -0.1951
 2826TIP3    H129969   5.541   3.107  10.338 -2.6264 -1.4742 -0.2951
 2826TIP3    H229970   5.570   3.015  10.454 -0.2559 -0.9756 -0.4302
 2827TIP3   OH229971   2.145   6.384   4.150 -0.2159 -0.6291 -0.5533
 2827TIP3    H129972   2.054   6.376   4.124 -1.1160  0.6118  1.8784
 2827TIP3    H229973   2.142   6.428   4.235  2.5861 -1.5966  0.1672
 2828TIP3   OH229974   1.909   2.022  15.492  0.4885 -0.1191  0.1792
 2828TIP3    H129975   1.879   1.931  15.484  0.2054 -0.0546  0.5060
 2828TIP3    H229976   1.959   2.037  15.411 -0.4956 -0.1784 -0.4659
 2829TIP3   OH229977   3.323   6.570  13.698 -0.2853 -0.0376  0.0311
 2829TIP3    H129978   3.235   6.598  13.724  0.1808  1.2978  0.2367
 2829TIP3    H229979   3.316   6.475  13.687 -1.2603 -0.2254  1.9736
 2830TIP3   OH229980   5.791   0.086  11.033  0.0955  0.1995 -0.1177
 2830TIP3    H129981   5.712   0.057  11.079 -0.2463  1.7833  0.3778
 2830TIP3    H229982   5.862   0.037  11.074 -0.4751 -0.1677  0.4529
 2831TIP3   OH229983   2.953   0.285  15.960 -0.1789 -0.2299  0.2334
 2831TIP3    H129984   3.015   0.274  15.888  0.5322  1.7841  0.4890
 2831TIP3    H229985   2.867   0.271  15.920  0.3498 -3.7256  0.0094
 2832TIP3   OH229986   3.975   1.403  11.173 -0.1250  0.3400  0.2527
 2832TIP3    H129987   4.045   1.425  11.111 -0.0210  1.4836  0.7555
 2832TIP3    H229988   3.896   1.402  11.120 -0.2558  2.7430  0.3035
 2833TIP3   OH229989   0.533   2.221   2.526 -0.0857  0.4132 -0.4364
 2833TIP3    H129990   0.470   2.233   2.598  0.0881  0.9516 -0.3638
 2833TIP3    H229991   0.561   2.310   2.505 -1.2314  0.4076 -2.1585
 2834TIP3   OH229992   5.998   0.295   3.145 -0.8408  0.1070  0.0125
 2834TIP3    H129993   6.026   0.228   3.082 -1.3559  0.3155 -0.4485
 2834TIP3    H229994   5.907   0.273   3.164 -1.0756  0.7880 -0.2973
 2835TIP3   OH229995   1.347   1.522  14.610  0.2055  0.0465 -0.1906
 2835TIP3    H129996   1.315   1.568  14.532  2.3561 -1.8177 -2.2884
 2835TIP3    H229997   1.312   1.433  14.602 -1.1378  0.2740  2.0730
 2836TIP3   OH229998   3.462   0.797   1.143  0.3547  0.0032 -0.6055
 2836TIP3    H129999   3.398   0.754   1.200  2.1202 -1.6101  0.2580
 2836TIP3    H230000   3.540   0.808   1.198  1.2901  0.6672 -2.0108
 2837TIP3   OH230001   6.372   6.308   5.386  0.1005 -0.4337 -0.6081
 2837TIP3    H130002   6.450   6.321   5.440  0.0030 -1.8358 -0.0965
 2837TIP3    H230003   6.400   6.250   5.315  0.4162  1.9711 -2.5829
 2838TIP3   OH230004   1.418   5.754  15.033 -0.0677 -0.9170  0.3241
 2838TIP3    H130005   1.481   5.821  15.008  1.3806 -1.4624  2.2603
 2838TIP3    H230006   1.399   5.773  15.126 -1.7245 -1.5918  0.1585
 2839TIP3   OH230007   0.654   4.067  14.213  0.2482 -0.0842  0.1292
 2839TIP3    H130008   0.638   4.011  14.288  2.3808 -0.8901  0.0720
 2839TIP3    H230009   0.666   4.155  14.250  1.2688 -0.4729  0.7727
 2840TIP3   OH230010   2.041   0.321   0.052  0.3430  0.3256  0.2001
 2840TIP3    H130011   2.085   0.290  -0.028  0.5904 -0.1880  0.5248
 2840TIP3    H230012   2.027   0.241   0.103 -0.2910  0.5887  0.4375
 2841TIP3   OH230013   6.434   0.202  15.080  0.1514 -0.5868 -0.4315
 2841TIP3    H130014   6.402   0.113  15.064  1.5452 -1.2574  0.3566
 2841TIP3    H230015   6.457   0.235  14.993 -0.5156 -0.9348 -0.7471
 2842TIP3   OH230016   1.026   2.299  17.021 -0.3578  0.3037  0.0759
 2842TIP3    H130017   1.056   2.305  17.111 -3.6368  1.6324  1.2149
 2842TIP3    H230018   1.037   2.388  16.986 -0.3085  0.1020 -0.4447
 2843TIP3   OH230019   5.435   0.502  11.101 -0.4394  0.1771 -0.2627
 2843TIP3    H130020   5.444   0.412  11.071 -0.0235  0.2640 -0.4032
 2843TIP3    H230021   5.391   0.495  11.185  2.0512 -0.3758  1.0874
 2844TIP3   OH230022   6.431   4.097  13.498  0.5885 -0.2417  0.2032
 2844TIP3    H130023   6.504   4.157  13.507  0.6080 -0.4879  2.0839
 2844TIP3    H230024   6.362   4.134  13.553 -1.0122  0.3470 -2.0478
 2845TIP3   OH230025   6.101   5.978   2.961  0.3729  0.3895 -0.2196
 2845TIP3    H130026   6.140   6.054   3.003  1.3006 -0.6562  0.9002
 2845TIP3    H230027   6.073   5.922   3.034 -0.3134 -0.3386 -1.0070
 2846TIP3   OH230028   1.203   2.110  13.203  0.5523  0.1635 -0.0125
 2846TIP3    H130029   1.123   2.147  13.241 -0.0987 -1.6773  0.4875
 2846TIP3    H230030   1.214   2.026  13.246  2.3515  0.0211 -0.6520
 2847TIP3   OH230031   6.102   5.144  16.747  0.2747  0.6867  0.0427
 2847TIP3    H130032   6.048   5.107  16.817  1.7483 -2.0230 -0.1397
 2847TIP3    H230033   6.093   5.239  16.758 -1.9857  0.3501  1.9291
 2848TIP3   OH230034   4.280   1.904   6.332  0.3008  0.2216 -0.4605
 2848TIP3    H130035   4.333   1.946   6.264  2.1336  0.1633  0.8802
 2848TIP3    H230036   4.197   1.952   6.330  0.4702  0.5132 -2.4084
 2849TIP3   OH230037   4.860   1.991  14.248 -0.6048  0.3490  0.4598
 2849TIP3    H130038   4.789   1.961  14.192  0.3063 -1.3930  0.1830
 2849TIP3    H230039   4.864   2.086  14.233 -2.3533  0.3753 -0.0641
 2850TIP3   OH230040   6.694   6.813  12.848 -0.3850  0.3307  0.8869
 2850TIP3    H130041   6.774   6.801  12.796 -0.9830  0.0142  0.0230
 2850TIP3    H230042   6.725   6.852  12.930  0.6362  0.3716  0.5008
 2851TIP3   OH230043   2.598   4.892  11.235  0.7069  0.0227 -0.6858
 2851TIP3    H130044   2.580   4.950  11.161  1.2092  0.5144 -0.4195
 2851TIP3    H230045   2.685   4.917  11.265  1.0168 -1.0051 -0.6947
 2852TIP3   OH230046   3.228   1.331  10.790 -0.0655  0.6352 -0.2005
 2852TIP3    H130047   3.232   1.325  10.885  0.9665  1.1270 -0.1985
 2852TIP3    H230048   3.315   1.363  10.764 -0.2000  0.1402 -1.3327
 2853TIP3   OH230049   1.536   2.688   2.802 -0.2920 -0.2891  0.8578
 2853TIP3    H130050   1.448   2.699   2.838  0.1081  0.6815  1.5902
 2853TIP3    H230051   1.565   2.603   2.835 -0.4328  0.0064  1.7878
 2854TIP3   OH230052   5.482   0.826   2.408 -0.2643  0.4069 -0.2345
 2854TIP3    H130053   5.570   0.811   2.443  0.2804  0.7670 -1.4005
 2854TIP3    H230054   5.453   0.907   2.450  1.0592  1.7714 -1.8058
 2855TIP3   OH230055   3.815   2.882   5.519 -0.4669  0.2172  0.1499
 2855TIP3    H130056   3.782   2.971   5.506  0.2861  0.6485  1.0284
 2855TIP3    H230057   3.745   2.838   5.568 -1.0703  0.1560 -0.7542
 2856TIP3   OH230058   6.355   3.995   4.244  0.0151  0.3532 -0.7411
 2856TIP3    H130059   6.329   3.905   4.225  1.8170 -0.8970  2.0101
 2856TIP3    H230060   6.451   3.991   4.249  0.0530  2.0529  0.9175
 2857TIP3   OH230061   0.958   6.739   3.404 -0.5133 -0.1436  0.0874
 2857TIP3    H130062   0.917   6.665   3.450 -1.1279 -1.1377 -1.9573
 2857TIP3    H230063   1.048   6.711   3.389 -0.8565 -0.6841 -1.0499
 2858TIP3   OH230064   2.739   4.258  13.726  0.0336  0.2327  0.4700
 2858TIP3    H130065   2.774   4.312  13.797  0.7222  0.3596  0.0467
 2858TIP3    H230066   2.788   4.286  13.649  0.3733 -0.9582  0.2390
 2859TIP3   OH230067   0.556   3.220   2.973  0.2945  0.0005 -0.6573
 2859TIP3    H130068   0.471   3.250   3.005  0.5006  1.2113 -1.2116
 2859TIP3    H230069   0.610   3.299   2.971  1.7347 -0.8975  0.5694
 2860TIP3   OH230070   4.909   1.696  10.978  0.1252  0.8460  0.2591
 2860TIP3    H130071   4.848   1.761  10.943 -0.3392  1.0213  1.3287
 2860TIP3    H230072   4.861   1.613  10.974  1.0352  0.3674 -1.9174
 2861TIP3   OH230073   6.187   1.583  14.054 -0.4963  0.1694  0.2468
 2861TIP3    H130074   6.258   1.541  14.102 -0.0954  0.2824 -0.2353
 2861TIP3    H230075   6.194   1.676  14.076  0.2239  0.3513 -0.6740
 2862TIP3   OH230076   2.946   0.672   5.187 -0.3951  0.5014  0.9624
 2862TIP3    H130077   3.039   0.673   5.210 -0.0534  1.2847 -0.3386
 2862TIP3    H230078   2.943   0.638   5.098 -1.4745 -0.4865  1.3490
 2863TIP3   OH230079   3.380   5.954   1.409  0.5957  0.6422 -0.4179
 2863TIP3    H130080   3.285   5.963   1.423  0.6413  0.1104  0.3173
 2863TIP3    H230081   3.395   5.989   1.321 -0.4363 -0.1689 -0.9371
 2864TIP3   OH230082   0.318   3.069  15.568  0.0788 -0.3339  0.1251
 2864TIP3    H130083   0.324   3.110  15.482 -0.1186 -2.8412 -1.1847
 2864TIP3    H230084   0.408   3.049  15.592  0.1416  0.4570  0.5570
 2865TIP3   OH230085   5.998   5.662   1.687  0.1392 -0.2382 -0.7973
 2865TIP3    H130086   5.926   5.622   1.736  0.4825 -0.9320 -0.8396
 2865TIP3    H230087   5.966   5.749   1.663  0.5209  0.7494  1.9360
 2866TIP3   OH230088   2.132   2.828  16.916  0.3482  0.6728  0.7514
 2866TIP3    H130089   2.218   2.785  16.905  0.2948  0.6775  0.2860
 2866TIP3    H230090   2.123   2.882  16.838  0.5020  1.7062  1.4359
 2867TIP3   OH230091   4.050   4.228   2.392 -0.4935  0.0292  0.8945
 2867TIP3    H130092   3.996   4.156   2.360 -3.2155  1.5275  1.7603
 2867TIP3    H230093   4.063   4.284   2.315 -3.0421  1.2644  1.2553
 2868TIP3   OH230094   5.197   3.270  12.392 -0.2677  0.7212 -0.5392
 2868TIP3    H130095   5.280   3.243  12.353 -1.2492 -1.6318 -1.2098
 2868TIP3    H230096   5.200   3.365  12.392  1.9399  0.7136 -1.5962
 2869TIP3   OH230097   4.128   6.388  11.693  0.9547 -0.2577 -0.2566
 2869TIP3    H130098   4.207   6.421  11.735  0.7596  0.1510 -0.2126
 2869TIP3    H230099   4.074   6.465  11.677 -0.0974 -0.6763  1.0769
 2870TIP3   OH230100   5.557   0.157   0.956 -0.5169  0.2950  0.3343
 2870TIP3    H130101   5.539   0.130   0.865  0.9995 -2.0346  0.6409
 2870TIP3    H230102   5.480   0.128   1.005  0.4333 -2.3981  0.4010
 2871TIP3   OH230103   3.038   3.210   4.283  0.3047  0.0801 -0.3842
 2871TIP3    H130104   3.002   3.281   4.337  0.6055  2.1614 -2.7117
 2871TIP3    H230105   2.963   3.154   4.265 -0.6334  1.4002 -0.7790
 2872TIP3   OH230106   4.911   1.402   0.032  0.4139 -0.2115  0.0484
 2872TIP3    H130107   4.921   1.496   0.016 -1.7902 -0.0796 -0.9515
 2872TIP3    H230108   4.891   1.365  -0.054 -0.2279 -1.3589  0.6590
 2873TIP3   OH230109   3.921   6.354  12.876 -0.6418  0.0303  0.0559
 2873TIP3    H130110   3.886   6.323  12.959 -0.7117 -2.3037 -0.7619
 2873TIP3    H230111   3.976   6.282  12.845 -1.9483  0.0678 -2.6795
 2874TIP3   OH230112   5.372   6.401   1.758 -0.0647 -0.0092  0.1670
 2874TIP3    H130113   5.288   6.369   1.724 -0.1290  0.3606 -0.0303
 2874TIP3    H230114   5.423   6.322   1.774  0.8119 -0.2250 -2.8869
 2875TIP3   OH230115   4.602   6.194  11.522  0.3889  0.2211  0.2555
 2875TIP3    H130116   4.553   6.138  11.581 -1.0299  0.9792 -0.1553
 2875TIP3    H230117   4.652   6.133  11.467 -1.8213 -0.7445 -0.8127
 2876TIP3   OH230118   6.712   3.053  15.292 -0.4792 -0.9201 -0.2928
 2876TIP3    H130119   6.643   3.119  15.300 -0.1105 -0.6979  1.2210
 2876TIP3    H230120   6.780   3.095  15.239  0.4155  0.5203  1.8975
 2877TIP3   OH230121   1.090   3.781   6.093  0.3142 -0.3375  0.0803
 2877TIP3    H130122   1.063   3.751   6.180 -2.6268 -0.0117 -0.6326
 2877TIP3    H230123   1.151   3.853   6.110  0.6624 -1.0058  1.8316
 2878TIP3   OH230124   4.440   2.666   1.284  0.4320  0.4170  0.5474
 2878TIP3    H130125   4.406   2.755   1.278  1.4290  0.7735 -0.1242
 2878TIP3    H230126   4.503   2.659   1.212  1.6542 -0.2514  1.6290
 2879TIP3   OH230127   0.082   5.864  14.879 -0.6406 -0.7976  0.1489
 2879TIP3    H130128   0.124   5.787  14.917 -0.8696 -0.7656  0.4688
 2879TIP3    H230129   0.096   5.855  14.784 -0.0399 -0.8628  0.2350
 2880TIP3   OH230130   3.152   0.232  17.036  0.1471 -0.7647  0.1549
 2880TIP3    H130131   3.140   0.137  17.040 -0.5353 -0.6952 -0.1053
 2880TIP3    H230132   3.127   0.256  16.947 -0.9119 -0.1915  0.5815
 2881TIP3   OH230133   4.709   4.083  15.448 -0.3584  0.1962  0.5102
 2881TIP3    H130134   4.700   4.107  15.356  0.3546  0.5219  0.5173
 2881TIP3    H230135   4.731   3.990  15.446  3.8538  1.0023  0.0679
 2882TIP3   OH230136   1.662   3.790   1.434 -0.4375  0.3113 -0.1960
 2882TIP3    H130137   1.612   3.716   1.400 -1.0362  0.9519 -0.7541
 2882TIP3    H230138   1.608   3.823   1.506 -0.3439  0.4040 -0.1691
 2883TIP3   OH230139   5.002   6.019  14.308  0.3818  0.7400 -0.1418
 2883TIP3    H130140   4.991   6.010  14.213  0.0254  1.6756 -0.1955
 2883TIP3    H230141   5.049   6.101  14.319 -1.5645  1.8172  0.5896
 2884TIP3   OH230142   4.067   6.448  14.457  0.3202 -0.2391 -0.1943
 2884TIP3    H130143   4.011   6.483  14.527  2.5909  0.6920  1.2776
 2884TIP3    H230144   4.156   6.466  14.487  1.6648 -4.7846 -0.6605
 2885TIP3   OH230145   0.682   2.208   4.939  0.1403  0.5858 -0.7949
 2885TIP3    H130146   0.677   2.301   4.918 -0.0874  1.0313  1.0729
 2885TIP3    H230147   0.597   2.187   4.979  1.1968  0.3219  1.4580
 2886TIP3   OH230148   6.071   0.227   0.004  0.3255  0.4014 -0.2363
 2886TIP3    H130149   6.092   0.228  -0.089 -1.2530 -0.3458 -0.6291
 2886TIP3    H230150   6.040   0.316   0.023  0.0921  0.3865 -0.5554
 2887TIP3   OH230151   6.053   3.902   1.296  0.9787  0.1611 -0.3531
 2887TIP3    H130152   6.139   3.941   1.278  0.6308  0.6520 -0.9946
 2887TIP3    H230153   6.073   3.816   1.334  1.7527  0.7160  0.5376
 2888TIP3   OH230154   6.125   3.799  14.367  0.1234 -0.5310 -0.4618
 2888TIP3    H130155   6.115   3.813  14.461 -0.5972 -1.3914 -0.3955
 2888TIP3    H230156   6.036   3.795  14.334  0.3005  3.2485 -1.7916
 2889TIP3   OH230157   1.346   3.514  11.488 -0.1453 -0.2330 -0.4472
 2889TIP3    H130158   1.350   3.509  11.392  1.1501  1.0329 -0.4953
 2889TIP3    H230159   1.276   3.576  11.506 -0.5729 -0.6771 -0.5576
 2890TIP3   OH230160   0.183   2.196   4.637  0.2807 -0.3515 -0.5354
 2890TIP3    H130161   0.137   2.207   4.720 -0.1525  0.1171 -0.8322
 2890TIP3    H230162   0.204   2.103   4.634  1.7505 -0.1000  0.8446
 2891TIP3   OH230163   6.058   4.485   1.994 -0.1137  0.1875  0.0701
 2891TIP3    H130164   6.020   4.568   1.965  0.0907  0.1710 -0.2547
 2891TIP3    H230165   5.989   4.421   1.980  0.3494 -0.0199 -1.4925
 2892TIP3   OH230166   3.888   1.338  13.377 -0.2449  0.8154 -0.1499
 2892TIP3    H130167   3.950   1.361  13.308 -0.3784  0.1797 -0.4889
 2892TIP3    H230168   3.922   1.258  13.415 -1.5620 -0.3398 -1.2798
 2893TIP3   OH230169   4.911   4.263  14.499 -0.8503 -0.1305  0.0221
 2893TIP3    H130170   4.843   4.217  14.548 -1.9065  2.1090  0.7548
 2893TIP3    H230171   4.954   4.320  14.563  0.0116  0.3820 -0.9649
 2894TIP3   OH230172   4.423   1.302   1.135  0.0487 -0.2839  0.3273
 2894TIP3    H130173   4.513   1.321   1.106  0.0746 -0.3908  0.3395
 2894TIP3    H230174   4.375   1.282   1.055 -0.5663  2.1489 -0.0160
 2895TIP3   OH230175   5.216   2.705  16.209  0.3788  0.0529 -0.2173
 2895TIP3    H130176   5.123   2.724  16.206  0.5860  1.1917  0.1173
 2895TIP3    H230177   5.236   2.671  16.122 -0.3534 -0.2677 -0.2676
 2896TIP3   OH230178   5.498   3.783   0.295  0.0802  0.0430 -0.3346
 2896TIP3    H130179   5.565   3.767   0.228  0.0630 -0.8726 -0.1484
 2896TIP3    H230180   5.440   3.708   0.288 -0.2336  0.2210  0.3413
 2897TIP3   OH230181   4.392   4.732   4.834  0.1773 -0.7301 -0.3430
 2897TIP3    H130182   4.421   4.795   4.768  0.6258 -0.8030 -0.2165
 2897TIP3    H230183   4.314   4.691   4.795 -0.1224 -0.1028 -0.4230
 2898TIP3   OH230184   4.323   6.185  13.941  0.5135  0.2618 -0.2794
 2898TIP3    H130185   4.360   6.099  13.962 -2.1375 -0.8773  0.1206
 2898TIP3    H230186   4.278   6.211  14.021 -0.9589  0.7455 -1.2287
 2899TIP3   OH230187   4.654   5.107   5.108  0.0456  0.6920 -0.2338
 2899TIP3    H130188   4.689   5.033   5.156  0.2929  0.9648  0.0112
 2899TIP3    H230189   4.635   5.072   5.021  0.1185  0.3327 -0.1071
 2900TIP3   OH230190   3.394   5.428   5.969  0.0242  0.1339 -0.5462
 2900TIP3    H130191   3.360   5.339   5.961  1.5335 -0.4434 -0.7361
 2900TIP3    H230192   3.489   5.418   5.972  0.1937  1.5350  1.8589
 2901TIP3   OH230193   1.801   6.700  14.563 -0.1255  0.3200  0.1942
 2901TIP3    H130194   1.870   6.636  14.545 -0.3447  0.7164 -2.4464
 2901TIP3    H230195   1.832   6.781  14.522 -2.2646  0.3877 -1.4906
 2902TIP3   OH230196   3.228   3.355   1.090 -0.1975 -0.5459 -0.0415
 2902TIP3    H130197   3.258   3.367   1.180 -0.9508  1.0968  0.0277
 2902TIP3    H230198   3.273   3.423   1.040  1.1758 -2.2057 -1.1875
 2903TIP3   OH230199   4.236   1.978  10.406 -0.4156 -0.2952 -0.2616
 2903TIP3    H130200   4.156   1.993  10.356 -0.1308  0.0963 -0.6122
 2903TIP3    H230201   4.292   2.052  10.384 -0.5708  0.3063  1.2660
 2904TIP3   OH230202   3.398   1.411   0.939  0.2551  0.0527 -0.4329
 2904TIP3    H130203   3.443   1.334   0.971 -0.8770 -0.4424  0.0126
 2904TIP3    H230204   3.307   1.382   0.925  0.1529  0.9000 -1.6957
 2905TIP3   OH230205   0.837   5.704  14.371 -0.0045  0.0055 -0.2672
 2905TIP3    H130206   0.836   5.609  14.377  1.6072 -0.1196 -1.3332
 2905TIP3    H230207   0.766   5.725  14.311 -0.3463 -0.5122 -0.0521
 2906TIP3   OH230208   1.142   2.887   0.066  0.7835 -0.5315  0.0232
 2906TIP3    H130209   1.093   2.905   0.146 -1.5832 -1.7600 -1.0674
 2906TIP3    H230210   1.077   2.887  -0.004  1.8396 -4.5604 -1.2277
 2907TIP3   OH230211   0.509   3.148   4.773 -0.2121 -0.1431 -0.8873
 2907TIP3    H130212   0.517   3.197   4.855  2.1402 -0.4951 -0.8529
 2907TIP3    H230213   0.576   3.186   4.716  1.4183 -2.9848 -1.0049
 2908TIP3   OH230214   4.438   1.521   2.024  0.5236 -0.2812  0.1356
 2908TIP3    H130215   4.531   1.507   2.038  0.8055  0.4265 -0.9093
 2908TIP3    H230216   4.432   1.556   1.935 -0.2027  4.4304  1.7733
 2909TIP3   OH230217   2.838   3.426   4.344 -0.1524 -0.1434  0.5189
 2909TIP3    H130218   2.790   3.376   4.410 -0.2624  0.0448  0.5823
 2909TIP3    H230219   2.785   3.504   4.329 -0.5254 -0.5529 -0.3706
 2910TIP3   OH230220   3.860   0.693  14.563  0.5724 -0.8696 -0.2018
 2910TIP3    H130221   3.771   0.727  14.571  1.5149  1.3962  2.0754
 2910TIP3    H230222   3.888   0.718  14.475 -0.6889 -0.7425 -0.5775
 2911TIP3   OH230223   4.597   5.937   1.730 -0.0834  0.0336 -0.2686
 2911TIP3    H130224   4.603   5.879   1.653 -0.4786 -0.5394  0.1230
 2911TIP3    H230225   4.559   6.018   1.696  0.6728  0.1543 -0.8659
 2912TIP3   OH230226   5.420   2.251  13.796 -0.5756  0.3519 -0.4682
 2912TIP3    H130227   5.340   2.199  13.800 -0.2366 -0.1493 -0.0355
 2912TIP3    H230228   5.489   2.188  13.778 -0.1670  0.6580  0.0010
 2913TIP3   OH230229   3.244   6.205  16.249 -0.2059  0.0162  0.7659
 2913TIP3    H130230   3.276   6.288  16.214 -1.4278  1.1503  2.1753
 2913TIP3    H230231   3.190   6.168  16.180 -2.2248  1.9886  1.1921
 2914TIP3   OH230232   6.553   6.126   2.939  0.2191 -0.1293  0.1364
 2914TIP3    H130233   6.580   6.059   2.877  0.3665  0.8559 -0.8976
 2914TIP3    H230234   6.633   6.174   2.959  0.0225  0.0670  0.4619
 2915TIP3   OH230235   0.957   6.692  16.656 -0.0331 -0.3140 -0.1147
 2915TIP3    H130236   0.926   6.629  16.721  0.6086 -1.1680 -0.6044
 2915TIP3    H230237   1.035   6.731  16.696  0.2537 -0.7062 -0.2704
 2916TIP3   OH230238   5.589   3.918   4.716 -0.1928  0.0977 -0.5643
 2916TIP3    H130239   5.652   3.846   4.716 -0.3006  0.0019 -0.7606
 2916TIP3    H230240   5.638   3.993   4.683 -0.4077 -0.1810 -1.5525
 2917TIP3   OH230241   6.667   5.187  12.067 -0.6652 -0.1986 -0.2315
 2917TIP3    H130242   6.760   5.208  12.070 -0.6017 -0.5344  0.4815
 2917TIP3    H230243   6.660   5.111  12.010 -0.9209  1.7774 -3.0117
 2918TIP3   OH230244   1.189   1.052  11.617 -0.1019  0.5210  0.4054
 2918TIP3    H130245   1.184   1.085  11.527  0.4670  0.8801  0.5006
 2918TIP3    H230246   1.197   0.957  11.607  0.7711  0.6236  0.0401
 2919TIP3   OH230247   6.544   3.194   0.078  0.1861 -0.0543 -0.1231
 2919TIP3    H130248   6.629   3.237   0.090  0.1666  0.2629 -1.0140
 2919TIP3    H230249   6.521   3.161   0.164  1.6771 -1.0074 -0.0509
 2920TIP3   OH230250   3.403   0.106   3.194  0.4055 -0.5032  0.4037
 2920TIP3    H130251   3.364   0.167   3.256  1.9516  1.1361 -0.1688
 2920TIP3    H230252   3.463   0.053   3.247  0.1692 -0.5335  0.6449
 2921TIP3   OH230253   5.534   5.033  13.009 -0.0260  0.1348 -0.4820
 2921TIP3    H130254   5.618   4.996  12.980  0.9325  0.4368  1.6839
 2921TIP3    H230255   5.511   4.981  13.086 -1.5026  0.5192 -0.6390
 2922TIP3   OH230256   4.155   1.151   0.741  0.0426  0.0389 -0.9401
 2922TIP3    H130257   4.247   1.139   0.764  0.2865  1.9579 -0.7156
 2922TIP3    H230258   4.110   1.151   0.825  0.3599  2.6930 -0.6942
 2923TIP3   OH230259   2.171   6.515   0.068  0.0553  0.2962 -0.2219
 2923TIP3    H130260   2.130   6.602   0.075 -0.9588  0.0567 -2.4281
 2923TIP3    H230261   2.132   6.465   0.140 -0.5200  1.2212  0.1350
 2924TIP3   OH230262   4.974   2.437   0.225 -0.4448 -0.0462 -0.4561
 2924TIP3    H130263   4.902   2.474   0.276  1.3954  2.3192  0.6083
 2924TIP3    H230264   5.021   2.381   0.287  0.2274  0.6632 -0.3123
 2925TIP3   OH230265   4.735   5.416  13.010 -0.3534 -0.0039 -0.3991
 2925TIP3    H130266   4.677   5.377  12.943  0.4517 -1.4615 -0.2894
 2925TIP3    H230267   4.764   5.498  12.971 -2.2668  0.6562 -0.5622
 2926TIP3   OH230268   6.725   5.140   2.826  0.0786  0.7189 -0.4823
 2926TIP3    H130269   6.679   5.173   2.903  0.0593 -0.4818  0.0427
 2926TIP3    H230270   6.761   5.056   2.854  1.9708  1.2768 -1.0976
 2927TIP3   OH230271   6.020   6.184  15.529  0.1456  0.1867 -0.1790
 2927TIP3    H130272   6.005   6.223  15.615  0.2455 -0.1661  0.0014
 2927TIP3    H230273   5.969   6.238  15.468  0.0518  0.4185  0.1062
 2928TIP3   OH230274   6.646   1.937   5.421  0.2136  0.3014  0.8116
 2928TIP3    H130275   6.632   1.868   5.357  1.4433 -0.0126  0.8594
 2928TIP3    H230276   6.602   1.907   5.500 -1.2701  0.6689  0.1514
 2929TIP3   OH230277   6.324   2.495  13.123 -0.0627  0.0269 -0.1914
 2929TIP3    H130278   6.342   2.588  13.126  0.9517 -0.1505 -0.4252
 2929TIP3    H230279   6.312   2.470  13.215  0.6815  0.2013 -0.0455
 2930TIP3   OH230280   6.566   6.143   3.748  0.2022  0.3551  0.4166
 2930TIP3    H130281   6.473   6.167   3.749 -0.6184 -2.4830  1.3436
 2930TIP3    H230282   6.604   6.189   3.823 -0.6707  0.7223  0.6415
 2931TIP3   OH230283   0.650   2.303  16.878 -0.1657 -0.3586  0.7590
 2931TIP3    H130284   0.700   2.289  16.798  0.8931 -0.3873  1.4021
 2931TIP3    H230285   0.683   2.385  16.914 -0.0842 -0.7200  1.5428
 2932TIP3   OH230286   3.941   3.053  10.307 -0.8741 -0.1773 -0.8761
 2932TIP3    H130287   3.868   2.992  10.292 -0.3098 -0.8217 -1.0294
 2932TIP3    H230288   3.916   3.132  10.259 -1.3518 -0.4897 -1.1539
 2933TIP3   OH230289   2.640   4.914  13.249  0.2518  0.6395  0.3487
 2933TIP3    H130290   2.561   4.904  13.195 -0.5686  1.5764  1.3228
 2933TIP3    H230291   2.665   5.006  13.238  0.0627  0.8449  1.5557
 2934TIP3   OH230292   6.269   3.342  13.387  0.0057 -0.4137 -0.2241
 2934TIP3    H130293   6.181   3.378  13.376  0.6202  0.8132 -1.4400
 2934TIP3    H230294   6.283   3.289  13.308 -0.5153 -2.6479  1.0901
 2935TIP3   OH230295   1.216   0.681   2.416 -0.3305 -0.1984 -0.1148
 2935TIP3    H130296   1.278   0.616   2.449 -1.1836 -1.3442 -0.7105
 2935TIP3    H230297   1.155   0.695   2.488  0.2472  0.5006  0.2634
 2936TIP3   OH230298   2.171   1.569  13.203  0.7783  0.2195  0.2663
 2936TIP3    H130299   2.195   1.605  13.288  1.5309 -1.3523  0.7652
 2936TIP3    H230300   2.162   1.645  13.146  1.0787  1.2476  1.5501
 2937TIP3   OH230301   2.427   6.039   2.696  0.8497  0.3429 -0.0155
 2937TIP3    H130302   2.369   6.024   2.770  0.9599  2.4981  0.5594
 2937TIP3    H230303   2.450   6.132   2.701  1.7698  0.2882 -2.0955
 2938TIP3   OH230304   1.840   1.739  12.231  0.4423  0.3571  0.2777
 2938TIP3    H130305   1.789   1.667  12.192  0.3054 -0.1811  1.4044
 2938TIP3    H230306   1.782   1.776  12.298  0.9405  0.7696  0.4865
 2939TIP3   OH230307   2.126   6.536  14.113 -0.3543  0.3516  0.2348
 2939TIP3    H130308   2.088   6.605  14.058 -0.1570  0.0535 -0.2788
 2939TIP3    H230309   2.198   6.579  14.160 -1.6808  1.0999  1.7123
 2940TIP3   OH230310   1.868   2.309   3.754 -0.2977 -0.3769 -0.5743
 2940TIP3    H130311   1.911   2.232   3.716 -0.6788 -1.4216  1.0125
 2940TIP3    H230312   1.778   2.280   3.769  0.0646 -0.4112  2.0303
 2941TIP3   OH230313   6.625   4.042  14.301  0.0949 -0.0561  0.5482
 2941TIP3    H130314   6.578   4.124  14.317  0.8901  0.2497  1.3866
 2941TIP3    H230315   6.682   4.061  14.227 -0.5057 -0.1926  0.0387
 2942TIP3   OH230316   4.765   2.212  16.124  0.6791  0.2528  0.4351
 2942TIP3    H130317   4.790   2.261  16.203  1.2459  1.0229 -0.2085
 2942TIP3    H230318   4.835   2.231  16.061 -0.3325  0.5562 -0.6299
 2943TIP3   OH230319   3.793   0.428   1.377 -0.1589 -0.2958 -0.4030
 2943TIP3    H130320   3.810   0.509   1.329  0.3946 -0.2041 -0.0706
 2943TIP3    H230321   3.705   0.438   1.412 -0.1372  0.1184 -0.4636
 2944TIP3   OH230322   3.359   2.530   1.228 -0.1390 -0.0466  0.5466
 2944TIP3    H130323   3.420   2.577   1.171 -1.3976  0.7560 -0.1835
 2944TIP3    H230324   3.414   2.471   1.279  1.1267 -0.2041 -0.9260
 2945TIP3   OH230325   5.149   3.754   4.400 -0.4742  0.5153 -0.3011
 2945TIP3    H130326   5.112   3.691   4.462 -0.1399  1.1552  0.5829
 2945TIP3    H230327   5.242   3.757   4.423 -0.3540  0.7963 -0.8135
 2946TIP3   OH230328   3.820   5.909  10.102 -0.0079 -0.0451  0.0013
 2946TIP3    H130329   3.786   5.930  10.189 -1.8304 -0.7885 -0.4791
 2946TIP3    H230330   3.748   5.929  10.042  0.9384 -0.2808 -1.2653
 2947TIP3   OH230331   1.705   5.381  15.838 -0.3669 -0.1301  0.0220
 2947TIP3    H130332   1.635   5.385  15.773  0.1734  0.5184 -0.5273
 2947TIP3    H230333   1.762   5.310  15.807  0.5303  0.9577 -0.8789
 2948TIP3   OH230334   1.650   0.061   1.205  0.4264  0.5000 -0.3264
 2948TIP3    H130335   1.681   0.025   1.122  1.5272  0.0421  0.2606
 2948TIP3    H230336   1.709   0.134   1.223  1.0327 -0.2010  0.6722
 2949TIP3   OH230337   0.270   2.726  14.280  0.5194  0.0674  0.0259
 2949TIP3    H130338   0.336   2.780  14.323 -0.2840  0.4124  0.8450
 2949TIP3    H230339   0.208   2.703  14.349 -1.4141  1.5576 -1.1101
 2950TIP3   OH230340   6.335   5.945  15.115 -0.6754 -0.2411  1.1139
 2950TIP3    H130341   6.411   6.002  15.126 -0.4076 -0.4891  0.5712
 2950TIP3    H230342   6.266   6.003  15.084 -0.0797 -0.3901 -0.6103
 2951TIP3   OH230343   3.164   5.032   1.243 -0.4001 -0.2142  0.1912
 2951TIP3    H130344   3.229   4.979   1.289 -0.7958 -0.0017  1.0113
 2951TIP3    H230345   3.097   5.050   1.309 -1.3639 -0.5528 -0.6834
 2952TIP3   OH230346   3.933   2.816  17.047  0.3453 -0.6504  0.0431
 2952TIP3    H130347   3.998   2.785  17.110  0.0854  0.4452  0.8805
 2952TIP3    H230348   3.956   2.908  17.033  0.0931 -0.7454 -1.0948
 2953TIP3   OH230349   1.667   5.415   5.091 -0.5268 -0.2777  0.1200
 2953TIP3    H130350   1.639   5.331   5.127  0.2021 -0.5302  0.1294
 2953TIP3    H230351   1.698   5.464   5.167  2.1821 -1.2724 -0.1998
 2954TIP3   OH230352   5.766   5.876   4.187 -0.8877 -0.2395  0.1083
 2954TIP3    H130353   5.686   5.909   4.148 -2.1926 -2.7415  0.4515
 2954TIP3    H230354   5.803   5.818   4.120  0.4575  0.5546  0.1146
 2955TIP3   OH230355   1.779   2.881   1.330  0.1268  0.1156 -0.4674
 2955TIP3    H130356   1.806   2.840   1.248 -0.6941 -2.1280  0.2962
 2955TIP3    H230357   1.848   2.857   1.392  0.8422  1.9538 -0.5012
 2956TIP3   OH230358   1.522   3.397  12.395  0.6467  0.2516  0.5216
 2956TIP3    H130359   1.443   3.438  12.432 -0.0447  0.6128 -1.2447
 2956TIP3    H230360   1.500   3.304  12.390  0.0256  0.4457 -0.6315
 2957TIP3   OH230361   3.693   2.048  13.141  0.1055  0.5489 -0.0022
 2957TIP3    H130362   3.638   2.098  13.202 -0.2740  0.5648 -0.3497
 2957TIP3    H230363   3.724   1.973  13.192 -0.0596  0.6578  0.2624
 2958TIP3   OH230364   4.278   5.649  12.725  0.3496 -0.4181 -0.0634
 2958TIP3    H130365   4.295   5.739  12.697  0.0530 -0.6765 -1.1120
 2958TIP3    H230366   4.228   5.611  12.654  2.2476 -2.0369 -0.6216
 2959TIP3   OH230367   4.839   5.116  14.984 -0.6788 -0.2827 -0.0588
 2959TIP3    H130368   4.864   5.188  15.041 -0.1243 -0.9440  0.5502
 2959TIP3    H230369   4.754   5.087  15.017 -1.8734  1.3523 -1.5402
 2960TIP3   OH230370   3.752   4.347   4.085 -0.3167  0.1971 -0.2555
 2960TIP3    H130371   3.798   4.315   4.162  0.8881 -1.8284 -1.6949
 2960TIP3    H230372   3.702   4.271   4.054 -0.1644  0.7190 -1.8828
 2961TIP3   OH230373   5.299   5.631   2.399 -0.1266  0.0686  0.3163
 2961TIP3    H130374   5.392   5.610   2.392  0.4942  2.4382  0.3692
 2961TIP3    H230375   5.298   5.725   2.418 -2.5595  0.4360 -1.2075
 2962TIP3   OH230376   4.683   1.915   5.043  0.2361  0.3057 -0.1221
 2962TIP3    H130377   4.656   1.890   5.131 -0.2336 -1.4493 -0.7294
 2962TIP3    H230378   4.704   2.008   5.050  1.6273 -0.1058  2.1751
 2963TIP3   OH230379   6.303   5.640   4.521  0.0920  0.2708  0.1657
 2963TIP3    H130380   6.255   5.722   4.512 -1.3259 -0.6860 -1.5963
 2963TIP3    H230381   6.251   5.587   4.582 -1.9070 -1.1917 -2.5763
 2964TIP3   OH230382   0.920   4.684   5.313  0.0368 -0.4474 -0.6183
 2964TIP3    H130383   0.857   4.697   5.384  0.3738  0.4062 -0.4704
 2964TIP3    H230384   0.880   4.726   5.237  1.4253  2.2139  0.0209
 2965TIP3   OH230385   0.361   6.787   4.387  0.4287 -0.3653  0.7134
 2965TIP3    H130386   0.288   6.848   4.375  0.5110 -0.7073 -2.1904
 2965TIP3    H230387   0.372   6.782   4.482 -0.6936  2.7765  1.1393
 2966TIP3   OH230388   0.455   6.251  14.306  0.0997 -0.0326  0.6807
 2966TIP3    H130389   0.531   6.309  14.307 -0.9473  1.3533  1.8533
 2966TIP3    H230390   0.422   6.257  14.216 -0.3577  1.7014  0.9373
 2967TIP3   OH230391   4.439   1.353  11.923 -0.4936  0.1299  0.1845
 2967TIP3    H130392   4.507   1.348  11.990  1.3580 -0.4221 -1.6244
 2967TIP3    H230393   4.460   1.432  11.874 -0.0674 -0.9286 -1.4346
 2968TIP3   OH230394   4.075   4.521   1.202 -0.1195 -0.2446  0.0708
 2968TIP3    H130395   3.990   4.477   1.204  0.2126 -0.8774  0.9279
 2968TIP3    H230396   4.126   4.473   1.136 -0.1777 -0.3487  0.1021
 2969TIP3   OH230397   2.288   5.475   5.966  0.0938 -0.2307 -0.1294
 2969TIP3    H130398   2.290   5.383   5.993 -0.0666 -0.2940 -0.3293
 2969TIP3    H230399   2.378   5.504   5.977  0.6294 -0.9931 -1.9997
 2970TIP3   OH230400   1.667   4.720   4.087 -0.9190  0.1642 -0.1072
 2970TIP3    H130401   1.580   4.697   4.119 -0.6486 -2.1094 -0.8272
 2970TIP3    H230402   1.659   4.717   3.992 -0.0766  0.0894 -0.1779
 2971TIP3   OH230403   4.608   0.966  10.895 -0.7197 -0.7944  0.3565
 2971TIP3    H130404   4.527   0.946  10.847 -0.0776 -1.1783 -0.5880
 2971TIP3    H230405   4.617   1.061  10.888 -0.4534 -0.8867 -0.5768
 2972TIP3   OH230406   4.624   2.861  11.886 -0.8843  0.1528 -0.2216
 2972TIP3    H130407   4.615   2.944  11.932 -1.1865  1.0655 -1.8560
 2972TIP3    H230408   4.691   2.877  11.820  0.3013 -1.4377  0.5120
 2973TIP3   OH230409   6.315   3.346  11.825  0.7273 -0.1395  0.5564
 2973TIP3    H130410   6.288   3.436  11.841 -0.0655 -0.1169 -0.8245
 2973TIP3    H230411   6.399   3.353  11.780  0.3444 -0.0706 -0.1497
 2974TIP3   OH230412   0.809   1.975   4.974  0.4996 -0.2533  0.4996
 2974TIP3    H130413   0.803   2.064   4.939  0.8780  0.3383  1.8927
 2974TIP3    H230414   0.720   1.954   5.002  0.9889  1.1039  3.4311
 2975TIP3   OH230415   1.536   6.453  13.378 -0.5950  0.3107  0.0162
 2975TIP3    H130416   1.494   6.500  13.451 -1.9645 -0.7833 -0.0319
 2975TIP3    H230417   1.606   6.512  13.350 -1.9719  2.1621  0.2207
 2976TIP3   OH230418   4.553   6.800   6.302  0.0875  0.0537 -0.1645
 2976TIP3    H130419   4.643   6.831   6.317  0.9001 -2.2418  0.1611
 2976TIP3    H230420   4.504   6.879   6.281  2.2679  1.3483 -0.7839
 2977TIP3   OH230421   2.968   5.650  11.005  0.8686 -0.3990 -0.7729
 2977TIP3    H130422   2.992   5.674  10.915 -0.0778 -1.2075 -1.2644
 2977TIP3    H230423   2.885   5.694  11.020  1.0973 -0.1542 -0.2447
 2978TIP3   OH230424   0.709   1.206  10.766  0.1250 -0.1617 -0.5164
 2978TIP3    H130425   0.653   1.143  10.812  1.8999 -2.3892 -1.2420
 2978TIP3    H230426   0.665   1.218  10.681 -0.6768  0.2660 -0.0519
 2979TIP3   OH230427   2.069   4.673   0.889 -0.3336  0.0662  0.0223
 2979TIP3    H130428   2.157   4.667   0.852  0.3129 -0.1950  1.5454
 2979TIP3    H230429   2.064   4.763   0.921  0.1286 -0.4774  1.6906
 2980TIP3   OH230430   0.904   4.647   4.852 -0.3676 -0.3348  0.1157
 2980TIP3    H130431   0.812   4.676   4.855  0.0701  1.1883 -0.3238
 2980TIP3    H230432   0.943   4.686   4.930 -0.3645 -2.0486  1.0014
 2981TIP3   OH230433   6.239   3.538  14.302 -0.4276  0.5424 -0.4502
 2981TIP3    H130434   6.192   3.621  14.307  0.7213  1.1215  1.5269
 2981TIP3    H230435   6.176   3.478  14.261 -2.1731  1.7784  0.2804
 2982TIP3   OH230436   2.278   1.166  13.610  0.9968 -0.1647 -0.3625
 2982TIP3    H130437   2.340   1.093  13.608  1.0384 -0.1560 -2.8309
 2982TIP3    H230438   2.283   1.203  13.522 -1.3925  0.7985 -0.1597
 2983TIP3   OH230439   6.008   1.140   6.280 -0.0142  0.1153  0.4491
 2983TIP3    H130440   5.998   1.235   6.279  2.6875  0.4553 -0.2733
 2983TIP3    H230441   6.003   1.116   6.372  2.1254  1.3660  0.9477
 2984TIP3   OH230442   2.075   3.631  14.203  0.1790  0.2429  0.0506
 2984TIP3    H130443   2.064   3.584  14.120  0.8963  0.0019  0.0864
 2984TIP3    H230444   2.093   3.722  14.177  1.5587 -0.0583 -0.0987
 2985TIP3   OH230445   0.307   2.732   1.883 -0.5611  0.6437 -0.1429
 2985TIP3    H130446   0.392   2.694   1.905 -0.2334  0.6516 -1.3390
 2985TIP3    H230447   0.321   2.826   1.887 -0.5730  0.6456 -0.1447
 2986TIP3   OH230448   1.127   2.396  14.458 -0.0124 -0.3908  0.4572
 2986TIP3    H130449   1.094   2.317  14.500 -1.7487  0.6790  1.1815
 2986TIP3    H230450   1.109   2.383  14.365 -0.1690 -0.8964  0.5536
 2987TIP3   OH230451   2.243   2.907  11.538 -0.3506 -0.2734  0.4012
 2987TIP3    H130452   2.284   2.832  11.581 -0.4705 -0.6119 -0.0595
 2987TIP3    H230453   2.229   2.878  11.448 -1.4146 -0.0972  0.4957
 2988TIP3   OH230454   6.553   1.059   1.569  0.0851 -0.2057 -0.6379
 2988TIP3    H130455   6.464   1.055   1.532 -0.2310  1.0482 -0.0748
 2988TIP3    H230456   6.542   1.039   1.662  0.2160  0.9637 -0.3508
 2989TIP3   OH230457   3.923   6.476  11.913  0.2494  0.5153 -0.1732
 2989TIP3    H130458   3.912   6.560  11.867  0.5261  0.1967 -0.8298
 2989TIP3    H230459   3.958   6.417  11.846 -1.2048 -0.4919 -0.0731
 2990TIP3   OH230460   5.462   4.808   4.741 -0.2904 -0.3261  0.5034
 2990TIP3    H130461   5.476   4.764   4.657 -0.5987 -1.5193  1.0602
 2990TIP3    H230462   5.368   4.822   4.746 -0.3803 -1.0093  0.9917
 2991TIP3   OH230463   5.951   1.036   0.147  0.6599  0.1025  0.5342
 2991TIP3    H130464   5.926   1.014   0.237  0.2929  0.3026  0.4823
 2991TIP3    H230465   6.008   0.963   0.120 -0.9342 -1.0746  0.1908
 2992TIP3   OH230466   2.752   0.255  12.871  0.1328 -0.7362 -0.3986
 2992TIP3    H130467   2.666   0.230  12.903  0.2987 -0.5477  0.2076
 2992TIP3    H230468   2.812   0.196  12.916  0.4091 -0.1784 -0.0297
 2993TIP3   OH230469   3.827   6.400  13.592 -0.2222 -0.1220  0.3540
 2993TIP3    H130470   3.756   6.460  13.571  0.6069  1.0760  0.8892
 2993TIP3    H230471   3.827   6.393  13.687  0.4617 -0.0003  0.3700
 2994TIP3   OH230472   0.345   1.822   2.402  0.5464  0.3078 -0.0276
 2994TIP3    H130473   0.438   1.835   2.417  0.9249 -0.9029 -1.1583
 2994TIP3    H230474   0.329   1.858   2.315  0.1380 -0.2395 -0.1853
 2995TIP3   OH230475   4.325   4.433   5.419  0.2066  0.1335  0.2465
 2995TIP3    H130476   4.326   4.381   5.339  2.5906 -2.5586  1.8506
 2995TIP3    H230477   4.403   4.489   5.411  0.3960 -0.0752  0.6271
 2996TIP3   OH230478   4.309   5.264   3.675 -0.1642 -0.0968  0.5720
 2996TIP3    H130479   4.378   5.256   3.741  0.1021 -0.3552  0.2642
 2996TIP3    H230480   4.239   5.207   3.707 -0.4418  0.5390  1.1335
 2997TIP3   OH230481   5.562   5.629  14.071  0.0707  0.2789  0.5757
 2997TIP3    H130482   5.627   5.647  14.003 -0.6294  1.7021  0.2345
 2997TIP3    H230483   5.484   5.603  14.023 -0.4484  1.3546  0.8003
 2998TIP3   OH230484   0.587   1.087  16.817 -0.4510  0.3962 -0.1724
 2998TIP3    H130485   0.630   1.157  16.867  2.1494 -0.9623 -0.3488
 2998TIP3    H230486   0.602   1.008  16.869 -1.9539 -0.3280 -0.7719
 2999TIP3   OH230487   2.701   2.459  13.919 -0.6410  0.3160  0.2013
 2999TIP3    H130488   2.610   2.473  13.890 -0.8915 -2.4435 -0.6043
 2999TIP3    H230489   2.698   2.473  14.014 -2.3156 -1.2740  0.4357
 3000TIP3   OH230490   0.994   5.302  13.532  0.1193 -0.6741  0.4422
 3000TIP3    H130491   0.910   5.265  13.560 -0.1069 -1.0153 -0.6700
 3000TIP3    H230492   1.057   5.268  13.596  0.1119 -3.8485 -1.0365
 3001TIP3   OH230493   4.085   0.647  10.949 -0.1104 -0.1492 -0.2927
 3001TIP3    H130494   4.136   0.579  10.905 -0.1891  1.4242 -3.0719
 3001TIP3    H230495   4.123   0.653  11.036  1.6710 -1.9023 -0.8770
 3002TIP3   OH230496   3.126   4.030   0.196 -0.2096  0.3921 -0.1628
 3002TIP3    H130497   3.221   4.014   0.197 -0.4071 -0.8377  0.0100
 3002TIP3    H230498   3.112   4.085   0.119  0.6556  0.6922 -0.1225
 3003TIP3   OH230499   0.159   6.080  14.113  0.5079 -0.3952 -0.6820
 3003TIP3    H130500   0.115   6.154  14.156  0.4678 -0.8094  0.0060
 3003TIP3    H230501   0.088   6.020  14.091  0.4956 -0.0485 -1.6201
 3004TIP3   OH230502   3.990   2.028  11.172  0.2221 -0.2750 -0.1868
 3004TIP3    H130503   3.932   2.041  11.098  0.9430  0.2457 -0.6670
 3004TIP3    H230504   3.933   2.037  11.249 -0.3840 -0.1000 -0.6475
 3005TIP3   OH230505   0.422   4.155  11.598 -0.4171  0.2395  0.7832
 3005TIP3    H130506   0.498   4.207  11.624  0.1807 -0.6757  0.9243
 3005TIP3    H230507   0.453   4.064  11.599 -0.7738  0.0261 -1.7386
 3006TIP3   OH230508   0.248   0.600   3.182  0.9522 -0.2606  0.1195
 3006TIP3    H130509   0.170   0.561   3.223  0.8597 -2.1519 -1.6792
 3006TIP3    H230510   0.218   0.628   3.095  1.8998  0.5588  0.0427
 3007TIP3   OH230511   0.478   5.707  12.942 -0.3368  0.3195 -0.0111
 3007TIP3    H130512   0.455   5.793  12.977  0.2440 -0.4276  2.4209
 3007TIP3    H230513   0.516   5.725  12.856 -0.2253  2.4987  0.4446
 3008TIP3   OH230514   6.781   3.350  16.276 -0.7337 -0.1293  0.2411
 3008TIP3    H130515   6.715   3.288  16.306  0.1957 -1.0869  0.3571
 3008TIP3    H230516   6.843   3.297  16.227  0.7087  0.4966  1.3223
 3009TIP3   OH230517   3.256   1.566   2.651 -0.2816  0.0432 -0.0886
 3009TIP3    H130518   3.333   1.576   2.706  0.3658  0.0064 -0.9806
 3009TIP3    H230519   3.289   1.533   2.568 -1.3704 -0.9946 -0.1424
 3010TIP3   OH230520   6.715   1.348  10.896 -0.3684 -0.5187 -0.0404
 3010TIP3    H130521   6.775   1.314  10.829 -0.6868  0.4702 -0.8710
 3010TIP3    H230522   6.734   1.442  10.899 -1.3611 -0.3105  0.2000
 3011TIP3   OH230523   4.136   0.172   1.031  0.1796  0.8263  0.6325
 3011TIP3    H130524   4.182   0.184   1.113  0.6068 -3.4311  1.2634
 3011TIP3    H230525   4.043   0.182   1.054  0.3054 -0.1333  1.6256
 3012TIP3   OH230526   0.118   3.810  12.026  0.2500 -0.2408 -0.8276
 3012TIP3    H130527   0.211   3.815  12.003  0.5164  0.9244  0.3694
 3012TIP3    H230528   0.114   3.841  12.116 -1.4401  0.9528 -1.2639
 3013TIP3   OH230529   6.512   4.562   5.342 -0.8777 -0.9318  0.5871
 3013TIP3    H130530   6.445   4.493   5.341 -1.9085 -0.0081 -1.3629
 3013TIP3    H230531   6.508   4.598   5.430 -0.1216 -3.4743  1.7652
 3014TIP3   OH230532   5.295   5.916   4.257  0.6590  0.2511  0.0102
 3014TIP3    H130533   5.248   5.998   4.270  0.5050  0.2376 -0.4230
 3014TIP3    H230534   5.358   5.934   4.187 -1.0308 -0.6143 -1.8531
 3015TIP3   OH230535   6.235   3.632   2.372  0.1465 -0.4828 -0.4363
 3015TIP3    H130536   6.210   3.641   2.464 -0.1034  0.0590 -0.5509
 3015TIP3    H230537   6.182   3.697   2.326 -0.0909 -1.0859 -1.0386
 3016TIP3   OH230538   5.932   1.191  16.881 -0.5159  0.0661 -0.0769
 3016TIP3    H130539   5.847   1.200  16.924 -0.1697  0.5499  0.5284
 3016TIP3    H230540   5.958   1.282  16.862  0.4878  0.0174  0.9893
 3017TIP3   OH230541   5.938   6.140  10.529 -0.3230  0.8163 -0.6224
 3017TIP3    H130542   5.950   6.190  10.448  0.3223 -0.7840 -1.5581
 3017TIP3    H230543   5.978   6.055  10.511 -0.0403  0.4618  1.4360
 3018TIP3   OH230544   2.822   2.743  12.778  0.3436  0.1360 -0.5404
 3018TIP3    H130545   2.744   2.798  12.789  0.8585  0.4750  2.2076
 3018TIP3    H230546   2.869   2.782  12.705 -0.0467  2.4960  0.3814
 3019TIP3   OH230547   2.620   5.439  13.829  0.4817  0.9670  0.4698
 3019TIP3    H130548   2.685   5.393  13.776 -0.6562  0.0170 -0.1781
 3019TIP3    H230549   2.579   5.501  13.769 -0.9251 -0.2242  0.1249
 3020TIP3   OH230550   2.035   1.463   0.391  0.3101 -0.1768 -0.0804
 3020TIP3    H130551   2.034   1.487   0.299  0.2891 -2.5386 -0.7687
 3020TIP3    H230552   2.121   1.424   0.405  0.6755  1.0088  1.1703
 3021TIP3   OH230553   2.242   3.391   2.351 -0.3433  0.9778  0.0005
 3021TIP3    H130554   2.326   3.392   2.398  0.5739 -0.2839 -1.5383
 3021TIP3    H230555   2.196   3.315   2.385 -0.0438  0.5627 -0.5147
 3022TIP3   OH230556   5.075   1.692  14.730 -0.3288 -0.6061  0.3919
 3022TIP3    H130557   5.073   1.669  14.637  0.5957  0.7931 -0.0001
 3022TIP3    H230558   4.983   1.700  14.755 -0.5834 -0.3133 -0.5941
 3023TIP3   OH230559   5.093   5.709  17.019  0.1721 -0.5933  0.5239
 3023TIP3    H130560   5.019   5.756  16.980  1.7594 -0.3887 -2.4738
 3023TIP3    H230561   5.137   5.668  16.945  2.8093 -1.0942  2.2485
 3024TIP3   OH230562   5.812   1.860  17.013  0.2439 -0.1512 -0.2389
 3024TIP3    H130563   5.881   1.833  17.074 -1.9627  0.2874  2.6585
 3024TIP3    H230564   5.804   1.786  16.953  1.6048 -1.2310  0.8194
 3025TIP3   OH230565   4.420   0.289  16.836 -0.2802 -0.7214  0.1810
 3025TIP3    H130566   4.334   0.264  16.869  0.2373 -1.9905  0.6282
 3025TIP3    H230567   4.446   0.364  16.889 -1.9026  0.9585 -1.2316
 3026TIP3   OH230568   3.235   2.266  12.802 -0.0900 -0.3297 -0.6618
 3026TIP3    H130569   3.154   2.249  12.753 -0.8775  0.7952  0.1897
 3026TIP3    H230570   3.283   2.183  12.799 -1.2522 -1.0013 -1.2373
 3027TIP3   OH230571   6.039   1.494  16.084  0.2294 -0.6279 -0.3051
 3027TIP3    H130572   6.114   1.466  16.136  0.8019  1.6086  0.1607
 3027TIP3    H230573   6.003   1.569  16.131 -0.2804  0.4048 -2.2334
 3028TIP3   OH230574   4.997   0.787   3.996 -0.6520  0.4972 -0.3306
 3028TIP3    H130575   5.067   0.723   4.000 -0.6235  0.4266 -1.5460
 3028TIP3    H230576   5.019   0.851   4.064  1.7202  1.5806 -1.9710
 3029TIP3   OH230577   6.480   3.009  16.307 -0.1799 -0.5459  0.3140
 3029TIP3    H130578   6.522   3.036  16.226 -2.6003 -1.0225 -1.1993
 3029TIP3    H230579   6.386   3.018  16.290 -0.9732 -4.2671  1.6755
 3030TIP3   OH230580   2.707   6.725   5.262 -0.4982  0.8033  0.5229
 3030TIP3    H130581   2.695   6.793   5.195  0.9534  1.7471  1.1534
 3030TIP3    H230582   2.750   6.771   5.334 -1.2929 -0.3678  1.7950
 3031TIP3   OH230583   5.686   4.336   6.339  0.4798 -0.3678  0.5766
 3031TIP3    H130584   5.626   4.295   6.277  0.0825 -0.1374  0.8006
 3031TIP3    H230585   5.666   4.295   6.423  1.6755 -1.3603  0.3925
 3032TIP3   OH230586   4.765   2.566   0.360  0.4566  0.1141 -0.8353
 3032TIP3    H130587   4.726   2.482   0.384  0.7894  0.3828  0.7216
 3032TIP3    H230588   4.806   2.598   0.440  2.3162  0.7023 -1.9348
 3033TIP3   OH230589   0.282   4.441  12.858 -0.9834  0.0221 -0.2240
 3033TIP3    H130590   0.193   4.431  12.825 -1.2875 -1.9402  1.0281
 3033TIP3    H230591   0.336   4.446  12.779 -2.0728 -0.0339 -1.0000
 3034TIP3   OH230592   2.747   3.044  12.857  0.2393 -0.0919  0.5865
 3034TIP3    H130593   2.718   2.987  12.929 -0.9874  0.9021  0.9086
 3034TIP3    H230594   2.764   3.128  12.898  0.1856  0.3081 -0.1964
 3035TIP3   OH230595   1.703   2.957  15.328 -0.3037 -0.3017 -0.0877
 3035TIP3    H130596   1.669   2.879  15.373 -1.7255  0.8715  0.9898
 3035TIP3    H230597   1.788   2.973  15.369 -0.3097 -0.9093  0.1719
 3036TIP3   OH230598   2.020   4.236   4.971 -0.2500 -0.6414  0.2032
 3036TIP3    H130599   2.051   4.309   5.025  0.6450 -0.9756  0.1627
 3036TIP3    H230600   1.980   4.277   4.895 -4.8627  0.0437  2.6266
 3037TIP3   OH230601   2.417   2.671   2.346 -0.4336  0.0588 -0.3037
 3037TIP3    H130602   2.485   2.681   2.412 -0.8895  0.1156  0.1586
 3037TIP3    H230603   2.448   2.724   2.272  0.8301 -1.2301 -0.7565
 3038TIP3   OH230604   3.154   1.285   4.090  0.6025  0.0977 -0.4734
 3038TIP3    H130605   3.137   1.367   4.135 -0.5054 -0.1618 -0.3816
 3038TIP3    H230606   3.118   1.298   4.002 -0.1260 -0.4919 -0.2680
 3039TIP3   OH230607   4.024   2.674   4.767 -0.4767 -0.1722  0.1881
 3039TIP3    H130608   4.045   2.678   4.861  0.8737  0.7129 -0.1156
 3039TIP3    H230609   3.936   2.710   4.761  0.4082  2.3475  0.8832
 3040TIP3   OH230610   3.775   1.551  11.425  0.0733 -0.1454  0.1740
 3040TIP3    H130611   3.729   1.629  11.456  1.1255  1.3043 -1.7524
 3040TIP3    H230612   3.839   1.532  11.495 -0.3003  0.6000  0.7336
 3041TIP3   OH230613   1.888   1.729  16.878 -0.4135  0.6774 -0.0161
 3041TIP3    H130614   1.811   1.785  16.869 -0.9796 -0.2774 -1.3447
 3041TIP3    H230615   1.914   1.709  16.788  1.0384  0.5023  0.4241
 3042TIP3   OH230616   3.116   4.422  15.030 -0.5700  0.7899  0.0663
 3042TIP3    H130617   3.056   4.429  15.105  0.0451  0.1921  0.6218
 3042TIP3    H230618   3.151   4.511  15.019 -1.0693  1.0004  0.1436
 3043TIP3   OH230619   5.826   4.568   0.460 -0.1172 -0.1055  0.0828
 3043TIP3    H130620   5.863   4.540   0.376  0.0461 -1.1263  0.4897
 3043TIP3    H230621   5.779   4.492   0.493  0.4181  0.0463  1.2646
 3044TIP3   OH230622   4.208   1.473   1.549 -0.2491  0.4834  0.0580
 3044TIP3    H130623   4.120   1.463   1.513 -0.4332  0.0552  0.6308
 3044TIP3    H230624   4.208   1.560   1.589  0.1178  1.1940 -1.4052
 3045TIP3   OH230625   0.349   0.353   4.973  0.6437  0.5289 -0.5377
 3045TIP3    H130626   0.334   0.348   5.067 -0.7166  0.1502 -0.7657
 3045TIP3    H230627   0.445   0.356   4.965  0.8030  3.2621  0.9727
 3046TIP3   OH230628   6.275   1.272  11.192 -0.4529 -0.0063  0.4204
 3046TIP3    H130629   6.250   1.234  11.108 -1.4608  0.0755  0.6702
 3046TIP3    H230630   6.354   1.323  11.173  0.0750 -1.0241 -0.2081
 3047TIP3   OH230631   2.448   0.632  16.099  0.1490 -0.1297  0.4512
 3047TIP3    H130632   2.358   0.616  16.072  0.4251 -0.0633 -0.5670
 3047TIP3    H230633   2.497   0.636  16.017  1.2056 -0.9205  1.0113
 3048TIP3   OH230634   3.181   1.106   6.225 -0.0995  0.2747 -0.4204
 3048TIP3    H130635   3.148   1.125   6.313 -1.8260  0.5341 -1.1006
 3048TIP3    H230636   3.144   1.021   6.203 -1.7567  1.3021 -1.8456
 3049TIP3   OH230637   3.040   1.767   2.527 -0.7714 -0.0763  0.6402
 3049TIP3    H130638   3.116   1.717   2.559  1.0437  0.7991 -1.9110
 3049TIP3    H230639   3.041   1.847   2.579 -0.2219 -0.2775  0.9581
 3050TIP3   OH230640   0.472   2.643   0.079 -0.2103 -0.1599  0.1078
 3050TIP3    H130641   0.393   2.619   0.126 -0.6294 -0.9877 -0.9966
 3050TIP3    H230642   0.493   2.731   0.110 -1.1598 -0.2170  0.9238
 3051TIP3   OH230643   6.348   0.644  16.174 -0.1309 -0.1623 -0.1557
 3051TIP3    H130644   6.337   0.564  16.123 -0.3200  1.2547 -2.4520
 3051TIP3    H230645   6.425   0.686  16.137  0.7612  0.1294  1.9168
 3052TIP3   OH230646   3.636   5.451  13.769 -0.0415  0.0508  0.2324
 3052TIP3    H130647   3.679   5.533  13.743  1.3854 -1.0546 -1.0967
 3052TIP3    H230648   3.707   5.398  13.805 -0.9173 -0.6669  0.9182
 3053TIP3   OH230649   3.648   0.915   1.291 -0.1427  0.0695  0.5722
 3053TIP3    H130650   3.578   0.979   1.300 -0.7559 -0.6396  1.0298
 3053TIP3    H230651   3.707   0.933   1.364  0.6134  1.2117 -0.3046
 3054TIP3   OH230652   4.595   5.360  16.070 -0.4318 -0.1402 -0.1065
 3054TIP3    H130653   4.671   5.303  16.063  0.1995  0.6441  0.1539
 3054TIP3    H230654   4.530   5.321  16.012  0.3389 -0.5470 -0.7177
 3055TIP3   OH230655   2.472   2.194  11.774  0.4663  0.4378  0.0912
 3055TIP3    H130656   2.430   2.236  11.849 -1.7777 -1.0407 -0.2167
 3055TIP3    H230657   2.488   2.265  11.712 -0.9825  1.2023  0.5462
 3056TIP3   OH230658   3.058   1.484   4.466 -0.1688  0.7172  0.3683
 3056TIP3    H130659   3.133   1.543   4.475 -1.3694  2.2190  0.9314
 3056TIP3    H230660   3.014   1.513   4.386  1.1282 -1.7176 -1.3295
 3057TIP3   OH230661   4.083   4.091   1.758 -0.2003  0.2501  0.0035
 3057TIP3    H130662   4.003   4.088   1.707 -0.0616  0.6304 -0.2377
 3057TIP3    H230663   4.138   4.155   1.713 -0.8359  2.1234  1.7251
 3058TIP3   OH230664   6.745   4.429   0.328  0.5039  0.7829 -0.6354
 3058TIP3    H130665   6.756   4.345   0.282 -0.5217 -0.2047  0.8254
 3058TIP3    H230666   6.666   4.466   0.289  0.5574  0.7362 -0.7926
 3059TIP3   OH230667   3.004   5.055   5.630  0.4993  0.5004 -0.6877
 3059TIP3    H130668   3.086   5.073   5.583 -0.3301  0.8920 -2.0353
 3059TIP3    H230669   2.985   4.963   5.611  1.0839  0.1488  0.3786
 3060TIP3   OH230670   1.013   2.405   2.806 -0.2439  0.6016  0.1908
 3060TIP3    H130671   0.936   2.358   2.837 -0.2695 -0.0105 -0.7708
 3060TIP3    H230672   1.086   2.344   2.819 -0.2207  0.4304 -0.7055
 3061TIP3   OH230673   5.241   3.787   2.001  0.0114 -0.2412 -0.0796
 3061TIP3    H130674   5.219   3.791   1.908 -2.4222 -1.1693  0.4078
 3061TIP3    H230675   5.313   3.724   2.006  0.8030  0.5038 -1.3929
 3062TIP3   OH230676   0.324   2.495   0.920 -0.1344  0.0453 -0.1725
 3062TIP3    H130677   0.288   2.475   1.007  3.8861 -0.7402  1.5420
 3062TIP3    H230678   0.379   2.572   0.934  0.2756  0.1540 -2.1438
 3063TIP3   OH230679   3.596   0.551   5.390 -0.5702 -0.0276  0.4171
 3063TIP3    H130680   3.649   0.472   5.402 -0.2844 -0.4584 -2.7560
 3063TIP3    H230681   3.652   0.622   5.420  0.5480 -0.7534  0.1424
 3064TIP3   OH230682   1.257   2.839   2.646 -0.3343 -0.2362  0.8596
 3064TIP3    H130683   1.181   2.809   2.695  0.6016 -1.0238  1.8526
 3064TIP3    H230684   1.271   2.772   2.580 -0.2761 -0.2732  0.9100
 3065TIP3   OH230685   4.883   1.915   2.292  0.6611  0.3133 -0.7240
 3065TIP3    H130686   4.878   1.819   2.288  0.6731  0.3415 -1.5749
 3065TIP3    H230687   4.913   1.933   2.381  0.0924 -0.4469 -0.3637
 3066TIP3   OH230688   4.526   1.012  15.080  0.2290  0.1530 -0.0732
 3066TIP3    H130689   4.601   1.071  15.083  0.1057  0.2743  0.7847
 3066TIP3    H230690   4.557   0.934  15.034  0.8064  0.3012  0.0685
 3067TIP3   OH230691   4.247   6.469  16.438 -0.7668 -0.4653 -0.6922
 3067TIP3    H130692   4.156   6.489  16.461 -0.8375  0.7256 -1.8632
 3067TIP3    H230693   4.283   6.554  16.411  0.7221 -0.9088 -0.1721
 3068TIP3   OH230694   3.330   3.298  15.185 -0.1485 -0.2757  0.1963
 3068TIP3    H130695   3.356   3.247  15.109 -0.8355 -0.3246 -0.0138
 3068TIP3    H230696   3.349   3.242  15.260 -0.8147 -0.8104 -0.0251
 3069TIP3   OH230697   5.793   5.931  12.918 -0.0856 -0.5824  0.4944
 3069TIP3    H130698   5.812   5.837  12.914  0.1056 -0.6009  1.5836
 3069TIP3    H230699   5.809   5.955  13.009 -1.5154  0.2186  0.5644
 3070TIP3   OH230700   5.092   4.009  10.747  0.2636 -0.6910 -0.0695
 3070TIP3    H130701   5.174   4.057  10.758 -0.9778  1.7724 -0.8306
 3070TIP3    H230702   5.115   3.933  10.694  1.9254  0.3525 -0.8919
 3071TIP3   OH230703   6.729   5.623  16.860  0.3717  0.7534 -0.6552
 3071TIP3    H130704   6.696   5.537  16.887 -0.4008  0.8596 -1.2238
 3071TIP3    H230705   6.767   5.608  16.773  1.1264  0.7899 -0.3304
 3072TIP3   OH230706   5.515   3.738   1.908 -0.2814 -0.3275  0.3290
 3072TIP3    H130707   5.490   3.827   1.933 -1.7263 -0.9520  1.1658
 3072TIP3    H230708   5.532   3.744   1.814 -0.9947  0.6996  0.2504
 3073TIP3   OH230709   0.300   0.947   2.900  0.1485  0.0055  0.5670
 3073TIP3    H130710   0.350   0.915   2.975  2.6104 -0.0287 -0.9962
 3073TIP3    H230711   0.261   0.869   2.862  2.1849 -0.5645 -0.4497
 3074TIP3   OH230712   5.163   0.724  11.663 -0.3918 -0.3408 -0.5230
 3074TIP3    H130713   5.246   0.747  11.704 -0.0778 -1.7054 -0.3454
 3074TIP3    H230714   5.168   0.762  11.576  1.9865 -3.2254 -1.8469
 3075TIP3   OH230715   3.623   4.015  16.340  0.3081 -0.7370  0.3323
 3075TIP3    H130716   3.641   4.077  16.270  0.5991 -0.5545  0.5675
 3075TIP3    H230717   3.610   4.069  16.418  0.1557 -0.9483  0.4553
 3076TIP3   OH230718   5.834   6.477  14.637  0.4124 -0.0377  0.3446
 3076TIP3    H130719   5.753   6.425  14.629  0.3088  0.2357 -0.4851
 3076TIP3    H230720   5.887   6.450  14.562  0.6897  0.4887  0.3463
 3077TIP3   OH230721   5.850   6.514  11.501 -0.1116  0.6443 -0.0427
 3077TIP3    H130722   5.873   6.533  11.410  0.4333  0.0919 -0.0252
 3077TIP3    H230723   5.773   6.568  11.518 -0.8486 -0.0336 -1.1464
 3078TIP3   OH230724   3.280   0.083  14.924  0.2571 -0.0450  0.1036
 3078TIP3    H130725   3.312  -0.003  14.898 -0.4890  0.4324 -2.6545
 3078TIP3    H230726   3.192   0.089  14.887  0.0333  1.6786  0.7879
 3079TIP3   OH230727   5.317   5.175  17.118  0.3480 -0.4853 -0.7521
 3079TIP3    H130728   5.382   5.241  17.142 -1.8034  0.7973  2.0768
 3079TIP3    H230729   5.261   5.219  17.054  0.5510 -0.5890 -1.0045
 3080TIP3   OH230730   2.160   2.091  13.725  0.3594  0.1095 -0.0691
 3080TIP3    H130731   2.160   2.003  13.763  0.3156  0.4282  0.6946
 3080TIP3    H230732   2.074   2.099  13.684  0.7364 -0.5629 -1.0244
 3081TIP3   OH230733   3.242   0.090  11.929 -0.5559 -0.0886  0.1417
 3081TIP3    H130734   3.231   0.171  11.880  0.2589  0.5803  1.0063
 3081TIP3    H230735   3.244   0.021  11.863  2.0577  0.9031 -0.9602
 3082TIP3   OH230736   5.595   5.131   0.436  0.0979 -0.5046 -0.2256
 3082TIP3    H130737   5.532   5.138   0.365 -1.2868 -0.5938  0.9602
 3082TIP3    H230738   5.576   5.205   0.493  3.1109  1.3187 -1.3432
 3083TIP3   OH230739   0.478   6.667  15.079 -0.1656 -0.3609  0.2514
 3083TIP3    H130740   0.501   6.718  15.157 -0.6046  0.9106 -0.4331
 3083TIP3    H230741   0.562   6.632  15.048  0.2384  0.4537  0.3845
 3084TIP3   OH230742   5.785   0.519  11.623 -0.2181 -0.5994 -0.5249
 3084TIP3    H130743   5.859   0.568  11.587 -0.2311 -0.0628  0.1605
 3084TIP3    H230744   5.712   0.541  11.565  0.3054 -1.7165 -1.6484
 3085TIP3   OH230745   5.904   1.489  15.189 -0.0857  0.0926 -0.2957
 3085TIP3    H130746   5.905   1.393  15.194  1.7687 -0.0000 -1.2931
 3085TIP3    H230747   5.924   1.508  15.097  0.2748  1.4263  0.0425
 3086TIP3   OH230748   6.770   6.540  11.975 -0.1259 -0.1171  0.1553
 3086TIP3    H130749   6.698   6.601  11.992 -1.2287 -1.2475 -0.2500
 3086TIP3    H230750   6.819   6.537  12.057 -0.5779  0.6372  0.4621
 3087TIP3   OH230751   4.433   2.080  11.257 -0.2045  0.3798  0.3182
 3087TIP3    H130752   4.503   2.145  11.257 -0.4628  0.6776  1.2648
 3087TIP3    H230753   4.391   2.090  11.171  1.4524 -0.4400 -0.6543
 3088TIP3   OH230754   2.126   0.487   5.494 -0.2476  0.0199 -0.2841
 3088TIP3    H130755   2.117   0.494   5.399 -3.5913 -0.0852 -0.0748
 3088TIP3    H230756   2.144   0.576   5.524  3.6887 -0.3024 -1.0703
 3089TIP3   OH230757   0.547   6.290  15.131  0.0123 -0.7522  0.1199
 3089TIP3    H130758   0.613   6.359  15.130  1.5162 -2.0917 -1.5346
 3089TIP3    H230759   0.527   6.275  15.038 -2.1373 -0.8630  0.5677
 3090TIP3   OH230760   4.129   2.659   0.433 -0.2575 -0.8307  0.0341
 3090TIP3    H130761   4.125   2.596   0.506  0.9476 -0.0676  0.8025
 3090TIP3    H230762   4.122   2.745   0.475  1.6149 -0.3290 -0.5834
 3091TIP3   OH230763   1.415   1.937  10.779  0.3185 -0.1483 -0.6107
 3091TIP3    H130764   1.343   1.898  10.729  1.1710 -1.1201 -1.1142
 3091TIP3    H230765   1.480   1.959  10.712  0.3476  1.0626 -0.2018
 3092TIP3   OH230766   1.313   3.570   4.028 -0.1903 -0.3826 -0.2800
 3092TIP3    H130767   1.268   3.495   4.067 -0.2395 -0.4134 -0.3967
 3092TIP3    H230768   1.243   3.625   3.993 -0.1364 -0.4479 -0.4931
 3093TIP3   OH230769   3.527   2.106   3.914  0.3958 -0.0338  0.2894
 3093TIP3    H130770   3.479   2.128   3.994  0.8745  1.1353  0.2822
 3093TIP3    H230771   3.558   2.190   3.881  3.0346 -0.7329  0.6824
 3094TIP3   OH230772   2.823   4.436   3.594  0.1630  0.2239 -0.0895
 3094TIP3    H130773   2.873   4.409   3.671 -0.3173 -1.0999 -0.2169
 3094TIP3    H230774   2.865   4.389   3.521 -0.4314  0.1472 -0.3867
 3095TIP3   OH230775   6.632   0.516   6.614  0.2711  0.2193 -0.0544
 3095TIP3    H130776   6.683   0.589   6.648  1.1524  0.5044 -1.8577
 3095TIP3    H230777   6.698   0.454   6.582 -0.4873 -0.1107 -1.0221
 3096TIP3   OH230778   4.530   6.336  11.262  0.1627  0.7168  0.1996
 3096TIP3    H130779   4.491   6.413  11.219  1.1406  0.7129 -0.7508
 3096TIP3    H230780   4.574   6.372  11.339  0.2617  1.0576 -0.0099
 3097TIP3   OH230781   5.492   4.696  15.512 -0.3942 -0.1783  0.2700
 3097TIP3    H130782   5.501   4.706  15.606 -0.4832  0.8986  0.1779
 3097TIP3    H230783   5.441   4.773  15.484  0.1836 -0.1340 -0.7329
 3098TIP3   OH230784   4.106   0.841  12.514 -0.4443 -0.5095 -0.4720
 3098TIP3    H130785   4.118   0.805  12.601 -0.3620 -0.9896 -0.6792
 3098TIP3    H230786   4.013   0.830  12.496 -0.5670  0.0847 -0.2335
 3099TIP3   OH230787   3.656   0.126  14.645 -0.2399  0.5861  0.2500
 3099TIP3    H130788   3.712   0.148  14.571  1.1942  1.0528  1.4136
 3099TIP3    H230789   3.572   0.101  14.606 -0.3444  3.1792 -1.4311
 3100TIP3   OH230790   2.629   0.417   0.392  0.0559 -0.7626 -0.5644
 3100TIP3    H130791   2.574   0.368   0.453 -1.6960 -2.4469 -3.3005
 3100TIP3    H230792   2.712   0.368   0.390  1.0922  0.7028  2.1490
 3101TIP3   OH230793   0.312   0.563  14.326 -0.3547  0.5084  0.1762
 3101TIP3    H130794   0.256   0.503  14.278  2.1342 -0.4567 -1.7648
 3101TIP3    H230795   0.337   0.629  14.261  1.9272  0.0029  0.4544
 3102TIP3   OH230796   2.629   1.550   1.416  0.0459 -0.5369 -0.1577
 3102TIP3    H130797   2.628   1.637   1.457  1.7546 -0.4032 -0.3285
 3102TIP3    H230798   2.660   1.492   1.485  0.2036 -0.7850 -0.4352
 3103TIP3   OH230799   6.337   3.326   3.698 -0.0164 -0.1300 -0.1644
 3103TIP3    H130800   6.351   3.253   3.757  0.2908  0.2991  0.3023
 3103TIP3    H230801   6.415   3.328   3.643  1.5391  1.8075  1.9504
 3104TIP3   OH230802   2.793   0.079  10.285  0.0811 -0.8010 -0.6650
 3104TIP3    H130803   2.705   0.042  10.280 -0.3285  0.0815 -0.3364
 3104TIP3    H230804   2.844   0.029  10.222 -0.7284 -1.1337 -1.0715
 3105TIP3   OH230805   0.836   5.955  14.727  0.4572 -0.8551  0.6107
 3105TIP3    H130806   0.928   5.942  14.702  0.3017 -0.5499 -0.1289
 3105TIP3    H230807   0.835   6.040  14.772  0.7291 -1.3841  1.6381
 3106TIP3   OH230808   4.196   1.435  14.490 -0.1380  0.1005 -0.2437
 3106TIP3    H130809   4.191   1.446  14.585 -0.6036 -0.4396 -0.2031
 3106TIP3    H230810   4.213   1.342  14.477 -0.2126  0.1470 -0.6969
 3107TIP3   OH230811   6.243   3.860   3.842 -0.8260 -0.4677  0.0133
 3107TIP3    H130812   6.198   3.819   3.768  0.4303 -1.4030 -0.2568
 3107TIP3    H230813   6.290   3.789   3.885  1.5988  0.6691 -0.5933
 3108TIP3   OH230814   6.408   6.007   3.176  0.1801  0.1723  0.5800
 3108TIP3    H130815   6.453   6.060   3.110 -0.5471 -1.2911 -1.1853
 3108TIP3    H230816   6.315   6.026   3.163  0.0749  0.6138  1.8799
 3109TIP3   OH230817   4.133   4.215  13.133  0.1275 -0.2439  0.4348
 3109TIP3    H130818   4.156   4.191  13.044  2.1274 -0.1843  0.8790
 3109TIP3    H230819   4.072   4.288  13.124 -0.5788 -0.9778 -0.8682
 3110TIP3   OH230820   5.062   3.010  14.945  0.4653 -0.1839  0.3884
 3110TIP3    H130821   5.033   3.048  15.029  0.4486  0.6972 -0.0085
 3110TIP3    H230822   5.124   3.074  14.910  0.7406 -0.7196 -0.1145
 3111TIP3   OH230823   0.498   1.492   1.693 -0.2250 -0.4448 -0.4808
 3111TIP3    H130824   0.545   1.429   1.640  1.3234  0.2257  0.0360
 3111TIP3    H230825   0.487   1.449   1.778 -0.2123 -0.4564 -0.4851
 3112TIP3   OH230826   4.032   0.574   1.578  0.4549  0.9771  0.1287
 3112TIP3    H130827   4.029   0.648   1.519  2.0421  1.9979  1.2446
 3112TIP3    H230828   4.121   0.540   1.570 -0.6617 -1.8662 -1.5384
 3113TIP3   OH230829   3.696   3.407   0.135  0.1742  0.3098  0.1430
 3113TIP3    H130830   3.644   3.445   0.064  1.4689 -0.0345 -1.0353
 3113TIP3    H230831   3.742   3.333   0.094  0.6929 -0.1065  1.4281
 3114TIP3   OH230832   1.617   4.884   2.828 -0.4532  0.5503 -0.0563
 3114TIP3    H130833   1.698   4.833   2.828 -0.7986 -0.2707  3.7084
 3114TIP3    H230834   1.645   4.973   2.847 -0.2924  0.7115 -1.0098
 3115TIP3   OH230835   5.195   6.404   5.356  0.1898 -0.0913 -0.5740
 3115TIP3    H130836   5.263   6.365   5.411  0.9229 -0.3129 -1.6165
 3115TIP3    H230837   5.242   6.444   5.283 -0.6481  1.5710 -0.2526
 3116TIP3   OH230838   6.399   3.231   4.927 -0.4177 -0.0491  0.1013
 3116TIP3    H130839   6.451   3.151   4.937  0.7175  0.7260  0.7332
 3116TIP3    H230840   6.448   3.297   4.976 -1.9006  0.7862  0.5329
 3117TIP3   OH230841   1.364   4.280  14.787 -0.3031 -0.3804  0.0838
 3117TIP3    H130842   1.403   4.268  14.701 -1.6634  0.5340 -0.7068
 3117TIP3    H230843   1.430   4.327  14.838  0.3031 -0.4478 -0.6278
 3118TIP3   OH230844   4.602   6.633  13.667 -0.3989  0.2248  0.1890
 3118TIP3    H130845   4.648   6.660  13.747 -2.7496  0.4765  1.5379
 3118TIP3    H230846   4.577   6.715  13.625 -0.5180  0.0928  0.0042
 3119TIP3   OH230847   2.251   6.017   2.905  0.0670  0.0389  0.4551
 3119TIP3    H130848   2.235   5.924   2.890  1.9969 -0.2324 -0.2309
 3119TIP3    H230849   2.227   6.031   2.996  0.3812 -1.3028  0.7731
 3120TIP3   OH230850   6.335   5.606  16.800 -0.1527 -0.3650 -0.1265
 3120TIP3    H130851   6.403   5.667  16.829  0.6710 -1.3694  0.1330
 3120TIP3    H230852   6.281   5.657  16.740  0.6564  0.5429 -0.1154
 3121TIP3   OH230853   2.758   5.439  13.597 -0.1361  0.1213  0.5141
 3121TIP3    H130854   2.816   5.501  13.641 -1.0639  1.1577  0.3086
 3121TIP3    H230855   2.768   5.457  13.504  0.2099 -0.6070  0.4046
 3122TIP3   OH230856   1.518   2.636   5.306 -0.2104  0.3672 -0.4598
 3122TIP3    H130857   1.558   2.704   5.253  0.4249 -1.3645 -2.3451
 3122TIP3    H230858   1.437   2.614   5.261 -0.5612  0.0848  0.2892
 3123TIP3   OH230859   6.730   0.925   1.157  0.4669  0.0954 -0.2036
 3123TIP3    H130860   6.737   0.969   1.242  1.1761 -0.9868  0.3288
 3123TIP3    H230861   6.637   0.931   1.135  0.0852 -0.4253  1.1159
 3124TIP3   OH230862   3.383   2.772  14.193 -0.0117 -0.2517  0.1593
 3124TIP3    H130863   3.417   2.702  14.250 -1.4625 -1.8663 -0.8574
 3124TIP3    H230864   3.315   2.814  14.245  0.5430  0.1141  0.6042
 3125TIP3   OH230865   3.152   4.184  14.763  0.0881 -0.5908 -0.0317
 3125TIP3    H130866   3.203   4.107  14.738  1.2986  0.3153 -0.4476
 3125TIP3    H230867   3.164   4.190  14.858  1.1760 -0.1277 -0.1810
 3126TIP3   OH230868   6.269   0.699  10.786  0.0368  0.1762  0.0883
 3126TIP3    H130869   6.284   0.645  10.864  1.2942  0.5158  0.0908
 3126TIP3    H230870   6.326   0.662  10.719 -0.8970  0.0057 -0.6433
 3127TIP3   OH230871   4.066   1.370  13.169 -0.0250  0.1272 -0.0495
 3127TIP3    H130872   4.089   1.280  13.144  0.4482  0.3312 -0.3692
 3127TIP3    H230873   4.135   1.396  13.229  0.2737  0.5452 -0.5649
 3128TIP3   OH230874   3.299   6.136  10.706  0.1477 -0.1589 -0.4785
 3128TIP3    H130875   3.349   6.213  10.681  0.2667 -0.6360 -1.7737
 3128TIP3    H230876   3.350   6.062  10.674  0.8822 -0.9294  2.1695
 3129TIP3   OH230877   0.901   0.489  13.050 -0.4392 -0.1528 -0.6506
 3129TIP3    H130878   0.935   0.485  12.961 -0.5018  0.3641 -0.6952
 3129TIP3    H230879   0.978   0.472  13.105 -0.1869  0.5759 -0.7677
 3130TIP3   OH230880   0.024   2.132  11.897 -0.3360 -0.0237  0.2493
 3130TIP3    H130881   0.079   2.076  11.842 -0.0882 -0.7831  1.2546
 3130TIP3    H230882   0.085   2.187  11.945 -0.4752 -0.3643  0.8297
 3131TIP3   OH230883   5.633   1.870   1.802 -0.1908 -0.2476 -0.0862
 3131TIP3    H130884   5.647   1.905   1.890 -1.3995 -0.0691  0.0422
 3131TIP3    H230885   5.603   1.944   1.750 -1.5556 -0.7932 -0.1146
 3132TIP3   OH230886   5.381   4.204  15.878  0.4519 -0.3233  0.3817
 3132TIP3    H130887   5.341   4.246  15.954 -1.0075 -1.9831  0.6084
 3132TIP3    H230888   5.370   4.267  15.807  0.7029  0.7299  1.2506
 3133TIP3   OH230889   3.600   4.828  10.776 -0.2943  0.5325 -0.0027
 3133TIP3    H130890   3.616   4.751  10.721 -2.5111 -0.9084  1.1788
 3133TIP3    H230891   3.630   4.801  10.863  0.1664  1.5359  0.1557
 3134TIP3   OH230892   3.922   6.543   3.398 -0.2896 -0.0247 -0.5732
 3134TIP3    H130893   3.979   6.467   3.395 -0.2510 -0.0302  0.0700
 3134TIP3    H230894   3.844   6.517   3.350  0.6694  0.3669 -2.4665
 3135TIP3   OH230895   2.878   4.180  10.767  0.4085  0.1445 -0.5860
 3135TIP3    H130896   2.873   4.110  10.702  1.0963  1.1901 -1.7949
 3135TIP3    H230897   2.833   4.144  10.844  1.9102 -2.1511 -0.6823
 3136TIP3   OH230898   1.950   1.120   0.213 -0.1289  0.7209  0.0850
 3136TIP3    H130899   1.874   1.083   0.259 -1.0126  1.8571 -0.4216
 3136TIP3    H230900   1.918   1.201   0.174  1.6575  1.8830  0.8740
 3137TIP3   OH230901   2.729   0.290   1.509 -0.1149  0.5118 -0.3505
 3137TIP3    H130902   2.660   0.286   1.575 -1.2211  1.2697 -1.4246
 3137TIP3    H230903   2.792   0.224   1.537 -1.8990 -1.1676 -0.0238
 3138TIP3   OH230904   4.296   0.015  16.832  0.0088 -0.1133  0.0102
 3138TIP3    H130905   4.360   0.038  16.765  0.0220  1.1103  0.4303
 3138TIP3    H230906   4.211   0.032  16.791 -0.0526 -0.9782 -0.2634
 3139TIP3   OH230907   0.861   3.665   1.844  0.2778  0.1159 -0.4833
 3139TIP3    H130908   0.781   3.633   1.885  0.8126  0.0941  0.5847
 3139TIP3    H230909   0.836   3.683   1.753 -1.0731  0.6332 -0.0406
 3140TIP3   OH230910   0.002   0.689   4.235 -0.5421  0.2968  0.1223
 3140TIP3    H130911   0.081   0.647   4.269 -0.5494  0.7029  0.6607
 3140TIP3    H230912  -0.067   0.624   4.246 -0.2325 -0.1518 -0.5881
 3141TIP3   OH230913   3.653   3.923  17.029  0.4263  0.2298 -0.4074
 3141TIP3    H130914   3.649   3.922  17.125  0.9551  2.3462 -0.3296
 3141TIP3    H230915   3.561   3.922  17.002  0.2408 -2.6236 -0.0093
 3142TIP3   OH230916   5.042   1.342   5.951 -0.4179 -0.2747 -0.1916
 3142TIP3    H130917   5.068   1.382   5.868 -1.3153 -0.1869 -0.4396
 3142TIP3    H230918   4.986   1.407   5.993 -1.1359 -0.8906 -0.1771
 3143TIP3   OH230919   0.718   3.258  10.759 -0.4223 -0.2599 -0.0586
 3143TIP3    H130920   0.628   3.231  10.739 -0.5896  0.8604 -0.9111
 3143TIP3    H230921   0.716   3.354  10.756  0.5684 -0.1873  0.9793
 3144TIP3   OH230922   2.662   2.591  13.186 -0.3754 -0.4713  0.0969
 3144TIP3    H130923   2.675   2.509  13.233 -1.1028 -0.2817  0.6418
 3144TIP3    H230924   2.663   2.566  13.093 -1.4037 -1.2232  0.2733
 3145TIP3   OH230925   5.052   0.753  15.454 -0.3961 -0.9508  0.2847
 3145TIP3    H130926   4.998   0.779  15.380 -0.6413 -3.4390 -0.5160
 3145TIP3    H230927   5.142   0.758  15.421 -0.0519  2.6023  1.4283
 3146TIP3   OH230928   1.224   0.517   4.752  0.1285 -0.7736 -0.7956
 3146TIP3    H130929   1.189   0.468   4.678  0.0663 -1.3097 -0.4142
 3146TIP3    H230930   1.172   0.598   4.754  0.4065 -0.5759 -1.5783
 3147TIP3   OH230931   1.768   5.174   0.498  0.0563 -0.7445  0.0914
 3147TIP3    H130932   1.683   5.204   0.530  0.3199  0.2705 -0.1164
 3147TIP3    H230933   1.830   5.240   0.529  0.4525 -0.2442 -1.6474
 3148TIP3   OH230934   3.452   5.942  10.593  0.0501  0.2213  0.2175
 3148TIP3    H130935   3.432   5.909  10.505 -2.4464 -0.1009  0.8270
 3148TIP3    H230936   3.544   5.919  10.607  0.0224 -1.2511 -1.6276
 3149TIP3   OH230937   6.451   4.035  12.038  0.6051 -0.4575  0.6177
 3149TIP3    H130938   6.447   4.130  12.043  1.9024 -0.3415 -0.2212
 3149TIP3    H230939   6.434   4.015  11.946  3.8453 -0.7795 -0.0001
 3150TIP3   OH230940   5.986   0.273   2.624  0.2870  0.3838 -0.2125
 3150TIP3    H130941   5.998   0.316   2.539  2.0952 -2.3032 -1.4750
 3150TIP3    H230942   5.958   0.184   2.601 -1.9912  0.3759  2.1808
 3151TIP3   OH230943   5.118   1.905   0.971 -0.3433 -0.2063  0.6918
 3151TIP3    H130944   5.067   1.984   0.951 -1.1941 -0.8657  0.1791
 3151TIP3    H230945   5.137   1.911   1.064 -0.4911  0.5570  0.6749
 3152TIP3   OH230946   4.923   3.617   4.150  0.2543 -0.1634 -0.5146
 3152TIP3    H130947   4.874   3.684   4.197  1.4036  0.8745 -0.7711
 3152TIP3    H230948   4.962   3.563   4.218  0.5059  0.3040 -0.2836
 3153TIP3   OH230949   5.721   3.895  14.618  0.0675  0.2092  0.0844
 3153TIP3    H130950   5.651   3.873  14.679 -0.1541  0.0355 -0.2307
 3153TIP3    H230951   5.749   3.811  14.582  1.0211  0.1827  0.8336
 3154TIP3   OH230952   4.988   0.872  11.838  0.2300  0.5495 -0.2297
 3154TIP3    H130953   4.998   0.811  11.765 -1.0846  0.0769 -0.0467
 3154TIP3    H230954   5.064   0.856  11.893 -0.3676 -1.3864  0.1129
 3155TIP3   OH230955   3.549   2.855  13.340  0.7894  0.0700  0.3488
 3155TIP3    H130956   3.490   2.824  13.409 -0.6994  0.5643 -0.6422
 3155TIP3    H230957   3.583   2.938  13.373  2.9321 -1.3314  1.9797
 3156TIP3   OH230958   1.070   5.792  15.092  0.4283 -0.2468 -0.1774
 3156TIP3    H130959   1.095   5.792  15.184 -2.0871  2.7289  0.6845
 3156TIP3    H230960   1.102   5.876  15.059 -1.0830 -0.0315 -1.2080
 3157TIP3   OH230961   1.752   0.908  10.731  0.0359  0.3075 -0.5088
 3157TIP3    H130962   1.704   0.860  10.799 -0.3193 -0.5306 -1.3257
 3157TIP3    H230963   1.693   0.978  10.704  0.6086  1.3415  0.7846
 3158TIP3   OH230964   5.864   4.875   2.785 -0.6938 -0.3201 -0.1629
 3158TIP3    H130965   5.877   4.961   2.826  0.5033 -0.6407  0.1676
 3158TIP3    H230966   5.864   4.892   2.691  2.3087 -0.2373 -0.2407
 3159TIP3   OH230967   0.803   4.859   3.651 -0.1044 -0.0743  0.1882
 3159TIP3    H130968   0.729   4.819   3.605  0.3175 -1.0944  0.3618
 3159TIP3    H230969   0.797   4.952   3.631 -1.5875 -0.0968  0.4205
 3160TIP3   OH230970   2.810   2.620   4.942 -0.2986 -0.0786  0.8510
 3160TIP3    H130971   2.735   2.590   4.890 -1.5436  0.2124  2.4138
 3160TIP3    H230972   2.773   2.679   5.007  1.3772  0.5022  1.3446
 3161TIP3   OH230973   2.485   0.035  15.821  0.4771 -0.4023  0.1910
 3161TIP3    H130974   2.409   0.022  15.764  0.5490  0.8391 -0.2142
 3161TIP3    H230975   2.458   0.106  15.880  0.3711 -1.7173  1.7794
 3162TIP3   OH230976   3.546   5.226  14.140 -0.6237 -0.1980 -0.1752
 3162TIP3    H130977   3.528   5.148  14.194 -1.5784 -0.2575 -0.5535
 3162TIP3    H230978   3.511   5.299  14.192  2.3020  0.3290  1.2488
 3163TIP3   OH230979   6.819   2.918   4.839  0.3360  0.3968 -0.0016
 3163TIP3    H130980   6.792   2.872   4.759 -0.8141 -1.3409  1.2925
 3163TIP3    H230981   6.890   2.864   4.875  1.1615  1.4122 -0.0394
 3164TIP3   OH230982   2.420   3.842  10.827  0.3110 -0.0564 -0.3182
 3164TIP3    H130983   2.481   3.808  10.761  0.3235 -0.7308  0.0310
 3164TIP3    H230984   2.339   3.792  10.813  0.8151 -1.3855  1.2162
 3165TIP3   OH230985   2.016   1.321  15.152 -0.0836  0.4192 -1.6589
 3165TIP3    H130986   1.976   1.340  15.067 -0.2127  0.9744 -1.4749
 3165TIP3    H230987   2.061   1.401  15.176 -2.6034  1.3925  0.2407
 3166TIP3   OH230988   2.816   2.442   2.281  0.1535 -0.3719 -0.1300
 3166TIP3    H130989   2.737   2.414   2.328  0.9622  1.4126  2.5430
 3166TIP3    H230990   2.791   2.523   2.237  0.5736  0.4985  1.1790
 3167TIP3   OH230991   0.435   5.738   3.277 -0.3448 -0.5224 -0.3340
 3167TIP3    H130992   0.448   5.678   3.203  0.3398  2.0591 -2.4659
 3167TIP3    H230993   0.523   5.772   3.295 -0.7041 -0.1865  0.8687
 3168TIP3   OH230994   6.306   0.666   3.965  0.0876 -0.0519  0.3186
 3168TIP3    H130995   6.259   0.599   4.015  2.2076 -0.5961  1.7184
 3168TIP3    H230996   6.279   0.651   3.874 -0.8854 -1.6211  0.8234
 3169TIP3   OH230997   3.791   0.441  10.684  0.5377  0.6543 -0.0225
 3169TIP3    H130998   3.866   0.395  10.723  2.3074  1.5270 -2.1633
 3169TIP3    H230999   3.802   0.531  10.714 -1.0643  0.3765  1.5391
 3170TIP3   OH231000   1.839   6.405  14.920 -0.4939  0.2451 -0.4893
 3170TIP3    H131001   1.853   6.440  15.008 -1.7213 -1.1486  0.3022
 3170TIP3    H231002   1.788   6.472  14.874  0.1042  0.9527 -0.1315
 3171TIP3   OH231003   2.493   1.086   5.377  0.0336  0.3605 -0.2494
 3171TIP3    H131004   2.488   1.174   5.340 -0.2693  0.5123  0.1475
 3171TIP3    H231005   2.441   1.032   5.318 -0.4787  0.6078 -0.0268
 3172TIP3   OH231006   3.380   1.257   1.979 -0.0689 -0.1643 -0.0217
 3172TIP3    H131007   3.461   1.271   2.028  0.5617 -0.9888 -0.7886
 3172TIP3    H231008   3.375   1.162   1.969 -0.3441 -0.0342 -1.2641
 3173TIP3   OH231009   2.457   5.798   1.950  0.0538 -0.0010 -0.1065
 3173TIP3    H131010   2.375   5.846   1.939  0.7491  1.3022  0.2455
 3173TIP3    H231011   2.500   5.804   1.865  0.5937  0.8850  0.2177
 3174TIP3   OH231012   6.333   4.502   5.675 -0.0050  0.2420  0.3858
 3174TIP3    H131013   6.386   4.582   5.673 -0.0587  0.2741  0.2172
 3174TIP3    H231014   6.256   4.526   5.726 -0.3423  0.5010 -0.2331
 3175TIP3   OH231015   6.379   1.014  14.307  0.3386 -0.0375  1.7349
 3175TIP3    H131016   6.289   1.020  14.340 -0.5277 -0.5907 -0.3378
 3175TIP3    H231017   6.377   1.063  14.225  2.1184  0.4573  1.9516
 3176TIP3   OH231018   6.368   4.960   3.102  0.1559  0.6180  0.3617
 3176TIP3    H131019   6.354   4.871   3.070 -1.0248  0.6480  0.7579
 3176TIP3    H231020   6.420   4.948   3.181  0.0319  0.2752  0.3959
 3177TIP3   OH231021   4.161   1.673   2.517  0.2423 -0.4482  0.0074
 3177TIP3    H131022   4.120   1.592   2.488 -2.1528  1.0075 -1.0141
 3177TIP3    H231023   4.133   1.681   2.609 -0.0994 -0.4627 -0.0913
 3178TIP3   OH231024   4.780   1.892   0.326  0.1321  0.2975  0.0003
 3178TIP3    H131025   4.838   1.820   0.304 -2.0474 -1.9576  1.1730
 3178TIP3    H231026   4.837   1.959   0.364  2.2174 -0.7388 -1.1462
 3179TIP3   OH231027   1.958   4.220   1.255  0.1336  0.3404  0.4229
 3179TIP3    H131028   2.003   4.147   1.297  0.8161  0.7178  0.3563
 3179TIP3    H231029   2.008   4.236   1.174  0.9992  1.9322  1.2267
 3180TIP3   OH231030   3.051   2.614  12.469  0.3124  0.2516  0.6838
 3180TIP3    H131031   3.105   2.626  12.390  2.4166  0.6572  2.0857
 3180TIP3    H231032   3.027   2.703  12.495 -1.0168  0.0789  0.1363
 3181TIP3   OH231033   1.903   2.811  10.681  0.2118 -0.2592  0.4017
 3181TIP3    H131034   1.910   2.716  10.692 -0.6222 -0.4920 -0.8665
 3181TIP3    H231035   1.878   2.823  10.590  0.8075  1.2208  0.4017
 3182TIP3   OH231036   2.331   4.765  10.165 -0.0481 -0.1006 -0.0110
 3182TIP3    H131037   2.400   4.828  10.186  0.2072  0.2061 -1.6401
 3182TIP3    H231038   2.376   4.680  10.169  0.1070 -0.0136  0.1461
 3183TIP3   OH231039   2.319   2.594  16.327  0.3817  0.0694 -0.3593
 3183TIP3    H131040   2.250   2.641  16.281 -0.6990  0.4944  1.5625
 3183TIP3    H231041   2.401   2.635  16.298 -0.3815  1.5430 -0.4840
 3184TIP3   OH231042   0.282   4.138  11.297  0.0262  0.0949  0.1757
 3184TIP3    H131043   0.355   4.152  11.357 -0.2741 -2.2842  1.2199
 3184TIP3    H231044   0.277   4.043  11.287 -1.8192  0.2864 -1.2716
 3185TIP3   OH231045   0.963   2.957   3.377 -0.2097 -0.1726  0.1069
 3185TIP3    H131046   1.052   2.981   3.350 -0.8031  1.8336 -0.2292
 3185TIP3    H231047   0.971   2.941   3.471  0.7037 -1.1685 -0.1146
 3186TIP3   OH231048   3.573   2.734   0.308 -0.0241 -0.1560  0.2131
 3186TIP3    H131049   3.650   2.711   0.360 -0.3817 -0.4404  0.6236
 3186TIP3    H231050   3.500   2.694   0.355 -0.3322 -0.5850 -0.6191
 3187TIP3   OH231051   6.685   4.036   2.578  0.2244 -0.4279 -0.4403
 3187TIP3    H131052   6.728   4.120   2.560  2.4918 -1.0547  1.4711
 3187TIP3    H231053   6.685   3.990   2.494 -1.4925  1.5706 -1.6363
 3188TIP3   OH231054   4.189   0.107   6.083  0.4827 -0.0636  0.5489
 3188TIP3    H131055   4.181   0.120   5.989 -0.0880 -0.1828  0.5798
 3188TIP3    H231056   4.156   0.019   6.099  1.9915 -0.6294  0.6692
 3189TIP3   OH231057   3.014   4.269  15.727  0.0894  0.1838  0.3531
 3189TIP3    H131058   3.049   4.186  15.761 -0.6666  0.0370  0.7986
 3189TIP3    H231059   3.044   4.335  15.789 -0.0598  0.1141  0.5022
 3190TIP3   OH231060   6.400   4.198   0.483 -0.0906  0.3066 -0.1395
 3190TIP3    H131061   6.322   4.246   0.456 -0.0190 -1.3891 -4.0186
 3190TIP3    H231062   6.366   4.115   0.519 -0.0846  0.4251  0.1442
 3191TIP3   OH231063   5.918   0.555   4.147 -0.0563 -0.2351 -0.3146
 3191TIP3    H131064   5.972   0.518   4.217 -0.5625 -0.2012  0.1031
 3191TIP3    H231065   5.834   0.572   4.189 -0.8198 -1.4954 -1.2758
 3192TIP3   OH231066   0.925   6.264  10.894  0.1832  0.9323  0.3158
 3192TIP3    H131067   0.931   6.247  10.800 -3.7485  2.3017 -0.3657
 3192TIP3    H231068   0.917   6.177  10.933  1.2536  0.3721 -0.6461
 3193TIP3   OH231069   0.463   1.464  10.360 -0.1747  0.2846 -0.2130
 3193TIP3    H131070   0.519   1.425  10.293 -0.6094  0.2753 -0.5782
 3193TIP3    H231071   0.384   1.492  10.312 -1.5987 -1.9782  0.6607
 3194TIP3   OH231072   2.809   2.155   3.416 -0.3271 -0.5222  0.2351
 3194TIP3    H131073   2.830   2.076   3.466 -0.3274  1.0526  2.8773
 3194TIP3    H231074   2.721   2.139   3.383  0.5093 -2.5126 -1.2691
 3195TIP3   OH231075   6.022   5.621  13.101 -0.0659  0.2800  0.4899
 3195TIP3    H131076   6.067   5.687  13.049  0.2398 -1.2421 -1.2553
 3195TIP3    H231077   5.996   5.554  13.039 -2.0989 -0.3580  1.9111
 3196TIP3   OH231078   5.472   6.769   2.535  0.2588 -0.0059  0.5484
 3196TIP3    H131079   5.489   6.815   2.453 -0.9186 -0.0974  0.2385
 3196TIP3    H231080   5.422   6.831   2.588  1.3664  0.2062  1.3789
 3197TIP3   OH231081   6.657   1.515   2.041 -0.2450 -0.6105 -0.2684
 3197TIP3    H131082   6.623   1.432   2.074  0.3227  0.3458  3.0741
 3197TIP3    H231083   6.641   1.577   2.112  0.6871  1.8181 -2.0582
 3198TIP3   OH231084   2.427   6.137   2.402 -0.1165  0.3943  0.5653
 3198TIP3    H131085   2.507   6.181   2.430  1.8093 -1.1656 -2.0147
 3198TIP3    H231086   2.415   6.066   2.465  1.9535 -0.7709 -0.2482
 3199TIP3   OH231087   1.466   2.362   0.179  0.5233  0.2973  0.0439
 3199TIP3    H131088   1.554   2.325   0.178  1.1666  1.7400 -1.5270
 3199TIP3    H231089   1.437   2.357   0.089 -0.8806  0.1841  0.4819
 3200TIP3   OH231090   6.680   0.677  11.596 -0.0644 -0.4618 -0.3536
 3200TIP3    H131091   6.661   0.610  11.531 -0.3067 -0.0910 -0.6658
 3200TIP3    H231092   6.603   0.677  11.654  0.7530 -1.7918  0.8092
 3201TIP3   OH231093   1.773   5.963  15.176  0.1286 -0.0120  0.4573
 3201TIP3    H131094   1.867   5.949  15.185  0.6864  2.5063 -0.5355
 3201TIP3    H231095   1.738   5.947  15.264  0.9126 -3.8676  0.2623
 3202TIP3   OH231096   6.591   1.449  17.020 -0.0016  0.0243  0.5207
 3202TIP3    H131097   6.635   1.494  17.092  1.8704 -1.3904  0.3436
 3202TIP3    H231098   6.634   1.483  16.941 -0.2803 -0.2709  0.2413
 3203TIP3   OH231099   4.017   2.905   0.484  0.2024 -0.2980 -0.4506
 3203TIP3    H131100   4.070   2.983   0.468  1.0134 -0.7499 -0.0320
 3203TIP3    H231101   3.938   2.938   0.526  0.7598  0.2558  0.1867
 3204TIP3   OH231102   1.164   4.815   0.733  0.1784  0.2284 -0.2565
 3204TIP3    H131103   1.124   4.858   0.809 -0.4121  0.5733 -0.7434
 3204TIP3    H231104   1.098   4.825   0.664  0.3875 -0.7408 -0.6071
 3205TIP3   OH231105   3.911   0.003  12.682  0.2223 -0.5374  0.7397
 3205TIP3    H131106   3.990   0.051  12.658  0.6804 -0.2002  2.7751
 3205TIP3    H231107   3.935  -0.089  12.674  0.0856 -0.4796 -0.7935
 3206TIP3   OH231108   2.284   4.761  13.111 -0.1392 -0.1002 -0.1229
 3206TIP3    H131109   2.259   4.683  13.062  1.9169 -1.5217  0.9890
 3206TIP3    H231110   2.357   4.798  13.061  0.3879 -0.1949  0.5723
 3207TIP3   OH231111   0.133   5.390  15.843  0.2108 -0.0613  0.2936
 3207TIP3    H131112   0.214   5.437  15.861  0.0735  0.0117  0.7343
 3207TIP3    H231113   0.141   5.362  15.752  1.1882 -0.9811  0.6421
 3208TIP3   OH231114   5.020   5.839   4.426  0.7605 -0.4100 -0.7205
 3208TIP3    H131115   5.095   5.861   4.480 -0.4012 -1.4826  1.4558
 3208TIP3    H231116   4.971   5.921   4.418  0.9939 -0.2219 -0.2268
 3209TIP3   OH231117   3.862   6.026  17.134 -0.3135 -0.5633  0.6111
 3209TIP3    H131118   3.924   5.993  17.199 -0.6184  0.3479  1.3888
 3209TIP3    H231119   3.876   6.121  17.133 -1.7165 -0.3272  0.8474
 3210TIP3   OH231120   5.627   3.728   3.315 -0.0334 -0.0493  0.3977
 3210TIP3    H131121   5.654   3.678   3.392 -1.5307  1.1263  1.7464
 3210TIP3    H231122   5.547   3.773   3.342 -1.0726 -0.2318 -2.1274
 3211TIP3   OH231123   6.295   2.578   2.693  0.6190  0.6716  0.1795
 3211TIP3    H131124   6.243   2.518   2.747 -0.0650  2.3083  1.4325
 3211TIP3    H231125   6.269   2.665   2.723  0.2077  1.6803 -2.8514
 3212TIP3   OH231126   5.594   3.649   5.155 -0.0099  0.6062 -0.0728
 3212TIP3    H131127   5.669   3.634   5.213 -0.3503  2.0024  0.7916
 3212TIP3    H231128   5.518   3.621   5.206 -0.2139  0.7575 -0.2907
 3213TIP3   OH231129   0.832   0.383  13.730  0.0692 -0.1824 -0.1552
 3213TIP3    H131130   0.793   0.300  13.757  1.3425 -0.5835  0.5086
 3213TIP3    H231131   0.926   0.368  13.735  0.3450  1.6490  1.0852
 3214TIP3   OH231132   6.326   0.708   1.432 -0.2413  0.1256  0.5103
 3214TIP3    H131133   6.324   0.753   1.348  1.5358  0.4187  0.5822
 3214TIP3    H231134   6.250   0.742   1.480 -1.2451 -0.0034 -0.9211
 3215TIP3   OH231135   0.641   6.344   5.287 -0.4564 -0.0574 -0.3875
 3215TIP3    H131136   0.630   6.302   5.373  1.0647  0.0015 -0.1340
 3215TIP3    H231137   0.626   6.437   5.304  2.5423  0.3570  0.4552
 3216TIP3   OH231138   3.751   1.653  15.341  0.0270  0.3544 -0.0306
 3216TIP3    H131139   3.708   1.718  15.397 -0.7356 -0.9473  0.9624
 3216TIP3    H231140   3.679   1.600  15.307  0.6859 -0.4358 -0.2100
 3217TIP3   OH231141   1.819   1.950   2.972  0.0101  0.4472 -0.0496
 3217TIP3    H131142   1.734   1.995   2.969 -0.1889  0.1467  0.8448
 3217TIP3    H231143   1.811   1.880   2.907 -0.0363  1.0824 -0.7377
 3218TIP3   OH231144   4.582   3.117   0.454 -0.1621 -0.2305  0.5549
 3218TIP3    H131145   4.622   3.204   0.462 -1.2353  0.5155 -1.4457
 3218TIP3    H231146   4.640   3.059   0.502  0.3296  1.6573  2.3954
 3219TIP3   OH231147   4.724   1.785   4.468  0.1486  0.6160 -0.1810
 3219TIP3    H131148   4.820   1.791   4.474  0.5553 -1.0955 -2.9455
 3219TIP3    H231149   4.702   1.706   4.517  0.0329  1.2702  0.8647
 3220TIP3   OH231150   6.325   5.178  12.498  0.6004  0.5326 -0.0920
 3220TIP3    H131151   6.330   5.158  12.404 -1.9946 -0.0312 -0.2028
 3220TIP3    H231152   6.331   5.273  12.503  0.3460  0.5987 -0.8799
 3221TIP3   OH231153   1.783   6.746   5.702  0.6153  0.5476  0.1464
 3221TIP3    H131154   1.863   6.792   5.677  0.2506  1.1525  0.0775
 3221TIP3    H231155   1.809   6.693   5.777  1.4108 -0.3238 -0.7168
 3222TIP3   OH231156   2.735   4.073   2.914  0.0570 -0.3157  0.0867
 3222TIP3    H131157   2.704   4.110   2.831 -0.8954  0.5515  0.8022
 3222TIP3    H231158   2.655   4.051   2.962  0.5758  0.0306  1.1492
 3223TIP3   OH231159   5.824   6.445   4.184 -0.3600 -0.0614  0.2777
 3223TIP3    H131160   5.849   6.371   4.128 -0.2088 -0.3358  0.7059
 3223TIP3    H231161   5.729   6.450   4.175 -0.1479  1.4279 -1.9137
 3224TIP3   OH231162   6.494   1.859  16.829 -0.2632 -0.4296 -0.4713
 3224TIP3    H131163   6.548   1.804  16.772  0.0502 -1.1085  0.4635
 3224TIP3    H231164   6.536   1.854  16.915 -0.7895  0.4860 -0.1434
 3225TIP3   OH231165   5.046   0.247   3.586  0.2203 -0.4736  0.1573
 3225TIP3    H131166   5.018   0.258   3.496 -1.2026 -0.2544  0.6028
 3225TIP3    H231167   4.965   0.239   3.636  0.8235  2.4991  1.8523
 3226TIP3   OH231168   5.112   0.338   0.284  0.1966  0.7067  0.1861
 3226TIP3    H131169   5.024   0.327   0.248 -0.0168  0.1970  0.8440
 3226TIP3    H231170   5.166   0.274   0.237  0.6406  2.2208 -1.5127
 3227TIP3   OH231171   1.089   5.054  10.319 -0.2836  0.6081  0.5513
 3227TIP3    H131172   0.997   5.027  10.313  0.2426 -1.9594  2.2841
 3227TIP3    H231173   1.088   5.129  10.379 -1.3977  1.9430 -1.0545
 3228TIP3   OH231174   3.782   2.158  16.986  0.2525  0.2311  0.7882
 3228TIP3    H131175   3.739   2.140  17.069  1.2244 -0.5869  1.1389
 3228TIP3    H231176   3.758   2.248  16.965 -3.5067 -0.8335 -0.2057
 3229TIP3   OH231177   6.047   4.115  14.329 -0.0161  0.6504 -0.1892
 3229TIP3    H131178   6.037   4.021  14.311 -2.1502  0.8923 -0.5597
 3229TIP3    H231179   5.973   4.136  14.387 -1.0384  2.5517 -2.0508
 3230TIP3   OH231180   2.948   0.706  15.946 -0.9815 -0.0945  0.0075
 3230TIP3    H131181   2.914   0.650  16.016 -1.5901 -0.6669 -0.7299
 3230TIP3    H231182   2.909   0.792  15.963 -1.2225 -0.2624  0.3065
 3231TIP3   OH231183   0.228   1.707  11.680 -0.1150  0.1611 -0.3347
 3231TIP3    H131184   0.167   1.776  11.707  0.9920  0.1057  2.7327
 3231TIP3    H231185   0.315   1.746  11.693  0.5214 -0.9994 -0.9429
 3232TIP3   OH231186   5.887   5.767   5.178 -0.3541 -0.1106  0.3371
 3232TIP3    H131187   5.957   5.714   5.215  0.8551  2.1761  1.5694
 3232TIP3    H231188   5.882   5.843   5.235 -2.8068  0.5639 -0.6448
 3233TIP3   OH231189   1.597   5.230  11.314 -0.9306 -0.3284 -0.1066
 3233TIP3    H131190   1.618   5.183  11.234  1.4337 -0.1544  0.3514
 3233TIP3    H231191   1.599   5.322  11.288  1.6389 -0.1623  0.4452
 3234TIP3   OH231192   3.682   6.359   4.223  0.4692  0.0810  0.8712
 3234TIP3    H131193   3.761   6.350   4.275  0.2676  0.4197  1.2379
 3234TIP3    H231194   3.712   6.350   4.132  0.6464 -1.8617  1.0669
 3235TIP3   OH231195   4.478   0.104  16.405 -0.1164  0.0934 -0.0309
 3235TIP3    H131196   4.388   0.131  16.424 -0.0142 -0.2767  1.0226
 3235TIP3    H231197   4.528   0.134  16.480  0.6086  0.0635 -0.4956
 3236TIP3   OH231198   4.024   3.013  16.852 -0.4519 -0.4584 -0.4022
 3236TIP3    H131199   4.037   3.107  16.867  1.1621 -0.7441  0.1974
 3236TIP3    H231200   4.071   2.995  16.771  0.5756 -1.0201  0.3048
 3237TIP3   OH231201   4.499   2.404  16.841 -0.0415  0.5754 -0.1891
 3237TIP3    H131202   4.437   2.475  16.827 -0.9825  0.1649  1.6277
 3237TIP3    H231203   4.545   2.429  16.921 -0.9199 -1.1821  0.9113
 3238TIP3   OH231204   0.814   4.480  16.505 -0.1935 -0.3529  0.5439
 3238TIP3    H131205   0.745   4.529  16.551 -0.3303  1.1370 -1.1399
 3238TIP3    H231206   0.896   4.517  16.540 -0.2956  0.9135 -0.4789
 3239TIP3   OH231207   3.993   4.813   1.127 -0.6462  0.1399  0.1439
 3239TIP3    H131208   4.016   4.727   1.162  2.2372 -0.4810 -2.7306
 3239TIP3    H231209   4.065   4.870   1.155 -0.9192  0.8190 -0.5114
 3240TIP3   OH231210   1.947   6.499   2.015  0.5035 -0.1046  0.1570
 3240TIP3    H131211   2.039   6.472   2.025  0.4727 -0.5194 -0.5680
 3240TIP3    H231212   1.914   6.508   2.104  1.1314 -0.3644  0.4188
 3241TIP3   OH231213   3.000   0.815   0.471  0.0385  0.6315 -0.8722
 3241TIP3    H131214   2.912   0.823   0.507 -0.3280  1.4606 -1.8855
 3241TIP3    H231215   3.002   0.729   0.430 -0.5922  0.9131 -1.5322
 3242TIP3   OH231216   0.758   1.156   2.550 -0.0121 -0.3082 -0.1426
 3242TIP3    H131217   0.800   1.213   2.614  0.5474 -0.3355 -0.4729
 3242TIP3    H231218   0.820   1.085   2.536 -0.1471 -0.3338 -0.6648
 3243TIP3   OH231219   2.545   1.219  14.102  0.4332  0.0806 -0.4097
 3243TIP3    H131220   2.628   1.178  14.124  0.8707  1.4004  0.5210
 3243TIP3    H231221   2.548   1.230  14.007  2.7048  2.8260 -0.1564
 3244TIP3   OH231222   6.167   0.401  11.719 -0.0156 -0.3379  0.2683
 3244TIP3    H131223   6.124   0.320  11.692 -0.9308  0.0181  0.6017
 3244TIP3    H231224   6.160   0.459  11.643  2.0352 -1.0649 -0.5435
 3245TIP3   OH231225   0.937   3.943  11.467  0.0427 -0.4896 -0.4174
 3245TIP3    H131226   0.856   3.920  11.512  0.3992 -0.2484  0.3748
 3245TIP3    H231227   1.006   3.905  11.522  0.4163 -2.5330 -2.1817
 3246TIP3   OH231228   3.144   6.137  17.030 -0.4130 -0.1696  0.3793
 3246TIP3    H131229   3.051   6.143  17.010 -0.0478 -0.7289 -1.6245
 3246TIP3    H231230   3.174   6.057  16.987  1.0287  0.0542  0.8880
 3247TIP3   OH231231   0.317   6.126  15.126  0.0275  0.0639  0.5362
 3247TIP3    H131232   0.393   6.164  15.170  0.0885  1.8131 -0.9809
 3247TIP3    H231233   0.350   6.095  15.042 -0.6048 -0.8209  0.5928
 3248TIP3   OH231234   0.174   1.989  11.700 -0.2705 -0.4716  0.3989
 3248TIP3    H131235   0.134   2.033  11.625 -0.6346  1.7719  1.8208
 3248TIP3    H231236   0.267   1.987  11.680 -0.2572  0.9181  0.2588
 3249TIP3   OH231237   1.208   0.445  15.319  0.3185  0.4423 -0.2931
 3249TIP3    H131238   1.296   0.408  15.323 -0.1035 -0.5106  0.8949
 3249TIP3    H231239   1.193   0.481  15.406 -0.9522 -0.6288 -0.0260
 3250TIP3   OH231240   4.875   2.003   6.022 -0.4308  0.1160 -0.1685
 3250TIP3    H131241   4.849   2.022   6.112 -1.4454 -1.3540 -0.1249
 3250TIP3    H231242   4.970   2.019   6.021 -0.4438  0.3732  1.0963
 3251TIP3   OH231243   3.363   5.192  12.139 -0.3561 -0.2662  0.0307
 3251TIP3    H131244   3.394   5.282  12.132 -0.7530 -0.2090 -1.3623
 3251TIP3    H231245   3.435   5.145  12.180  0.0197  0.5980  0.3839
 3252TIP3   OH231246   6.054   2.534  12.467  0.5905  0.3012 -0.1498
 3252TIP3    H131247   6.042   2.476  12.393  0.4383  0.0905  0.0379
 3252TIP3    H231248   5.965   2.560  12.492  0.5945 -0.1910  0.4014
 3253TIP3   OH231249   3.464   1.438   0.675  0.1074 -0.2345  0.2707
 3253TIP3    H131250   3.552   1.401   0.671  0.1181 -0.1541 -0.2322
 3253TIP3    H231251   3.441   1.433   0.768  0.6022 -0.3463  0.3927
 3254TIP3   OH231252   1.248   1.230  14.574 -0.1893 -0.0729  0.2508
 3254TIP3    H131253   1.217   1.164  14.511 -2.3147 -1.2491  2.3799
 3254TIP3    H231254   1.267   1.180  14.653  2.3508  1.3734  0.6665
 3255TIP3   OH231255   4.233   5.928  16.421  0.3796 -0.0517 -0.4975
 3255TIP3    H131256   4.289   5.852  16.437 -0.9127 -1.4633 -2.2004
 3255TIP3    H231257   4.256   5.956  16.332 -0.5330  0.2811 -0.6462
 3256TIP3   OH231258   2.141   4.754   5.141  0.2621  0.6737  0.0284
 3256TIP3    H131259   2.103   4.748   5.228  2.1384  0.6166  0.8971
 3256TIP3    H231260   2.159   4.848   5.128  1.5238  0.5093  0.4390
 3257TIP3   OH231261   0.401   3.979   2.643  0.1654 -0.0139  0.3629
 3257TIP3    H131262   0.377   4.000   2.733 -1.3203 -3.4658  0.9395
 3257TIP3    H231263   0.357   4.045   2.590  0.4144  1.6262  2.0715
 3258TIP3   OH231264   6.241   5.392  17.031 -0.3518 -0.3193 -0.9088
 3258TIP3    H131265   6.163   5.415  16.981 -1.1197 -2.4804 -0.8113
 3258TIP3    H231266   6.277   5.316  16.986  1.5396  0.4422 -0.7559
 3259TIP3   OH231267   2.561   2.074  14.091  0.1147 -0.0635  0.0477
 3259TIP3    H131268   2.629   2.108  14.033  0.0592 -0.6919 -0.4007
 3259TIP3    H231269   2.560   2.134  14.165  1.4134 -0.2374  0.2385
 3260TIP3   OH231270   6.150   5.702  16.601  0.6164  0.0697  0.2300
 3260TIP3    H131271   6.059   5.700  16.631  0.7568 -1.0556  0.6222
 3260TIP3    H231272   6.144   5.708  16.506  0.1514  1.4100  0.3230
 3261TIP3   OH231273   4.217   2.701  12.042  0.2330  0.1091  0.0518
 3261TIP3    H131274   4.243   2.693  11.951  0.6127  0.8604  0.0857
 3261TIP3    H231275   4.177   2.616  12.064 -1.2903  0.4360 -1.2591
 3262TIP3   OH231276   2.338   4.457  14.051  0.7069  0.1067  0.1663
 3262TIP3    H131277   2.315   4.382  14.105 -1.8560  1.7056  1.4491
 3262TIP3    H231278   2.333   4.425  13.961 -2.2183 -0.8711  0.5937
 3263TIP3   OH231279   6.819   2.374  15.432  0.1423  0.1000  0.1855
 3263TIP3    H131280   6.845   2.432  15.504  1.0056  0.0052 -0.0376
 3263TIP3    H231281   6.895   2.317  15.419 -0.4570 -0.6542 -0.0252
 3264TIP3   OH231282   0.643   0.506  14.276 -0.4682  0.2789  0.1294
 3264TIP3    H131283   0.697   0.429  14.291 -0.3605  0.2367 -0.4454
 3264TIP3    H231284   0.577   0.477  14.213 -2.2672 -0.1642  2.1212
 3265TIP3   OH231285   0.752   6.268   4.312 -0.3743 -0.2346 -0.5048
 3265TIP3    H131286   0.814   6.314   4.368  1.0706 -0.6355 -1.6919
 3265TIP3    H231287   0.718   6.335   4.253 -1.2444  0.0192  0.2563
 3266TIP3   OH231288   5.153   2.963  12.867  0.5634  0.2926 -0.3826
 3266TIP3    H131289   5.151   2.886  12.924  0.6877 -0.4030 -1.2921
 3266TIP3    H231290   5.228   2.947  12.809  0.1811  0.7800 -1.0135
 3267TIP3   OH231291   0.160   1.231   0.372 -1.0186 -0.4254 -0.5898
 3267TIP3    H131292   0.154   1.136   0.371 -0.1541 -0.4987 -0.0497
 3267TIP3    H231293   0.222   1.250   0.442 -1.2922  0.5442 -0.6020
 3268TIP3   OH231294   6.672   4.329  17.015 -0.0174 -0.1132 -0.1367
 3268TIP3    H131295   6.747   4.383  16.992  0.4627 -0.6866  0.0430
 3268TIP3    H231296   6.710   4.243  17.036 -0.5451  0.0534  1.6222
 3269TIP3   OH231297   5.417   5.939   0.400 -0.1694  0.5386  0.9765
 3269TIP3    H131298   5.417   5.984   0.315  0.3326 -0.0488  0.6563
 3269TIP3    H231299   5.342   5.880   0.397 -0.0967  0.4500  0.9050
 3270TIP3   OH231300   3.327   0.222  15.164  0.0476 -0.3564  0.1294
 3270TIP3    H131301   3.308   0.180  15.080 -1.9435  2.9476 -1.2839
 3270TIP3    H231302   3.247   0.212  15.215  0.1307  0.3088  0.4001
 3271TIP3   OH231303   1.731   1.236   2.405  0.1942 -0.0621 -0.1303
 3271TIP3    H131304   1.822   1.233   2.434  1.0499  1.7520 -2.2805
 3271TIP3    H231305   1.698   1.319   2.437  0.2063  0.5452 -1.5854
 3272TIP3   OH231306   3.355   4.618   3.288  0.4062  0.3831 -0.1883
 3272TIP3    H131307   3.380   4.603   3.379 -0.6419 -0.1259  0.0263
 3272TIP3    H231308   3.356   4.531   3.248 -0.9905  0.3363 -0.1687
 3273TIP3   OH231309   3.486   1.502  14.398 -0.1679  0.1054 -0.0102
 3273TIP3    H131310   3.551   1.474  14.333 -1.0329  0.0783 -0.8862
 3273TIP3    H231311   3.504   1.447  14.474 -0.2365 -1.1036 -0.8353
 3274TIP3   OH231312   0.420   6.029   1.878  0.7415  0.0711 -0.4024
 3274TIP3    H131313   0.434   6.116   1.840 -0.7561  0.9524  0.9511
 3274TIP3    H231314   0.333   6.004   1.848  0.6646 -0.4261  0.2246
 3275TIP3   OH231315   3.718   2.746  15.925  0.2930 -0.0113 -0.5265
 3275TIP3    H131316   3.625   2.770  15.921  0.3118 -0.0128 -1.0012
 3275TIP3    H231317   3.728   2.676  15.860  0.5324 -0.3408 -0.1436
 3276TIP3   OH231318   1.890   1.120   1.629 -0.1943 -0.2292 -0.6572
 3276TIP3    H131319   1.980   1.116   1.595  0.9349  1.4380  1.8171
 3276TIP3    H231320   1.894   1.071   1.712 -1.5246  0.0121 -0.4280
 3277TIP3   OH231321   5.667   2.018   0.335 -0.4839 -0.2293  0.2807
 3277TIP3    H131322   5.741   2.076   0.353 -1.8395  1.4961  0.5970
 3277TIP3    H231323   5.590   2.068   0.362 -1.8525 -1.5867 -0.8959
 3278TIP3   OH231324   4.079   1.964  16.325  0.7258 -0.1656  0.5036
 3278TIP3    H131325   4.051   1.969  16.233  0.1032 -1.8104  0.5705
 3278TIP3    H231326   4.132   1.885  16.330  1.2368  0.2216  1.4532
 3279TIP3   OH231327   4.915   6.617   6.171  0.4674 -0.0133 -0.0102
 3279TIP3    H131328   4.857   6.542   6.181 -0.0857  0.3232 -0.6386
 3279TIP3    H231329   4.992   6.595   6.224 -0.3580 -0.3232  1.0773
 3280TIP3   OH231330   6.305   5.090   2.051  0.6851  0.0166  0.4797
 3280TIP3    H131331   6.321   5.035   2.127  0.2945 -1.4254 -0.4323
 3280TIP3    H231332   6.377   5.069   1.991  1.5729  1.8899  0.8125
 3281TIP3   OH231333   6.366   2.906   0.633  0.5724  1.0944 -0.2792
 3281TIP3    H131334   6.372   2.930   0.726  3.4698 -0.3661  0.0564
 3281TIP3    H231335   6.442   2.949   0.593 -1.6170  3.2313 -2.4878
 3282TIP3   OH231336   5.233   5.208   1.490 -0.0279  0.0710 -0.0585
 3282TIP3    H131337   5.244   5.303   1.485 -2.4193  0.5126  1.2891
 3282TIP3    H231338   5.271   5.184   1.575  1.0781 -0.2923 -0.6420
 3283TIP3   OH231339   3.258   2.699  10.980 -0.3124  0.0739  0.2727
 3283TIP3    H131340   3.281   2.776  10.927  0.4872 -0.7921 -0.7019
 3283TIP3    H231341   3.169   2.677  10.952 -0.3042  0.2667  0.0879
 3284TIP3   OH231342   0.955   1.730   0.212 -0.3852 -0.5242 -0.3280
 3284TIP3    H131343   0.980   1.820   0.232  0.3030 -0.0208 -3.0715
 3284TIP3    H231344   1.033   1.678   0.231 -0.3481 -0.3484  0.0057
 3285TIP3   OH231345   3.064   1.227   4.423  0.3779 -0.6140 -0.0338
 3285TIP3    H131346   3.089   1.318   4.442 -0.1828 -0.6575  0.9951
 3285TIP3    H231347   3.070   1.220   4.328  1.6399  0.1361 -0.0298
 3286TIP3   OH231348   1.515   2.882  11.978  0.6362 -0.0433  0.6582
 3286TIP3    H131349   1.421   2.864  11.985  0.5018 -0.4222 -1.4284
 3286TIP3    H231350   1.519   2.973  11.947  0.8176 -0.7652 -1.5962
 3287TIP3   OH231351   0.106   3.375   0.362 -0.1311 -0.0191 -0.0123
 3287TIP3    H131352   0.048   3.342   0.293  2.7416 -2.9010 -1.3248
 3287TIP3    H231353   0.083   3.468   0.370 -3.1427 -0.4255 -2.1551
 3288TIP3   OH231354   3.737   5.010  16.320 -0.2215  0.4508  0.3548
 3288TIP3    H131355   3.661   5.066  16.309  1.2800  2.2461 -1.9931
 3288TIP3    H231356   3.806   5.069  16.350  0.9142 -0.5431 -0.2103
 3289TIP3   OH231357   1.553   6.560  16.942  0.1245  0.4542  0.4013
 3289TIP3    H131358   1.466   6.540  16.909  0.3019 -1.1351  0.7848
 3289TIP3    H231359   1.570   6.491  17.007  0.9541  1.7613  1.6370
 3290TIP3   OH231360   4.206   6.684   2.728  0.0119  0.4119  0.4542
 3290TIP3    H131361   4.268   6.707   2.796  1.1356  0.2334 -0.4787
 3290TIP3    H231362   4.121   6.684   2.772  0.1558  4.0685  1.0602
 3291TIP3   OH231363   1.554   4.088   3.819 -0.4536  0.1464  0.0001
 3291TIP3    H131364   1.613   4.013   3.816 -1.5062 -0.7702  1.0280
 3291TIP3    H231365   1.506   4.084   3.736 -1.1831 -0.9312  0.4470
 3292TIP3   OH231366   1.346   2.085   3.067 -0.0295  0.0402 -0.0177
 3292TIP3    H131367   1.287   2.045   3.003 -0.4519  0.8568 -0.1647
 3292TIP3    H231368   1.301   2.166   3.093  0.7228  0.3487  0.3652
 3293TIP3   OH231369   2.293   2.581  10.797 -0.5551  0.2508  0.6104
 3293TIP3    H131370   2.257   2.603  10.883 -0.1692 -0.2769  0.9181
 3293TIP3    H231371   2.323   2.490  10.807  0.2805  0.4703  0.1798
 3294TIP3   OH231372   1.183   3.648  15.779  1.0698 -0.6345  0.0744
 3294TIP3    H131373   1.251   3.676  15.840  0.4154 -0.8250  0.9094
 3294TIP3    H231374   1.118   3.718  15.780  1.5518 -0.1451 -1.2213
 3295TIP3   OH231375   2.084   2.590  11.286  0.0843  0.2262 -0.4796
 3295TIP3    H131376   2.034   2.552  11.359  0.1894  0.2921 -0.3719
 3295TIP3    H231377   2.144   2.651  11.328  0.5622 -0.1783 -0.5709
 3296TIP3   OH231378   0.164   6.565  14.172  0.3673  0.2065 -0.2197
 3296TIP3    H131379   0.226   6.594  14.239  0.4393  0.4818 -0.4015
 3296TIP3    H231380   0.121   6.646  14.143 -0.7865 -0.0909  0.6009
 3297TIP3   OH231381   5.146   4.996  11.536 -0.3735  0.1880 -0.5083
 3297TIP3    H131382   5.232   5.029  11.559  0.0558 -1.4076  0.3215
 3297TIP3    H231383   5.085   5.041  11.595  0.1794 -0.3761  0.5180
 3298TIP3   OH231384   6.174   0.159  16.071  0.0094  0.3902  0.2599
 3298TIP3    H131385   6.221   0.078  16.094  0.7297  0.1912 -1.6926
 3298TIP3    H231386   6.110   0.132  16.006  0.3775  1.3891 -0.5516
 3299TIP3   OH231387   2.891   6.181  13.093  0.5152  0.3740  0.2485
 3299TIP3    H131388   2.970   6.229  13.118  0.4783 -0.3435  1.9089
 3299TIP3    H231389   2.904   6.093  13.130  0.1316 -0.6093 -1.7957
 3300TIP3   OH231390   6.684   6.327   2.027  0.4707 -0.6465  0.6585
 3300TIP3    H131391   6.598   6.328   1.985  1.7595 -0.1332 -2.2576
 3300TIP3    H231392   6.667   6.297   2.116 -2.6069 -1.3041 -0.0219
 3301TIP3   OH231393   6.489   3.412  13.556  0.1218 -0.0173  0.0891
 3301TIP3    H131394   6.559   3.346  13.547 -0.5980 -0.8735  0.5861
 3301TIP3    H231395   6.427   3.390  13.487 -0.5911 -0.4856  0.8522
 3302TIP3   OH231396   6.685   4.971   5.807 -0.6562 -0.2904 -0.5585
 3302TIP3    H131397   6.611   4.955   5.748 -1.0033 -0.0657 -0.1857
 3302TIP3    H231398   6.734   5.041   5.765  0.5753 -1.8724 -1.9343
 3303TIP3   OH231399   6.358   1.794   2.826  0.2902  0.0570 -0.2539
 3303TIP3    H131400   6.285   1.736   2.847 -0.0452  0.4328 -0.3575
 3303TIP3    H231401   6.328   1.844   2.750  1.3201 -0.9792 -1.3709
 3304TIP3   OH231402   1.229   1.446  16.919 -0.3259 -0.1335  0.3989
 3304TIP3    H131403   1.150   1.494  16.942 -0.0121 -0.3887  2.1438
 3304TIP3    H231404   1.198   1.362  16.886 -0.8310 -1.0276  2.8991
 3305TIP3   OH231405   6.510   6.004  11.537  0.4382 -0.2052 -0.3504
 3305TIP3    H131406   6.477   5.916  11.523 -2.2444  0.4225  1.3129
 3305TIP3    H231407   6.577   5.994  11.605 -2.1726 -0.7201  2.3446
 3306TIP3   OH231408   0.045   6.203   5.253 -0.1920 -0.0543 -0.4077
 3306TIP3    H131409   0.069   6.203   5.160 -1.5842  0.0976 -0.8058
 3306TIP3    H231410   0.026   6.295   5.272  0.1132 -0.0825  0.0366
 3307TIP3   OH231411   1.921   5.860  12.456  0.7801  1.2148 -0.5024
 3307TIP3    H131412   1.859   5.791  12.479  1.3855  0.3622 -1.3600
 3307TIP3    H231413   1.930   5.912  12.536 -0.6051  1.0306 -0.2035
 3308TIP3   OH231414   4.191   2.647   1.753  0.3533  0.2151  0.4225
 3308TIP3    H131415   4.185   2.727   1.807  0.0474  0.7727 -0.4151
 3308TIP3    H231416   4.155   2.578   1.809 -0.0313  0.7999  0.9142
 3309TIP3   OH231417   5.492   4.398  12.526  0.2257  0.1565 -0.0520
 3309TIP3    H131418   5.574   4.423  12.569 -0.6125  0.3576  1.5058
 3309TIP3    H231419   5.484   4.304  12.543  0.1449  0.1316 -0.2252
 3310TIP3   OH231420   2.612   3.773   2.989  0.3700  0.5701 -0.7477
 3310TIP3    H131421   2.591   3.728   3.071 -0.4348  0.6115 -0.9213
 3310TIP3    H231422   2.704   3.798   2.998  0.0042  1.5478  0.6231
 3311TIP3   OH231423   1.912   1.872   1.760 -0.0713  0.4334 -0.1166
 3311TIP3    H131424   1.952   1.794   1.721  0.1059  0.7648 -0.6085
 3311TIP3    H231425   1.825   1.877   1.720 -0.2213  0.2912  0.1843
 3312TIP3   OH231426   4.070   0.745   1.379 -0.2127 -0.1001  0.4056
 3312TIP3    H131427   4.048   0.838   1.368 -1.7659 -0.3275  1.2231
 3312TIP3    H231428   3.995   0.699   1.341  1.0416 -1.0689 -0.9806
 3313TIP3   OH231429   2.440   2.050  11.207  0.2597 -0.0562  0.0913
 3313TIP3    H131430   2.419   2.007  11.291  0.3238  2.4102  1.4565
 3313TIP3    H231431   2.359   2.044  11.157 -1.2432  2.0078  2.0271
 3314TIP3   OH231432   0.981   2.978   1.907 -0.2542 -0.1498 -0.1215
 3314TIP3    H131433   0.989   3.050   1.970 -2.2006  0.9036 -0.9955
 3314TIP3    H231434   0.888   2.955   1.909 -0.2444 -0.5301 -2.1218
 3315TIP3   OH231435   4.897   5.303  15.188 -0.8310 -0.2924 -0.7722
 3315TIP3    H131436   4.940   5.299  15.273  1.3880  1.0424 -1.7268
 3315TIP3    H231437   4.868   5.394  15.180 -1.5112 -0.5414 -1.2355
 3316TIP3   OH231438   2.973   2.548   1.466  0.4744 -0.3887  0.0175
 3316TIP3    H131439   3.054   2.574   1.510  0.5968 -0.3948 -0.2028
 3316TIP3    H231440   2.999   2.477   1.407  0.1709 -0.9057  0.4958
 3317TIP3   OH231441   2.613   5.064   1.422  0.5184 -0.1970 -0.1206
 3317TIP3    H131442   2.525   5.052   1.457 -0.2432  3.6031 -0.2567
 3317TIP3    H231443   2.667   5.084   1.499  1.0363 -1.3141 -0.1731
 3318TIP3   OH231444   0.799   5.345  11.839  0.1043  0.1193  0.2813
 3318TIP3    H131445   0.842   5.415  11.887  1.7914 -0.1913 -0.6970
 3318TIP3    H231446   0.706   5.369  11.841  0.1621  0.4186  3.0940
 3319TIP3   OH231447   4.849   6.510   1.484  0.0867 -0.0382  0.0352
 3319TIP3    H131448   4.825   6.458   1.560  0.3553 -1.9003 -1.0827
 3319TIP3    H231449   4.769   6.518   1.433 -0.4652  2.5035  1.1721
 3320TIP3   OH231450   6.692   6.609  14.236  0.2153 -0.1251 -0.0395
 3320TIP3    H131451   6.689   6.624  14.331 -0.9604  0.5739 -0.1814
 3320TIP3    H231452   6.755   6.673  14.204  1.0139 -0.7057  0.3103
 3321TIP3   OH231453   2.380   1.514   1.622 -0.0232 -0.4770  0.3420
 3321TIP3    H131454   2.464   1.502   1.667  0.1245 -0.9599 -0.0491
 3321TIP3    H231455   2.391   1.595   1.572  0.3557 -0.7519 -0.0253
 3322TIP3   OH231456   4.698   3.669  16.419 -0.6305 -0.2742  0.2694
 3322TIP3    H131457   4.641   3.728  16.467  0.1426  0.7338 -0.0134
 3322TIP3    H231458   4.741   3.615  16.486 -1.2321 -0.4270  0.5350
 3323TIP3   OH231459   4.550   6.354  12.212  0.1091 -0.1755  0.1370
 3323TIP3    H131460   4.589   6.342  12.299  0.8086  0.3063 -0.0953
 3323TIP3    H231461   4.533   6.447  12.206  1.4353  0.0382 -0.7824
 3324TIP3   OH231462   0.081   0.676   5.976 -0.1847  0.0439 -0.1725
 3324TIP3    H131463   0.028   0.597   5.965 -0.3229  0.0521  0.4222
 3324TIP3    H231464   0.018   0.747   5.982 -0.0794  0.1403 -0.2086
 3325TIP3   OH231465   0.898   3.571  14.688 -0.2688 -0.1521 -0.4506
 3325TIP3    H131466   0.805   3.559  14.671 -0.5992 -1.2417  1.8224
 3325TIP3    H231467   0.911   3.666  14.681 -1.5620  0.0300 -0.7141
 3326TIP3   OH231468   4.687   3.773   3.479  0.2194 -0.2671 -0.3708
 3326TIP3    H131469   4.760   3.789   3.539  0.0394 -0.8815  0.0254
 3326TIP3    H231470   4.704   3.829   3.404  1.1846 -0.5210 -0.3518
 3327TIP3   OH231471   4.048   2.214   2.769 -0.0118 -0.3893 -0.5651
 3327TIP3    H131472   4.018   2.296   2.729  0.6544  0.3471  0.3944
 3327TIP3    H231473   4.143   2.218   2.763  0.0606 -0.6764  0.2762
 3328TIP3   OH231474   3.514   1.983  14.496  0.2041  0.5843 -0.3037
 3328TIP3    H131475   3.515   1.917  14.426  0.0100  0.3712 -0.1067
 3328TIP3    H231476   3.431   2.028  14.484 -0.5376 -0.4518  0.7089
 3329TIP3   OH231477   3.049   4.009   5.098 -0.0923 -0.3143  0.0639
 3329TIP3    H131478   3.040   4.103   5.109  1.3624 -0.1811  0.3144
 3329TIP3    H231479   3.021   3.992   5.007  2.0502  0.7503 -0.8588
 3330TIP3   OH231480   4.341   0.856   0.777  0.7690  0.1683  0.2442
 3330TIP3    H131481   4.349   0.900   0.861  2.6557  0.4292 -0.0305
 3330TIP3    H231482   4.367   0.765   0.795 -0.6319 -0.2443  0.2945
 3331TIP3   OH231483   1.633   6.259  12.661 -0.2263  0.2387  0.7535
 3331TIP3    H131484   1.653   6.339  12.710 -0.0604  1.2493 -0.8847
 3331TIP3    H231485   1.607   6.290  12.574 -1.6031 -1.4279  0.5211
 3332TIP3   OH231486   1.906   4.929   4.896 -0.2053 -0.1354 -0.3445
 3332TIP3    H131487   1.976   4.958   4.954 -2.7033  2.5726  1.6464
 3332TIP3    H231488   1.886   4.840   4.925  1.8909 -0.7302 -0.5579
 3333TIP3   OH231489   1.011   0.995  12.319 -0.1359  0.2532 -0.5399
 3333TIP3    H131490   1.077   1.041  12.370 -0.6694  0.3037  0.1197
 3333TIP3    H231491   0.956   0.951  12.384 -0.2115 -0.5326 -1.1125
 3334TIP3   OH231492   6.567   6.103  15.225  0.1134 -0.2230 -0.0683
 3334TIP3    H131493   6.593   6.168  15.291 -1.3464  0.3349 -0.0103
 3334TIP3    H231494   6.626   6.120  15.151  0.3266  0.6049  0.2761
 3335TIP3   OH231495   1.863   3.191  12.812  0.8779 -1.0648  0.1475
 3335TIP3    H131496   1.888   3.172  12.722  1.2067  0.4428 -0.1064
 3335TIP3    H231497   1.917   3.132  12.865 -1.1431 -3.8497 -0.6454
 3336TIP3   OH231498   2.344   6.786   4.191 -0.2526  0.3257 -0.2740
 3336TIP3    H131499   2.407   6.718   4.171 -0.6206 -0.0132 -0.2874
 3336TIP3    H231500   2.394   6.851   4.241  0.1913  0.2368 -0.5947
 3337TIP3   OH231501   6.663   0.918   5.057 -0.2539  0.0475  0.5205
 3337TIP3    H131502   6.708   0.846   5.101  0.9077  0.1687 -0.3858
 3337TIP3    H231503   6.572   0.911   5.084  0.3136 -0.1387  2.5506
 3338TIP3   OH231504   0.663   4.822   4.854 -0.0485 -0.0734  0.4951
 3338TIP3    H131505   0.652   4.904   4.806 -0.4588 -0.5628 -0.2532
 3338TIP3    H231506   0.634   4.843   4.943 -0.2323  0.5683  0.2927
 3339TIP3   OH231507   1.724   3.478  13.633  0.3197 -0.0253  0.8338
 3339TIP3    H131508   1.798   3.536  13.649 -1.5545  2.3915  1.1666
 3339TIP3    H231509   1.731   3.410  13.700  2.2745  0.0361  0.7451
 3340TIP3   OH231510   3.585   1.570  13.666 -0.2483 -0.1394  0.1274
 3340TIP3    H131511   3.608   1.519  13.588 -1.2273 -1.1673  0.4984
 3340TIP3    H231512   3.573   1.505  13.735 -3.2205  0.3609  0.2191
 3341TIP3   OH231513   5.777   3.997   3.863  0.2208 -0.2724 -0.4825
 3341TIP3    H131514   5.740   3.921   3.908  0.4881 -0.4521 -0.5595
 3341TIP3    H231515   5.807   3.962   3.779 -1.0849  0.2323 -1.1937
 3342TIP3   OH231516   5.881   1.894   6.282  0.3006 -0.4560 -0.0064
 3342TIP3    H131517   5.817   1.943   6.230 -1.7227 -0.3520  2.4276
 3342TIP3    H231518   5.936   1.961   6.321  1.0384 -0.4764 -0.9646
 3343TIP3   OH231519   2.167   2.427  13.342 -0.2475 -0.2004  0.1781
 3343TIP3    H131520   2.229   2.431  13.270 -1.9944 -1.3269 -1.4813
 3343TIP3    H231521   2.171   2.336  13.373 -0.3656 -0.0331  0.7115
 3344TIP3   OH231522   4.326   5.523  13.504 -0.0890 -0.3237 -0.2178
 3344TIP3    H131523   4.421   5.521  13.487 -0.2061 -0.5164 -0.9061
 3344TIP3    H231524   4.301   5.614  13.490 -0.4986 -0.7645 -3.1402
 3345TIP3   OH231525   6.102   3.857  14.628 -0.6311  0.3237 -0.2719
 3345TIP3    H131526   6.152   3.794  14.681  0.4372  0.9372 -0.5225
 3345TIP3    H231527   6.056   3.911  14.692 -0.6579  0.0107 -0.0231
 3346TIP3   OH231528   2.517   2.189   2.930  0.2298  0.2202  0.3156
 3346TIP3    H131529   2.422   2.189   2.943  0.1558 -1.7812  0.0617
 3346TIP3    H231530   2.551   2.235   3.007 -0.9459  1.2967  0.2263
 3347TIP3   OH231531   1.026   2.486   3.417 -0.2534  0.2108 -0.0027
 3347TIP3    H131532   1.043   2.555   3.482 -0.5686 -0.0027  0.3111
 3347TIP3    H231533   0.991   2.533   3.341 -0.2498  0.4238  0.1252
 3348TIP3   OH231534   4.914   2.045   5.738  0.3908  0.3818 -0.1144
 3348TIP3    H131535   4.869   2.028   5.822  1.9078 -2.2373  0.2746
 3348TIP3    H231536   4.995   2.088   5.763  0.7883 -0.2902 -0.2259
 3349TIP3   OH231537   3.132   0.468   2.375  0.0393 -0.2409  0.5581
 3349TIP3    H131538   3.126   0.473   2.470  1.9482 -0.6709  0.7456
 3349TIP3    H231539   3.225   0.481   2.356 -0.2217 -0.6707 -1.2059
 3350TIP3   OH231540   6.700   3.505   1.308  0.1930  0.0713 -0.1444
 3350TIP3    H131541   6.673   3.457   1.386 -2.0001 -2.4295 -2.2504
 3350TIP3    H231542   6.789   3.474   1.291  0.4614  0.1693  0.9696
 3351TIP3   OH231543   0.772   3.911   3.615 -0.5711  0.1905 -0.7725
 3351TIP3    H131544   0.851   3.964   3.601 -0.2102  0.4365  1.7692
 3351TIP3    H231545   0.796   3.824   3.583 -0.3347  0.9303 -2.7506
 3352TIP3   OH231546   5.651   5.252   0.106  0.0402 -0.1192 -0.0721
 3352TIP3    H131547   5.590   5.325   0.096 -1.0567 -0.8787  0.8071
 3352TIP3    H231548   5.696   5.270   0.189  0.0225 -0.2584 -0.0318
 3353TIP3   OH231549   3.875   3.478   3.464 -0.1061  0.1477  0.9889
 3353TIP3    H131550   3.820   3.432   3.401 -3.6755  2.2715  2.2310
 3353TIP3    H231551   3.910   3.410   3.521 -0.2488 -1.4400 -0.7562
 3354TIP3   OH231552   5.713   1.885   2.303  0.4638  0.2143  0.4077
 3354TIP3    H131553   5.676   1.899   2.216  0.3413  1.4656  0.6502
 3354TIP3    H231554   5.807   1.879   2.288  0.3944 -0.2347  0.1213
 3355TIP3   OH231555   3.992   0.798  16.161  0.7407 -0.0238  0.3192
 3355TIP3    H131556   4.039   0.881  16.165  0.2408  0.2583  0.4022
 3355TIP3    H231557   3.938   0.796  16.240 -2.5450  1.5864 -1.6838
 3356TIP3   OH231558   4.628   6.568  14.048 -0.5660  0.0342 -0.0331
 3356TIP3    H131559   4.634   6.473  14.059  1.0302  0.1242  0.0519
 3356TIP3    H231560   4.699   6.590  13.988  0.9102  1.4984  2.1076
 3357TIP3   OH231561   0.337   0.168  16.851 -0.3054 -0.1623 -0.3681
 3357TIP3    H131562   0.320   0.186  16.759 -2.4038  0.0714  0.0014
 3357TIP3    H231563   0.316   0.075  16.861  2.1982 -0.8169 -0.5457
 3358TIP3   OH231564   3.814   5.486   3.058  0.1628 -0.1708  0.1787
 3358TIP3    H131565   3.878   5.433   3.107 -1.6650 -0.2370  2.6867
 3358TIP3    H231566   3.852   5.495   2.971  2.5742 -1.9670  0.9406
 3359TIP3   OH231567   3.391   4.159  12.784 -0.2678 -0.1294 -0.1783
 3359TIP3    H131568   3.404   4.127  12.874  1.8838 -0.1300 -0.4520
 3359TIP3    H231569   3.479   4.161  12.746 -1.0841  0.3202 -2.1535
 3360TIP3   OH231570   1.153   1.332   2.503 -0.3607  0.0461  0.2382
 3360TIP3    H131571   1.236   1.380   2.503  0.1433 -0.7162 -2.0250
 3360TIP3    H231572   1.151   1.288   2.588  1.9630 -0.5436  0.0577
 3361TIP3   OH231573   5.112   5.309   2.563  0.3787 -0.5004 -0.2453
 3361TIP3    H131574   5.111   5.214   2.551 -1.6449 -1.0896  3.1926
 3361TIP3    H231575   5.178   5.324   2.630  0.0975  0.4266 -0.1626
 3362TIP3   OH231576   2.088   5.261   4.670 -0.5532  0.0759  0.5416
 3362TIP3    H131577   2.082   5.168   4.651  0.4292  0.2914 -1.0603
 3362TIP3    H231578   2.043   5.272   4.753 -2.6458 -1.4604 -0.3086
 3363TIP3   OH231579   2.354   4.888  11.417  0.2160 -0.7807 -0.7363
 3363TIP3    H131580   2.316   4.806  11.384  0.8648 -0.8141 -1.4228
 3363TIP3    H231581   2.439   4.895  11.373  0.1975  0.2295 -0.6415
 3364TIP3   OH231582   6.260   1.275  14.130 -0.2211 -0.3843  0.2302
 3364TIP3    H131583   6.331   1.330  14.165 -1.5554  0.7706  1.2245
 3364TIP3    H231584   6.262   1.290  14.036  0.5067  0.0590  0.3101
 3365TIP3   OH231585   1.473   4.016  12.101  0.3302  0.0416  0.3004
 3365TIP3    H131586   1.385   3.995  12.130 -1.7383  0.1778 -4.7774
 3365TIP3    H231587   1.503   3.937  12.056  0.9689  1.2679 -1.5615
 3366TIP3   OH231588   2.233   2.095  13.071  0.3224 -0.5425  0.1868
 3366TIP3    H131589   2.243   2.031  13.001 -0.0289  0.0464 -0.4221
 3366TIP3    H231590   2.155   2.145  13.047  2.3205  2.2092 -1.0860
 3367TIP3   OH231591   3.101   2.616   4.754 -0.7334  0.2386 -0.2800
 3367TIP3    H131592   3.085   2.710   4.751  0.2639  0.4840  1.2142
 3367TIP3    H231593   3.190   2.606   4.719  0.3610  0.2326  2.2946
 3368TIP3   OH231594   0.148   6.285  13.783 -0.6082 -0.1342  0.0592
 3368TIP3    H131595   0.237   6.293  13.748 -1.0833 -0.8851 -1.4079
 3368TIP3    H231596   0.104   6.225  13.723 -1.9150 -0.3293  1.1612
 3369TIP3   OH231597   2.012   5.255   2.020 -0.1805 -0.2858 -0.2609
 3369TIP3    H131598   2.058   5.260   2.104  1.3672 -1.2482 -1.0142
 3369TIP3    H231599   1.988   5.345   2.001  2.6163  0.5120 -0.4671
 3370TIP3   OH231600   5.310   2.282  15.507 -0.0144 -0.1037  0.1173
 3370TIP3    H131601   5.351   2.367  15.491  0.1071 -0.2470 -0.3451
 3370TIP3    H231602   5.220   2.291  15.475 -0.3760  0.2382  1.2117
 3371TIP3   OH231603   4.860   0.304  15.443  1.1285 -0.6779  0.1198
 3371TIP3    H131604   4.939   0.330  15.394  0.7210  1.9209  0.6926
 3371TIP3    H231605   4.816   0.387  15.462  0.2639 -1.7259  3.2036
 3372TIP3   OH231606   1.669   6.812   1.958  0.6654 -0.7910  0.3263
 3372TIP3    H131607   1.694   6.873   1.888  0.8965 -1.1611  0.0827
 3372TIP3    H231608   1.636   6.868   2.028 -1.0343 -0.5102 -0.6677
 3373TIP3   OH231609   3.412   5.863  17.055 -0.1123 -0.8860 -0.3333
 3373TIP3    H131610   3.482   5.840  17.116  0.9721  2.5472 -0.0633
 3373TIP3    H231611   3.458   5.892  16.976 -1.3179 -0.9463 -1.0840
 3374TIP3   OH231612   3.562   3.739   3.673  0.0403  0.4510  0.6413
 3374TIP3    H131613   3.650   3.740   3.637  0.4952 -0.1582  1.6933
 3374TIP3    H231614   3.518   3.667   3.629 -0.0081  0.8774 -0.0255
 3375TIP3   OH231615   6.010   3.541  11.719  0.1397 -0.6904 -0.2403
 3375TIP3    H131616   5.982   3.591  11.796 -1.2896 -0.1182 -1.1018
 3375TIP3    H231617   6.042   3.607  11.658  0.1719 -1.0264 -0.5882
 3376TIP3   OH231618   1.408   0.237  15.329  0.3452 -0.6556  0.5983
 3376TIP3    H131619   1.378   0.175  15.396  1.3428 -0.8685  0.8649
 3376TIP3    H231620   1.500   0.216  15.317  0.2176 -0.5558 -0.7814
 3377TIP3   OH231621   1.936   0.505   0.548  0.1078  0.1156 -0.3507
 3377TIP3    H131622   1.989   0.461   0.615  1.4799 -0.3820 -1.6987
 3377TIP3    H231623   1.979   0.482   0.465  0.3929  3.2988 -1.1984
 3378TIP3   OH231624   2.276   6.144  11.224 -0.1784 -0.0554 -0.7646
 3378TIP3    H131625   2.322   6.228  11.227  1.8568 -1.0894 -1.4777
 3378TIP3    H231626   2.228   6.146  11.141 -1.1827  0.8756 -0.1929
 3379TIP3   OH231627   5.658   5.871   4.664  0.2230  0.0495  0.1436
 3379TIP3    H131628   5.600   5.923   4.720  0.6989 -0.4654  1.1381
 3379TIP3    H231629   5.630   5.781   4.678  0.8084 -0.1436  0.0802
 3380TIP3   OH231630   5.230   5.900   2.501 -0.6581 -0.5819  0.3681
 3380TIP3    H131631   5.169   5.941   2.439 -0.2728 -0.4539  0.0695
 3380TIP3    H231632   5.301   5.963   2.509 -1.9594  0.7282  3.0700
 3381TIP3   OH231633   5.855   3.914   2.360  0.2299  0.0705 -0.0608
 3381TIP3    H131634   5.791   3.845   2.343 -0.5995  0.7642  0.2183
 3381TIP3    H231635   5.837   3.943   2.449  2.3476 -1.1911  0.8813
 3382TIP3   OH231636   2.419   4.105  11.781 -0.2899 -0.1880  0.1487
 3382TIP3    H131637   2.367   4.079  11.705 -1.2146  0.8107  0.4187
 3382TIP3    H231638   2.384   4.190  11.806 -0.1125 -0.5668  1.7941
 3383TIP3   OH231639   3.993   2.837   5.720  0.5845  0.2791  0.3331
 3383TIP3    H131640   4.052   2.905   5.751  0.5790  0.5096 -0.1469
 3383TIP3    H231641   3.942   2.879   5.651  2.1436 -0.8132 -1.5998
 3384TIP3   OH231642   0.446   6.601   5.601  0.4735  0.1291 -0.1250
 3384TIP3    H131643   0.483   6.514   5.619  1.3372  0.8974  2.2981
 3384TIP3    H231644   0.521   6.653   5.573  0.0989  0.2962 -0.8329
 3385TIP3   OH231645   0.385   2.980   2.594 -0.2137  0.5300 -0.4619
 3385TIP3    H131646   0.333   3.058   2.573 -0.8645  0.2210 -0.0253
 3385TIP3    H231647   0.337   2.938   2.665 -0.1992 -0.6180 -1.1182
 3386TIP3   OH231648   0.004   2.308  16.751  0.1116  0.0035 -0.3793
 3386TIP3    H131649  -0.023   2.344  16.836  1.2113 -0.7012  0.2942
 3386TIP3    H231650  -0.053   2.232  16.738  1.8981 -1.7067  1.2141
 3387TIP3   OH231651   0.973   1.860   2.573 -0.0650 -0.2655  0.3045
 3387TIP3    H131652   0.924   1.779   2.558  2.1259 -1.5444 -0.5216
 3387TIP3    H231653   0.920   1.929   2.534 -1.7125 -1.3786  0.4960
 3388TIP3   OH231654   1.353   4.161  12.768 -0.2336 -0.9706  0.6653
 3388TIP3    H131655   1.342   4.250  12.736 -2.4133 -0.8883  1.4972
 3388TIP3    H231656   1.340   4.168  12.863 -2.2619 -2.3956  0.5551
 3389TIP3   OH231657   0.662   0.986  10.931  0.1866 -0.2635 -0.4383
 3389TIP3    H131658   0.703   0.919  10.985 -1.2489 -0.7482  0.1009
 3389TIP3    H231659   0.616   0.937  10.862 -0.5382  0.1830 -0.2792
 3390TIP3   OH231660   1.425   6.830  13.322  0.3147  0.4769  0.1780
 3390TIP3    H131661   1.477   6.856  13.398  1.0065 -0.0770 -0.0879
 3390TIP3    H231662   1.467   6.750  13.291 -1.3401 -0.5635  0.5545
 3391TIP3   OH231663   3.025   5.950   1.796 -0.2203 -0.0387 -0.1365
 3391TIP3    H131664   3.091   6.016   1.776  0.8821 -0.9304  0.4016
 3391TIP3    H231665   2.943   5.998   1.799  0.1815  0.8733 -2.2272
 3392TIP3   OH231666   5.162   4.231   1.895  0.3862  0.3366  0.2188
 3392TIP3    H131667   5.216   4.180   1.834  2.3991  2.2334  0.2919
 3392TIP3    H231668   5.144   4.171   1.967  1.3008 -0.7384 -0.4140
 3393TIP3   OH231669   2.543   0.162   1.668 -0.1483 -0.1037  0.2691
 3393TIP3    H131670   2.546   0.067   1.666 -1.1624 -0.1325 -0.5902
 3393TIP3    H231671   2.497   0.187   1.588 -0.7863  1.0635  0.9631
 3394TIP3   OH231672   3.359   2.960   4.589 -0.2084 -0.1461  0.3650
 3394TIP3    H131673   3.270   2.928   4.571 -0.0701 -0.4686  0.2448
 3394TIP3    H231674   3.406   2.949   4.506 -0.4363  1.3505  0.0144
 3395TIP3   OH231675   2.885   2.744  14.025  0.7349 -0.1644 -0.8719
 3395TIP3    H131676   2.814   2.779  14.079  1.8925  0.3489  0.3625
 3395TIP3    H231677   2.909   2.661  14.067  1.8719  0.4028 -0.3607
 3396TIP3   OH231678   1.479   6.643   1.837 -0.4916  0.2000  0.2394
 3396TIP3    H131679   1.451   6.593   1.914  1.7625 -0.0607  0.9659
 3396TIP3    H231680   1.553   6.696   1.868  0.9821 -0.4689 -1.8621
 3397TIP3   OH231681   5.986   6.238   1.410 -0.6977  0.1404 -0.1780
 3397TIP3    H131682   6.034   6.182   1.349 -0.6229  0.2652 -0.2334
 3397TIP3    H231683   5.937   6.177   1.465  0.6016 -0.0826  0.7923
 3398TIP3   OH231684   0.911   5.429  14.515  0.0558 -0.5306 -0.6368
 3398TIP3    H131685   0.962   5.368  14.462  1.7820 -0.3626  0.7528
 3398TIP3    H231686   0.964   5.443  14.593 -1.4103  0.9151  0.1499
 3399TIP3   OH231687   2.828   0.262  14.909 -0.3930  0.0530 -0.1603
 3399TIP3    H131688   2.907   0.315  14.901 -0.1511 -0.1972  0.4887
 3399TIP3    H231689   2.778   0.282  14.830  1.4533 -1.7074 -1.8970
 3400TIP3   OH231690   6.601   1.330   1.552 -0.1135  0.6078 -0.8894
 3400TIP3    H131691   6.511   1.362   1.545 -0.4956 -0.2026  0.0379
 3400TIP3    H231692   6.593   1.235   1.544  0.4944  0.4235  0.4873
 3401TIP3   OH231693   2.585   4.168  13.098 -0.6294  0.5109  0.5610
 3401TIP3    H131694   2.669   4.214  13.100 -0.8541  0.9877 -0.3318
 3401TIP3    H231695   2.558   4.164  13.190  0.3705  0.3335  0.8631
 3402TIP3   OH231696   1.658   6.769  12.683 -0.2476  0.4188  0.3122
 3402TIP3    H131697   1.653   6.843  12.744 -3.1095  1.1858 -0.6865
 3402TIP3    H231698   1.671   6.810  12.597  0.1975 -0.4042 -0.0258
 3403TIP3   OH231699   6.621   2.035  11.767 -0.1759 -0.0956  0.5029
 3403TIP3    H131700   6.640   1.960  11.824 -0.4140  0.4595  1.3325
 3403TIP3    H231701   6.696   2.094  11.779  0.1648 -0.3302 -0.3885
 3404TIP3   OH231702   0.424   4.689   1.392  0.0582 -0.2378  0.3010
 3404TIP3    H131703   0.450   4.610   1.441 -0.0165  0.3477  1.3204
 3404TIP3    H231704   0.454   4.673   1.303  1.0318 -0.9577  0.7349
 3405TIP3   OH231705   6.299   6.262  14.231 -0.0701 -0.0871  0.5153
 3405TIP3    H131706   6.231   6.311  14.184 -0.3306 -0.5684  0.3848
 3405TIP3    H231707   6.378   6.316  14.221  0.0022 -0.4243 -0.9197
 3406TIP3   OH231708   4.985   4.917   5.080 -0.5101  0.3894  0.1304
 3406TIP3    H131709   4.932   4.840   5.058 -0.6623 -0.1952  2.2991
 3406TIP3    H231710   4.968   4.979   5.010 -1.5925 -0.9756 -0.8733
 3407TIP3   OH231711   5.762   1.967   5.642  0.0204  0.1740  0.0477
 3407TIP3    H131712   5.677   1.957   5.687  0.9253 -0.2812  1.7459
 3407TIP3    H231713   5.824   1.984   5.713  1.3836  0.3877 -1.1611
 3408TIP3   OH231714   0.326   4.258   3.144 -0.1256  0.5183 -0.2899
 3408TIP3    H131715   0.396   4.305   3.190 -0.1812  0.0134  0.3137
 3408TIP3    H231716   0.285   4.204   3.211  0.3311 -0.8620 -1.0752
 3409TIP3   OH231717   1.302   2.424   5.241 -0.2440  0.0950  0.3119
 3409TIP3    H131718   1.365   2.378   5.297 -0.3791 -1.1395 -0.5146
 3409TIP3    H231719   1.242   2.356   5.211  0.5064  0.4666 -2.2736
 3410TIP3   OH231720   4.724   2.860  13.464 -0.6838 -0.3580 -0.2531
 3410TIP3    H131721   4.787   2.797  13.428  0.5990 -0.3751  1.8814
 3410TIP3    H231722   4.734   2.853  13.559 -3.7635 -0.1508  0.1786
 3411TIP3   OH231723   1.254   5.535   5.190 -0.1517  0.6027  0.0924
 3411TIP3    H131724   1.231   5.446   5.164 -0.4804  0.8967 -0.6284
 3411TIP3    H231725   1.317   5.564   5.124 -1.4729  1.5824 -0.7993
 3412TIP3   OH231726   0.748   6.640   4.501  0.2880 -0.0369  0.2480
 3412TIP3    H131727   0.825   6.586   4.519  1.1593  0.5315 -1.5646
 3412TIP3    H231728   0.770   6.726   4.536  1.2164  0.5657 -1.6571
 3413TIP3   OH231729   4.240   4.116  11.192 -0.5598  0.1544 -0.2098
 3413TIP3    H131730   4.158   4.113  11.241 -0.2890 -1.7497  0.2270
 3413TIP3    H231731   4.240   4.201  11.149 -0.6518  2.1978  3.4127
 3414TIP3   OH231732   6.222   3.865   5.929 -0.0099 -0.1120  0.0177
 3414TIP3    H131733   6.135   3.903   5.941  1.0343  2.0809  1.3244
 3414TIP3    H231734   6.217   3.780   5.974 -1.4307  0.0252  0.1853
 3415TIP3   OH231735   3.138   0.127   5.279  0.0521 -0.0070  0.3027
 3415TIP3    H131736   3.149   0.054   5.219 -0.0714  0.1430  0.0956
 3415TIP3    H231737   3.152   0.090   5.366  0.0608 -0.2600  0.1924
 3416TIP3   OH231738   2.864   5.839   2.645  0.2081 -0.0088 -0.2947
 3416TIP3    H131739   2.784   5.792   2.670 -0.3366  0.8226 -0.4251
 3416TIP3    H231740   2.844   5.877   2.560  0.9430 -0.2318 -0.5734
 3417TIP3   OH231741   3.660   4.266  16.608 -0.3351 -0.0083  0.3842
 3417TIP3    H131742   3.728   4.204  16.632 -1.0677 -0.2927  1.8648
 3417TIP3    H231743   3.581   4.212  16.597 -1.0211  0.6107  1.8585
 3418TIP3   OH231744   6.174   4.104  10.821  0.3886 -0.0768 -0.0539
 3418TIP3    H131745   6.259   4.143  10.799  0.1717 -0.1830 -1.1365
 3418TIP3    H231746   6.168   4.027  10.765 -1.4030  1.1962 -1.7407
 3419TIP3   OH231747   4.437   6.611  15.441 -0.6234 -0.6436  0.0672
 3419TIP3    H131748   4.358   6.665  15.447 -0.6311 -0.5569 -0.7157
 3419TIP3    H231749   4.495   6.646  15.509 -1.3626 -0.8989  0.8441
 3420TIP3   OH231750   4.446   3.601   0.711 -0.1054 -0.0529  0.3191
 3420TIP3    H131751   4.484   3.689   0.709  1.8160 -0.8276  0.0872
 3420TIP3    H231752   4.431   3.579   0.619 -1.2171  0.2586  0.4108
 3421TIP3   OH231753   5.240   0.132  11.238  0.2465 -0.3458  0.6113
 3421TIP3    H131754   5.332   0.144  11.264  1.0373 -1.8383 -1.2029
 3421TIP3    H231755   5.235   0.172  11.151 -0.8962 -0.0576  0.8059
 3422TIP3   OH231756   1.957   2.061   3.585  0.3490  0.1369 -0.1274
 3422TIP3    H131757   1.889   2.019   3.532  1.3215 -0.3035 -1.0845
 3422TIP3    H231758   1.982   1.995   3.649 -0.1996  0.3484  0.3158
 3423TIP3   OH231759   1.758   3.150   2.680 -0.5148 -0.1736 -0.3805
 3423TIP3    H131760   1.675   3.112   2.709 -0.9028  0.7577 -0.2442
 3423TIP3    H231761   1.767   3.121   2.590  0.1269 -2.1342  0.2748
 3424TIP3   OH231762   2.263   5.633   4.406 -0.4632  0.3642 -0.4960
 3424TIP3    H131763   2.190   5.579   4.436  1.1296 -1.0781  0.9929
 3424TIP3    H231764   2.258   5.712   4.461 -1.2194  0.5553 -0.8193
 3425TIP3   OH231765   2.770   0.288   2.562 -0.3304  0.1216  0.3841
 3425TIP3    H131766   2.865   0.285   2.550 -0.4913  0.0203 -1.0987
 3425TIP3    H231767   2.739   0.204   2.527 -1.0722  0.6979 -0.3650
 3426TIP3   OH231768   4.567   3.082  14.669  0.9047 -0.3816 -0.8452
 3426TIP3    H131769   4.497   3.019  14.651  1.5133 -1.5907  0.7680
 3426TIP3    H231770   4.554   3.151  14.604 -2.1729 -0.2243 -0.2058
 3427TIP3   OH231771   0.947   0.577  15.321  0.1706 -0.1585  0.2897
 3427TIP3    H131772   0.907   0.509  15.266 -0.1499  1.6880 -1.9218
 3427TIP3    H231773   1.040   0.576  15.297  0.1285  0.2930  0.0924
 3428TIP3   OH231774   1.346   3.254  15.528  0.3059 -0.1873 -0.0571
 3428TIP3    H131775   1.433   3.246  15.489  1.0975  0.9105  1.3785
 3428TIP3    H231776   1.323   3.347  15.516 -0.2558 -0.2594  0.3845
 3429TIP3   OH231777   5.126   2.014   0.359 -0.5686  0.3098 -0.1991
 3429TIP3    H131778   5.122   1.941   0.422  2.9572  1.1639  1.2748
 3429TIP3    H231779   5.154   1.973   0.277 -1.2976 -0.3084 -0.1536
 3430TIP3   OH231780   0.336   3.226  10.798  0.1245 -0.0147  0.4339
 3430TIP3    H131781   0.367   3.146  10.755  1.9031 -0.0541  1.6904
 3430TIP3    H231782   0.334   3.291  10.727 -1.6651 -1.1923 -0.6690
 3431TIP3   OH231783   5.486   5.516  16.573 -0.4952  0.9315 -0.5031
 3431TIP3    H131784   5.538   5.448  16.617 -0.6926  0.4529 -0.9905
 3431TIP3    H231785   5.530   5.530  16.489 -0.2143  1.7237 -0.2343
 3432TIP3   OH231786   5.882   6.653  13.209 -0.4704  0.4251  0.0847
 3432TIP3    H131787   5.840   6.667  13.294 -0.4995  2.0473 -0.1575
 3432TIP3    H231788   5.819   6.602  13.158 -0.6026 -0.2456  0.9117
 3433TIP3   OH231789   6.463   4.659  16.869  0.1810  0.4545  0.8423
 3433TIP3    H131790   6.482   4.619  16.784 -0.1660  1.5368  0.2366
 3433TIP3    H231791   6.452   4.752  16.850  0.0085  0.7001  2.0658
 3434TIP3   OH231792   6.213   4.136  14.579 -0.0835 -0.0453 -0.0695
 3434TIP3    H131793   6.140   4.082  14.610 -0.3018  0.4549  0.3121
 3434TIP3    H231794   6.219   4.119  14.485  0.1926 -1.1321  0.1330
 3435TIP3   OH231795   0.379   2.425  14.962 -0.0984 -0.0361 -0.0094
 3435TIP3    H131796   0.348   2.369  14.890  0.2967 -0.0015 -0.2098
 3435TIP3    H231797   0.464   2.456  14.932  0.1451 -0.1644  0.5569
 3436TIP3   OH231798   5.807   5.272   2.500 -0.3587 -0.3836 -0.2934
 3436TIP3    H131799   5.841   5.354   2.534  0.2068 -0.7961  0.1618
 3436TIP3    H231800   5.878   5.237   2.447 -0.9815 -0.0810 -1.3446
 3437TIP3   OH231801   2.922   3.804  12.261  0.2604 -0.2500 -0.5736
 3437TIP3    H131802   2.892   3.855  12.336  0.6013 -1.0344  0.1064
 3437TIP3    H231803   2.869   3.837  12.188 -0.9253 -0.2970  0.2295
 3438TIP3   OH231804   4.082   4.118  13.357 -0.5283 -0.6046 -0.2302
 3438TIP3    H131805   4.113   4.162  13.277 -1.7485 -0.0917 -0.4483
 3438TIP3    H231806   4.162   4.093  13.403  0.1990  0.1856 -1.0175
 3439TIP3   OH231807   0.289   2.372   2.729 -0.3601  0.4223  0.0234
 3439TIP3    H131808   0.212   2.397   2.677 -0.4548 -0.2591 -0.1701
 3439TIP3    H231809   0.264   2.291   2.772 -0.4818  1.2621  1.5953
 3440TIP3   OH231810   4.312   5.715   4.272  0.2416  0.5639 -0.1298
 3440TIP3    H131811   4.384   5.660   4.302 -0.7663 -1.5449 -1.3691
 3440TIP3    H231812   4.239   5.693   4.329 -0.7309 -0.9684 -1.8669
 3441TIP3   OH231813   2.601   1.204  11.001  0.1661 -0.2384 -0.1298
 3441TIP3    H131814   2.656   1.264  11.051  1.2452  0.1439 -1.7092
 3441TIP3    H231815   2.609   1.120  11.047  0.8748  0.1710  0.5187
 3442TIP3   OH231816   5.181   5.791  14.682  0.1491 -0.3697 -0.0077
 3442TIP3    H131817   5.203   5.821  14.770  0.9084 -1.5649  0.2318
 3442TIP3    H231818   5.105   5.734  14.694 -0.2025  0.0361 -0.2393
 3443TIP3   OH231819   1.959   4.232  10.227 -0.2382 -0.3115  0.3180
 3443TIP3    H131820   1.966   4.142  10.259 -0.2789 -0.0497  1.0832
 3443TIP3    H231821   1.883   4.232  10.169  0.0898 -0.8937 -0.1168
 3444TIP3   OH231822   4.219   0.027   2.945 -0.3825 -0.3142  0.0071
 3444TIP3    H131823   4.125   0.018   2.931 -0.5099  0.7207  0.1751
 3444TIP3    H231824   4.227   0.072   3.029  0.2711 -0.4130  0.0053
 3445TIP3   OH231825   6.036   2.395   0.852 -0.1124  0.1098 -0.2753
 3445TIP3    H131826   5.945   2.413   0.828 -0.0731  0.2545 -0.3133
 3445TIP3    H231827   6.069   2.478   0.885 -1.0929 -0.7423  3.2964
 3446TIP3   OH231828   4.907   5.767  14.410 -0.2207 -0.5004  0.2038
 3446TIP3    H131829   4.925   5.855  14.379 -0.0078 -1.0958 -1.4567
 3446TIP3    H231830   4.875   5.779  14.500 -1.2157  1.3302 -0.3410
 3447TIP3   OH231831   5.210   5.974   6.525  0.0966  0.2218  0.1037
 3447TIP3    H131832   5.173   5.928   6.600  0.7875 -2.1515 -0.9414
 3447TIP3    H231833   5.155   6.052   6.516 -1.6929 -0.8121  1.3978
 3448TIP3   OH231834   4.290   6.160  15.722 -0.4664 -0.2264  0.5172
 3448TIP3    H131835   4.357   6.130  15.784  0.2701  1.8505  0.8468
 3448TIP3    H231836   4.319   6.249  15.698 -0.7084 -0.9202 -2.8486
 3449TIP3   OH231837   3.271   5.367  15.959  0.1885  0.3006  0.3229
 3449TIP3    H131838   3.320   5.449  15.959 -0.8538  0.9466  0.5530
 3449TIP3    H231839   3.180   5.394  15.976  0.0963 -1.0588  2.2837
 3450TIP3   OH231840   3.714   4.868   1.433  0.0058  0.3309  0.1324
 3450TIP3    H131841   3.646   4.935   1.440  1.1025  1.7162 -1.5219
 3450TIP3    H231842   3.703   4.833   1.344  1.5066  0.7146 -0.2401
 3451TIP3   OH231843   2.605   4.569  16.605  0.0975  0.0137  0.0124
 3451TIP3    H131844   2.514   4.540  16.609 -0.3509  0.3314 -4.0355
 3451TIP3    H231845   2.656   4.489  16.596  0.5454 -0.2737  3.4605
 3452TIP3   OH231846   5.729   5.019   0.800  0.1674 -0.3414  0.0652
 3452TIP3    H131847   5.750   5.034   0.893 -0.7932  0.1061  0.2177
 3452TIP3    H231848   5.716   4.924   0.794 -0.3080 -0.3073  0.5086
 3453TIP3   OH231849   2.302   1.365  11.728 -0.0902 -0.4370  0.1039
 3453TIP3    H131850   2.361   1.387  11.799 -0.9150  2.0842  0.1034
 3453TIP3    H231851   2.236   1.308  11.768  0.3775 -0.4047  0.9403
 3454TIP3   OH231852   2.140   2.031   0.895 -0.0984 -0.7043 -0.4295
 3454TIP3    H131853   2.078   2.071   0.956 -0.7881 -2.2460 -0.0606
 3454TIP3    H231854   2.099   2.041   0.809  0.4846  0.7287 -0.5780
 3455TIP3   OH231855   4.936   1.916   3.885 -0.4663 -0.2883 -0.4675
 3455TIP3    H131856   4.894   1.921   3.799 -2.1261  0.7274  0.3559
 3455TIP3    H231857   5.029   1.906   3.865 -0.4185  2.7339 -2.4416
 3456TIP3   OH231858   0.853   3.847  12.320  0.0241 -0.1735 -0.0960
 3456TIP3    H131859   0.764   3.815  12.338  0.5563 -2.1034 -0.6729
 3456TIP3    H231860   0.849   3.941  12.340 -1.7581 -0.4828  1.2434
 3457TIP3   OH231861   5.813   5.788   0.460 -0.1492 -0.2529 -0.8014
 3457TIP3    H131862   5.800   5.800   0.366 -0.3055  1.0711 -0.6268
 3457TIP3    H231863   5.724   5.777   0.495 -0.0356 -1.6811 -0.9055
 3458TIP3   OH231864   6.471   2.798   4.883  0.0267  0.0743 -0.1480
 3458TIP3    H131865   6.414   2.756   4.818  1.9136  0.5962 -2.2784
 3458TIP3    H231866   6.414   2.858   4.929 -2.0215 -2.3472  0.7210
 3459TIP3   OH231867   5.898   2.241   5.918  0.1790 -0.0959  0.0630
 3459TIP3    H131868   5.880   2.335   5.927  0.8867 -0.0728  1.3576
 3459TIP3    H231869   5.925   2.213   6.005 -0.7113 -1.6697 -0.1297
 3460TIP3   OH231870   6.598   6.090   4.273  0.1748 -0.1306  0.1997
 3460TIP3    H131871   6.626   6.027   4.340  0.6746 -0.0220  0.0946
 3460TIP3    H231872   6.599   6.175   4.317  0.9885  0.0102 -0.0741
 3461TIP3   OH231873   3.024   5.558  16.874  0.5506  0.3769  0.3542
 3461TIP3    H131874   3.070   5.635  16.909  1.2302  0.9029 -1.5284
 3461TIP3    H231875   3.041   5.489  16.937  0.7709  1.5246  1.5934
 3462TIP3   OH231876   6.397   1.057   5.086  0.4909  0.7372  0.0841
 3462TIP3    H131877   6.311   1.016   5.087  0.6629  0.3539  1.4119
 3462TIP3    H231878   6.390   1.127   5.021 -0.5399  0.1446 -0.4652
 3463TIP3   OH231879   3.395   4.454   2.392 -0.3791 -0.1976  0.3965
 3463TIP3    H131880   3.435   4.504   2.321 -2.7790  1.2721 -0.0535
 3463TIP3    H231881   3.427   4.494   2.472  1.3977 -1.0805  0.1761
 3464TIP3   OH231882   1.843   1.029  11.033  0.3841 -0.3528  0.4399
 3464TIP3    H131883   1.783   1.084  11.084 -0.7792 -1.3610  0.1951
 3464TIP3    H231884   1.922   1.082  11.024  0.2538  0.2543  2.4243
 3465TIP3   OH231885   0.321   3.992   1.802  0.1128 -0.8267 -0.8414
 3465TIP3    H131886   0.359   4.054   1.864 -0.0752 -1.5135 -0.0166
 3465TIP3    H231887   0.278   3.927   1.857  2.1027 -2.8803 -1.5334
 3466TIP3   OH231888   5.443   6.490  12.901 -0.2848  0.6135 -0.0400
 3466TIP3    H131889   5.417   6.521  12.988 -0.4862 -1.4573  0.7120
 3466TIP3    H231890   5.404   6.403  12.895  1.6564 -0.2396 -1.2658
 3467TIP3   OH231891   5.641   6.229  13.194  0.0617 -0.5300 -0.0653
 3467TIP3    H131892   5.709   6.177  13.236  1.6323  0.3176 -1.4333
 3467TIP3    H231893   5.686   6.307  13.161 -1.4535 -0.1753 -1.4711
 3468TIP3   OH231894   3.900   1.660  12.066  0.0694  0.5536 -0.1558
 3468TIP3    H131895   3.939   1.598  12.003 -1.0055  0.8983 -1.1889
 3468TIP3    H231896   3.812   1.675  12.033  0.0554  2.0598  0.5105
 3469TIP3   OH231897   2.090   6.345  10.784 -0.1487  0.4344  0.2591
 3469TIP3    H131898   2.106   6.440  10.788  0.7732  0.4062 -1.5262
 3469TIP3    H231899   2.043   6.333  10.702 -0.5883 -0.6385  0.6563
 3470TIP3   OH231900   0.879   5.779   4.111 -0.8289  0.0647  0.6348
 3470TIP3    H131901   0.815   5.805   4.177 -0.6501  1.3677  0.3084
 3470TIP3    H231902   0.830   5.722   4.052 -2.2766  2.5253 -0.6996
 3471TIP3   OH231903   5.719   5.937   5.035 -0.1285 -0.2897  0.7961
 3471TIP3    H131904   5.771   5.861   5.010 -1.4170 -0.2150 -2.6337
 3471TIP3    H231905   5.772   6.012   5.009 -0.0768 -0.0791  1.4893
 3472TIP3   OH231906   0.916   5.362  11.008 -0.0602  0.2161  0.5378
 3472TIP3    H131907   0.976   5.293  10.980 -0.1455 -0.3417  1.6850
 3472TIP3    H231908   0.966   5.443  10.998  0.2407 -0.0529 -0.2570
 3473TIP3   OH231909   5.664   0.530   5.798  0.4629 -0.1838  0.0611
 3473TIP3    H131910   5.729   0.532   5.727  0.7784 -0.3801  0.3417
 3473TIP3    H231911   5.716   0.541   5.878  0.2719 -1.3609  0.3646
 3474TIP3   OH231912   3.390   0.923  17.039  0.2746 -0.0724  0.1582
 3474TIP3    H131913   3.375   0.882  17.124  0.1971  2.0508  1.2394
 3474TIP3    H231914   3.317   0.894  16.985  0.7915 -2.1547  0.4875
 3475TIP3   OH231915   6.762   1.709   2.588 -0.4704 -0.0792 -0.0927
 3475TIP3    H131916   6.694   1.682   2.649 -1.1542 -0.2681 -0.9167
 3475TIP3    H231917   6.725   1.786   2.544 -1.3966 -1.7930 -2.5476
 3476TIP3   OH231918   2.354   3.115   0.451  0.1838  0.3239 -0.2071
 3476TIP3    H131919   2.350   3.023   0.426 -0.7741 -0.0264  1.0617
 3476TIP3    H231920   2.288   3.158   0.397 -1.1296 -0.2260  0.8960
 3477TIP3   OH231921   1.799   2.965   5.612  0.5502  0.6371  0.5757
 3477TIP3    H131922   1.758   3.049   5.592 -0.1796  0.2231  0.3275
 3477TIP3    H231923   1.892   2.978   5.590  0.5103  1.4891  0.8909
 3478TIP3   OH231924   2.132   3.658  15.597 -0.1762  0.3664  0.0037
 3478TIP3    H131925   2.198   3.720  15.567  0.6042 -0.2133  0.4677
 3478TIP3    H231926   2.182   3.592  15.645 -0.8063 -1.3258 -1.5426
 3479TIP3   OH231927   4.295   2.146  12.989 -0.3451  0.3275 -0.5227
 3479TIP3    H131928   4.296   2.103  12.903  0.1243  2.7260 -1.8131
 3479TIP3    H231929   4.385   2.141  13.020  0.2863  2.3864 -1.8245
 3480TIP3   OH231930   2.930   6.421  16.332 -0.0129 -0.4103  0.3802
 3480TIP3    H131931   2.889   6.442  16.416  0.0711  2.0468 -0.1229
 3480TIP3    H231932   3.017   6.460  16.337 -0.2526  0.3865 -1.0733
 3481TIP3   OH231933   5.458   6.144  16.240  0.2153 -0.2964 -0.1888
 3481TIP3    H131934   5.487   6.186  16.320 -1.3084  2.3675 -0.9005
 3481TIP3    H231935   5.477   6.209  16.171 -0.8188 -1.4321 -1.6034
 3482TIP3   OH231936   0.559   3.362   4.960 -0.0618  0.0876  1.1817
 3482TIP3    H131937   0.634   3.417   4.983 -0.5412  0.8480  0.9490
 3482TIP3    H231938   0.496   3.422   4.922 -0.1424 -0.8039 -0.1497
 3483TIP3   OH231939   5.264   6.303  10.831  0.2870 -0.2992  0.8400
 3483TIP3    H131940   5.256   6.305  10.736  0.9396 -0.5921  0.7687
 3483TIP3    H231941   5.189   6.352  10.863 -0.1082 -0.4606  0.1813
 3484TIP3   OH231942   3.400   3.757   2.038  0.2512 -0.0512  0.5193
 3484TIP3    H131943   3.398   3.774   1.944  0.5312  2.5060  0.8984
 3484TIP3    H231944   3.359   3.834   2.077 -0.2690 -1.2570  2.4928
 3485TIP3   OH231945   6.710   0.269   0.972  0.7481 -0.0390  0.0868
 3485TIP3    H131946   6.748   0.327   1.038  1.2307 -0.6215  0.3395
 3485TIP3    H231947   6.631   0.235   1.014 -1.2662  2.7312 -1.1947
 3486TIP3   OH231948   5.485   3.163   3.539 -0.2824  0.0447  0.1950
 3486TIP3    H131949   5.566   3.113   3.550 -1.8003 -2.1782  2.3148
 3486TIP3    H231950   5.483   3.223   3.614  0.8533  2.5014 -1.5982
 3487TIP3   OH231951   2.833   0.192  13.331 -0.7943  0.6036 -0.2581
 3487TIP3    H131952   2.766   0.221  13.269 -0.7220 -0.4967 -0.8754
 3487TIP3    H231953   2.849   0.101  13.308  1.5224  1.0704 -0.6746
 3488TIP3   OH231954   2.249   4.492   3.846  0.3791  0.9218 -0.6438
 3488TIP3    H131955   2.243   4.464   3.754  1.1662  1.9353 -1.0172
 3488TIP3    H231956   2.312   4.563   3.845  0.3375  0.9900  0.6895
 3489TIP3   OH231957   1.462   5.867  16.185  0.4931 -0.1172  0.5453
 3489TIP3    H131958   1.406   5.794  16.211 -0.9332  0.4979 -0.6522
 3489TIP3    H231959   1.449   5.933  16.253  3.2712 -1.6085  2.6884
 3490TIP3   OH231960   3.027   0.211   1.545 -0.6974  0.2533  0.2797
 3490TIP3    H131961   3.013   0.230   1.637 -0.5920 -0.0711  0.3622
 3490TIP3    H231962   3.048   0.118   1.542  1.5301  0.7168  0.1691
 3491TIP3   OH231963   1.332   6.378   4.618  0.0541  0.1171  0.3261
 3491TIP3    H131964   1.366   6.421   4.540  1.7964  0.0530  1.0109
 3491TIP3    H231965   1.351   6.438   4.690 -1.7542  0.2935  0.7087
 3492TIP3   OH231966   1.185   1.411  12.461  0.2301  0.7255  0.2234
 3492TIP3    H131967   1.178   1.317  12.477 -0.0518  0.7316  0.1459
 3492TIP3    H231968   1.098   1.436  12.430  0.3838  0.9636 -0.0136
 3493TIP3   OH231969   3.811   5.060  14.993  0.6522 -0.0006  0.1219
 3493TIP3    H131970   3.819   5.088  15.085 -1.4147 -0.7477  0.5795
 3493TIP3    H231971   3.900   5.036  14.968  1.4189  1.0368  1.6494
 3494TIP3   OH231972   2.150   2.478  17.060 -0.1498  0.4860 -0.1407
 3494TIP3    H131973   2.227   2.528  17.032 -0.3922  1.9968  1.7392
 3494TIP3    H231974   2.076   2.527  17.025 -0.3163 -0.6462 -1.4435
 3495TIP3   OH231975   0.136   3.013  14.544  0.0713  0.1355 -0.0710
 3495TIP3    H131976   0.121   3.078  14.613  0.0982  0.1363 -0.0660
 3495TIP3    H231977   0.205   3.051  14.490 -0.1294  0.2529 -0.2488
 3496TIP3   OH231978   2.268   1.425  14.735 -0.1875  0.6665 -0.2416
 3496TIP3    H131979   2.350   1.376  14.737 -0.4287  0.1312 -2.0279
 3496TIP3    H231980   2.291   1.511  14.771  0.3849 -0.4540  2.3259
 3497TIP3   OH231981   0.833   2.845  14.544  0.1724  0.4734 -0.0119
 3497TIP3    H131982   0.860   2.763  14.584  2.6581  1.7336  1.1007
 3497TIP3    H231983   0.913   2.882  14.507 -1.4799  0.7162 -3.8378
 3498TIP3   OH231984   1.268   4.845   1.279  0.0982 -0.1723  0.3209
 3498TIP3    H131985   1.227   4.903   1.343 -0.4438 -1.0114  0.7559
 3498TIP3    H231986   1.354   4.825   1.316  0.2811  0.3396  0.1755
 3499TIP3   OH231987   3.134   2.903  16.240 -0.9238 -0.4222 -0.2672
 3499TIP3    H131988   3.121   2.855  16.322  1.9984 -1.5801 -0.3630
 3499TIP3    H231989   3.202   2.967  16.260 -0.1296 -0.7617 -1.7552
 3500TIP3   OH231990   0.854   3.832   4.702  0.8647  0.1305 -0.1659
 3500TIP3    H131991   0.761   3.839   4.680  0.8355 -0.0723 -0.1146
 3500TIP3    H231992   0.866   3.887   4.779  0.7306 -0.0579 -0.0095
 3501TIP3   OH231993   5.701   0.071  11.499 -0.2321  0.1068  0.1173
 3501TIP3    H131994   5.669   0.124  11.572  0.9065  0.7407  0.1788
 3501TIP3    H231995   5.791   0.050  11.523 -0.3262 -0.9452 -0.4199
 3502TIP3   OH231996   3.905   3.144   6.691 -0.0205  0.0540  0.0207
 3502TIP3    H131997   3.851   3.156   6.612 -0.5557  0.8770  0.4864
 3502TIP3    H231998   3.878   3.216   6.749  2.5881  1.3859 -0.2604
 3503TIP3   OH231999   6.735   3.366   3.185  0.2405  0.2204 -0.1301
 3503TIP3    H132000   6.788   3.320   3.249 -1.1815 -0.5266  0.5380
 3503TIP3    H232001   6.729   3.306   3.111 -0.6019 -0.1759  0.2521
 3504TIP3   OH232002   0.755   1.515   4.510 -0.3053  0.2093 -0.7955
 3504TIP3    H132003   0.799   1.582   4.458 -0.9308  0.9729 -0.3424
 3504TIP3    H232004   0.683   1.485   4.454 -0.2607  0.1849 -0.8407
 3505TIP3   OH232005   5.115   2.604  16.444  0.3882 -0.2268 -0.3582
 3505TIP3    H132006   5.180   2.556  16.495 -0.6261  0.2437  1.4645
 3505TIP3    H232007   5.159   2.621  16.360  3.6071  2.1237  1.5525
 3506TIP3   OH232008   3.556   3.703  14.473 -0.2747  0.3769 -0.4322
 3506TIP3    H132009   3.638   3.730  14.433 -0.6840  0.4379 -1.2644
 3506TIP3    H232010   3.510   3.655  14.404 -0.9741  0.4207 -0.0123
 3507TIP3   OH232011   3.208   2.114   3.459  0.2379  0.1373  0.3216
 3507TIP3    H132012   3.229   2.071   3.542 -1.8132 -2.3011 -0.2863
 3507TIP3    H232013   3.248   2.058   3.392 -1.2915 -0.0592 -0.4629
 3508TIP3   OH232014   1.119   0.709   3.901  0.2541 -0.4439 -0.0781
 3508TIP3    H132015   1.065   0.755   3.836  3.1282  0.1766 -2.2045
 3508TIP3    H232016   1.156   0.635   3.854  1.7920 -0.4660  1.0863
 3509TIP3   OH232017   2.934   4.454  10.723 -0.5733  0.1645 -0.1707
 3509TIP3    H132018   2.874   4.480  10.653 -0.0669 -0.1366 -0.7256
 3509TIP3    H232019   2.923   4.360  10.732 -1.8942  0.4269  1.3632
 3510TIP3   OH232020   6.146   5.835  11.587  0.2116  0.1681  0.2313
 3510TIP3    H132021   6.059   5.813  11.622 -1.2131  0.5731 -2.7448
 3510TIP3    H232022   6.161   5.925  11.617 -0.4768  0.1497  0.6714
 3511TIP3   OH232023   1.649   3.674   5.447  0.3490 -0.0372  0.7933
 3511TIP3    H132024   1.651   3.597   5.503  0.1875  1.1097  2.4393
 3511TIP3    H232025   1.613   3.642   5.364  1.4251 -1.9657  1.0039
 3512TIP3   OH232026   2.716   0.822   1.954 -0.2311  0.5946  0.2242
 3512TIP3    H132027   2.642   0.790   1.902 -0.0084  0.5172 -0.0468
 3512TIP3    H232028   2.677   0.847   2.038 -0.4604 -0.1134  0.3396
 3513TIP3   OH232029   0.890   3.658  15.206 -0.3174  0.4015  0.2468
 3513TIP3    H132030   0.842   3.585  15.167  0.0923  1.1487 -1.7977
 3513TIP3    H232031   0.941   3.619  15.276  0.0016 -1.3199 -0.8933
 3514TIP3   OH232032   1.468   4.530   5.350 -0.0822  0.2858 -0.5975
 3514TIP3    H132033   1.396   4.565   5.298 -0.3544  0.1868 -0.2854
 3514TIP3    H232034   1.446   4.552   5.440  1.3536  2.2777 -0.6445
 3515TIP3   OH232035   0.151   2.717   4.594 -0.3550  0.8671  0.5044
 3515TIP3    H132036   0.086   2.786   4.585 -1.3913  0.2514  2.5746
 3515TIP3    H232037   0.117   2.661   4.665  1.7467 -0.2575  0.7116
 3516TIP3   OH232038   2.568   2.924   5.836  0.4177 -0.4457 -0.1717
 3516TIP3    H132039   2.537   2.888   5.752 -0.0132  0.9790 -0.6469
 3516TIP3    H232040   2.522   2.873   5.902 -0.3566 -0.6260 -0.8259
 3517TIP3   OH232041   0.805   4.226   2.331  0.7841  0.4534 -0.2284
 3517TIP3    H132042   0.870   4.297   2.331  0.6202  0.6109  0.8004
 3517TIP3    H232043   0.830   4.171   2.404 -0.5738  0.8281  0.5477
 3518TIP3   OH232044   1.806   3.372   1.892 -0.3530  0.4976  0.3969
 3518TIP3    H132045   1.768   3.391   1.977 -2.1558 -0.2554 -0.1814
 3518TIP3    H232046   1.767   3.288   1.867 -0.6161  1.1512 -1.5691
 3519TIP3   OH232047   0.263   3.633  12.687  0.1909  0.3107 -0.1608
 3519TIP3    H132048   0.246   3.573  12.759  0.1919  0.7455  0.2045
 3519TIP3    H232049   0.299   3.712  12.728 -1.8129  1.4103 -0.3872
 3520TIP3   OH232050   0.466   1.935  10.487 -0.1936 -0.3499 -0.1338
 3520TIP3    H132051   0.459   1.859  10.430  2.7327  0.1975 -1.3891
 3520TIP3    H232052   0.455   2.010  10.428 -0.0176  0.2164  0.5443
 3521TIP3   OH232053   2.436   6.631   2.449  0.1523  0.1795 -0.3027
 3521TIP3    H132054   2.504   6.571   2.479  0.5544  0.2663 -1.0216
 3521TIP3    H232055   2.410   6.679   2.528  0.5658 -0.2109  0.0729
 3522TIP3   OH232056   5.499   4.155  11.384  0.6971  0.4609  0.0696
 3522TIP3    H132057   5.483   4.220  11.452  2.7847  0.0307  1.0396
 3522TIP3    H232058   5.429   4.170  11.320 -0.5850  1.7127  1.6637
 3523TIP3   OH232059   6.071   2.249   3.185  0.3285 -0.0416  0.0567
 3523TIP3    H132060   6.095   2.339   3.161 -0.8462  0.6776  1.4286
 3523TIP3    H232061   6.047   2.208   3.102  3.4573  0.0220 -0.9956
 3524TIP3   OH232062   0.706   5.094  15.137 -0.0651  0.4870 -0.9741
 3524TIP3    H132063   0.646   5.061  15.070 -0.8552  0.5980 -0.3256
 3524TIP3    H232064   0.747   5.170  15.095 -0.0609  0.1627 -1.5724
 3525TIP3   OH232065   2.243   5.916  16.687 -0.1314 -0.2059  0.1448
 3525TIP3    H132066   2.262   5.996  16.736  0.3574 -1.1692  1.5863
 3525TIP3    H232067   2.148   5.911  16.685 -0.1786  0.7229 -0.4994
 3526TIP3   OH232068   4.908   3.309   0.984 -0.3355 -0.0537 -0.0769
 3526TIP3    H132069   4.939   3.259   1.060  1.0263 -1.0544 -1.2263
 3526TIP3    H232070   4.818   3.333   1.006 -1.2505 -3.3874  0.4229
 3527TIP3   OH232071   4.080   6.270   4.063  0.1444 -0.2713 -0.0834
 3527TIP3    H132072   4.170   6.276   4.031 -0.2318 -1.4191 -1.5162
 3527TIP3    H232073   4.036   6.346   4.025  0.3421 -0.1083  0.0133
 3528TIP3   OH232074   5.134   3.337  14.198 -0.0382  0.9418  0.1881
 3528TIP3    H132075   5.112   3.250  14.230 -1.4106  1.8354  1.8626
 3528TIP3    H232076   5.076   3.352  14.124 -0.6950  0.8929  0.6852
 3529TIP3   OH232077   1.179   1.304   5.011 -0.2519  0.6411 -0.2045
 3529TIP3    H132078   1.129   1.224   4.991  0.0942  1.1362 -3.6192
 3529TIP3    H232079   1.135   1.373   4.963  2.9784  1.2857 -2.6349
 3530TIP3   OH232080   6.160   6.002   4.498  0.0947  0.5093 -0.1320
 3530TIP3    H132081   6.106   5.923   4.499  0.1645  0.4419 -0.9123
 3530TIP3    H232082   6.099   6.073   4.518 -0.3817  0.4810 -1.3746
 3531TIP3   OH232083   3.605   5.215   0.701 -0.0144  0.5079  0.1384
 3531TIP3    H132084   3.604   5.223   0.606  2.1123 -1.6299 -0.1855
 3531TIP3    H232085   3.634   5.300   0.733 -0.1532  1.0598 -1.1619
 3532TIP3   OH232086   6.071   6.340   3.902  0.8173 -0.3260  0.3518
 3532TIP3    H132087   6.022   6.288   3.965  1.6363 -0.5379  0.8374
 3532TIP3    H232088   6.141   6.381   3.954  1.3197 -0.2580 -0.3582
 3533TIP3   OH232089   0.417   0.498  15.626 -0.2016  0.3250 -0.4563
 3533TIP3    H132090   0.489   0.492  15.564  0.2597 -0.1808  0.1185
 3533TIP3    H232091   0.358   0.426  15.602  0.1705 -0.1136 -0.0718
 3534TIP3   OH232092   4.311   3.031  14.594 -0.0280 -0.2393  0.4679
 3534TIP3    H132093   4.221   3.002  14.578 -0.6750  1.1453  1.4428
 3534TIP3    H232094   4.303   3.103  14.656  1.7160  0.3354  0.0905
 3535TIP3   OH232095   0.643   4.629   1.672 -0.0531 -0.1611 -0.6771
 3535TIP3    H132096   0.575   4.566   1.696  0.1295 -0.4447 -0.8994
 3535TIP3    H232097   0.714   4.612   1.733 -0.1676  0.1143 -0.4649
 3536TIP3   OH232098   3.923   3.557   0.528  0.2542  0.2145  0.3310
 3536TIP3    H132099   3.840   3.595   0.557 -0.3350 -0.4145 -0.5041
 3536TIP3    H232100   3.941   3.489   0.593 -2.2036 -2.7393 -1.7865
 3537TIP3   OH232101   2.532   0.421  12.148 -0.3991  0.1216  0.2019
 3537TIP3    H132102   2.550   0.488  12.083  0.1287 -1.4920 -1.4015
 3537TIP3    H232103   2.446   0.386  12.124  0.4383 -1.4937 -0.5915
 3538TIP3   OH232104   0.499   2.437   1.689  0.1158 -0.1954  0.1824
 3538TIP3    H132105   0.464   2.355   1.654 -1.5137  0.7047 -0.3963
 3538TIP3    H232106   0.552   2.410   1.764 -1.1747 -1.7279  0.6003
 3539TIP3   OH232107   6.490   1.776   0.901 -0.3158 -0.1603 -0.6008
 3539TIP3    H132108   6.576   1.772   0.860 -0.2251 -1.2439 -0.3296
 3539TIP3    H232109   6.506   1.814   0.987 -0.1521 -0.0669 -0.6726
 3540TIP3   OH232110   5.386   5.581  11.598  0.1941 -0.5084  0.3994
 3540TIP3    H132111   5.445   5.557  11.527 -0.7785 -2.4693  0.1697
 3540TIP3    H232112   5.312   5.520  11.590 -1.1085  0.8002  1.6289
 3541TIP3   OH232113   5.235   1.820  14.372  0.1262  0.4540 -0.2022
 3541TIP3    H132114   5.142   1.801  14.387  0.5680 -0.7834  1.2868
 3541TIP3    H232115   5.267   1.849  14.458  1.4869 -0.8307 -0.2388
 3542TIP3   OH232116   2.122   6.712   3.001  0.0471 -0.5315 -0.4789
 3542TIP3    H132117   2.057   6.778   3.029  1.4099  0.5903  0.1588
 3542TIP3    H232118   2.164   6.751   2.925  1.1220 -0.4817  0.1248
 3543TIP3   OH232119   1.933   3.862  13.712  0.2344  0.8156  0.1226
 3543TIP3    H132120   1.930   3.957  13.715  2.1613  0.9118  0.6955
 3543TIP3    H232121   1.981   3.837  13.791 -1.9367 -0.7924  1.0326
 3544TIP3   OH232122   5.014   3.700   3.908  0.1904 -0.1795  0.0812
 3544TIP3    H132123   5.010   3.660   3.995  0.6866  0.5433  0.4453
 3544TIP3    H232124   5.081   3.650   3.862 -1.5323 -1.9668 -0.6493
 3545TIP3   OH232125   6.713   0.749   2.820  0.5414 -0.3687 -0.2581
 3545TIP3    H132126   6.709   0.843   2.838  0.9137 -0.2177 -0.9467
 3545TIP3    H232127   6.622   0.724   2.802  0.2532 -0.3930  1.1120
 3546TIP3   OH232128   0.385   5.093  13.030  0.4594  0.0956 -0.2138
 3546TIP3    H132129   0.367   5.169  12.975  0.4571  1.0360  1.0395
 3546TIP3    H232130   0.480   5.082  13.026  0.3403 -0.6238 -1.3843
 3547TIP3   OH232131   0.023   2.207   2.524  0.6570 -0.9323  0.1465
 3547TIP3    H132132   0.103   2.201   2.472  1.2219  1.0541  0.6735
 3547TIP3    H232133   0.031   2.290   2.571 -1.7696 -0.6044  0.1428
 3548TIP3   OH232134   4.358   0.275  13.892  0.9648 -0.5550 -0.1657
 3548TIP3    H132135   4.323   0.238  13.973  0.9709 -2.3959 -0.9339
 3548TIP3    H232136   4.280   0.292  13.838  1.0256 -0.6201 -0.2743
 3549TIP3   OH232137   3.021   2.576   0.079  0.0744  0.1434  0.2066
 3549TIP3    H132138   3.066   2.547   0.159 -1.0576  0.6592  1.0603
 3549TIP3    H232139   3.037   2.670   0.075 -1.9929  0.6112  1.2973
 3550TIP3   OH232140   2.781   4.866   2.748  0.2375  0.0116  0.6572
 3550TIP3    H132141   2.719   4.846   2.678  0.6781 -0.3869  0.3689
 3550TIP3    H232142   2.816   4.780   2.774  0.9499  0.2580  0.5448
 3551TIP3   OH232143   2.469   6.379   5.483  0.4699  0.0344 -0.3648
 3551TIP3    H132144   2.451   6.468   5.512  0.0645 -0.8308  2.4500
 3551TIP3    H232145   2.489   6.332   5.564  0.2617 -2.5189 -1.6901
 3552TIP3   OH232146   0.193   0.817  15.943  0.1325 -0.3251 -0.7211
 3552TIP3    H132147   0.224   0.728  15.955 -1.2314 -0.9114 -1.3316
 3552TIP3    H232148   0.201   0.858  16.030 -1.0625 -1.6508  0.0419
 3553TIP3   OH232149   6.559   0.388  12.514 -0.3136 -0.1087  0.1301
 3553TIP3    H132150   6.516   0.465  12.475  0.4235  0.3561  0.2149
 3553TIP3    H232151   6.651   0.413  12.520  0.0693 -1.2924 -0.5502
 3554TIP3   OH232152   5.441   1.589  11.920 -0.0438 -0.0718  0.1497
 3554TIP3    H132153   5.455   1.634  12.004 -0.2197 -1.1516  0.7729
 3554TIP3    H232154   5.386   1.649  11.870  0.7418  0.9609  0.4682
 3555TIP3   OH232155   1.274   0.706  14.396  0.0306  0.2189  0.4200
 3555TIP3    H132156   1.335   0.681  14.327 -1.0301  0.6805 -0.7388
 3555TIP3    H232157   1.328   0.718  14.474  1.2228 -0.5837 -0.2649
 3556TIP3   OH232158   5.038   5.810   0.938 -0.0996  0.2754 -0.4512
 3556TIP3    H132159   5.026   5.778   0.849 -0.0586 -1.6152  0.1672
 3556TIP3    H232160   4.976   5.758   0.990  0.5090  0.7026  0.7326
 3557TIP3   OH232161   5.287   0.494   2.066 -0.0791 -0.7393 -0.3117
 3557TIP3    H132162   5.301   0.571   2.120  1.4866 -0.9128 -0.4263
 3557TIP3    H232163   5.268   0.529   1.979 -0.2588 -0.4760 -0.1662
 3558TIP3   OH232164   1.454   4.455  15.662  0.0379 -0.1299 -0.6123
 3558TIP3    H132165   1.500   4.537  15.644 -1.2950  1.3225  2.0545
 3558TIP3    H232166   1.491   4.423  15.744 -1.8426 -0.2849  0.2331
 3559TIP3   OH232167   3.819   4.328   0.723  0.1820  0.0544  0.0088
 3559TIP3    H132168   3.840   4.378   0.802 -0.1480  1.0424 -0.5123
 3559TIP3    H232169   3.727   4.305   0.734  0.6552 -1.5759  0.8402
 3560TIP3   OH232170   3.205   4.193   2.829 -0.0131  0.1537 -0.5431
 3560TIP3    H132171   3.296   4.180   2.857  0.1797  0.3265 -1.0592
 3560TIP3    H232172   3.189   4.287   2.843 -0.6272 -0.1605  0.9892
 3561TIP3   OH232173   4.313   2.103  14.792  0.3352  0.6433  0.5277
 3561TIP3    H132174   4.354   2.163  14.730 -0.2533 -1.2338 -1.7924
 3561TIP3    H232175   4.221   2.130  14.794  0.6720  1.9112  2.1878
 3562TIP3   OH232176   3.983   1.666   1.146 -0.1057 -0.2230  1.0952
 3562TIP3    H132177   3.940   1.734   1.094  1.3895 -0.7848 -1.0133
 3562TIP3    H232178   4.042   1.714   1.204 -0.1110  0.3620  0.6325
 3563TIP3   OH232179   2.472   0.927  12.993  0.7983 -0.7963  0.0402
 3563TIP3    H132180   2.442   0.871  12.921  1.3865  0.6847 -1.4424
 3563TIP3    H232181   2.540   0.876  13.037  0.9252 -1.4763 -0.9096
 3564TIP3   OH232182   3.568   2.546  16.694 -0.2236 -0.1803 -0.0111
 3564TIP3    H132183   3.567   2.583  16.605  0.3078 -0.9123 -0.3310
 3564TIP3    H232184   3.530   2.615  16.749 -0.6130  0.2626 -0.8123
 3565TIP3   OH232185   2.229   2.822   1.747  0.5870  0.2458 -0.4174
 3565TIP3    H132186   2.269   2.809   1.661  1.3740 -2.2276  0.2442
 3565TIP3    H232187   2.238   2.738   1.791 -2.5269  0.5022  0.9997
 3566TIP3   OH232188   4.389   6.456   2.483 -0.0584  0.6464 -0.0292
 3566TIP3    H132189   4.401   6.459   2.578  1.6007 -0.7274 -0.1574
 3566TIP3    H232190   4.450   6.521   2.449 -0.1144  0.6132 -0.1906
 3567TIP3   OH232191   0.682   3.107   0.418 -0.1198  0.2428 -0.4327
 3567TIP3    H132192   0.765   3.082   0.460 -1.2815  1.4273  2.8561
 3567TIP3    H232193   0.700   3.100   0.324  3.5785  0.0829  0.1377
 3568TIP3   OH232194   3.919   6.792  11.775 -0.4438  0.0786  0.0627
 3568TIP3    H132195   4.002   6.808  11.819 -0.8494  0.9793  0.5449
 3568TIP3    H232196   3.937   6.723  11.712  0.3158 -0.7686  1.1795
 3569TIP3   OH232197   4.979   2.717  15.375 -0.3273 -0.0917  0.5014
 3569TIP3    H132198   4.952   2.632  15.339  1.4295 -1.8520  2.9644
 3569TIP3    H232199   5.037   2.754  15.309 -1.2487 -0.6909 -0.6946
 3570TIP3   OH232200   3.157   2.280   2.254  0.2807 -0.4240  0.2817
 3570TIP3    H132201   3.113   2.324   2.327  0.2113 -0.3626  0.2050
 3570TIP3    H232202   3.231   2.234   2.293  0.3795 -0.2010  0.3588
 3571TIP3   OH232203   2.484   0.379  13.696 -0.1394 -0.1193  0.7722
 3571TIP3    H132204   2.550   0.326  13.739  1.2924  1.4442  0.6145
 3571TIP3    H232205   2.479   0.458  13.750 -1.1222  0.2291  0.1922
 3572TIP3   OH232206   4.207   0.085   1.419 -0.0899  0.5890  0.9847
 3572TIP3    H132207   4.263   0.106   1.493 -0.5596  0.9949  1.2368
 3572TIP3    H232208   4.126   0.052   1.459  1.1918 -3.4617  0.6085
 3573TIP3   OH232209   3.804   4.154  14.167  0.0329 -0.2274  0.1363
 3573TIP3    H132210   3.710   4.133  14.169  0.3479 -1.6808  0.3766
 3573TIP3    H232211   3.819   4.205  14.247 -0.6076  0.3231 -0.0797
 3574TIP3   OH232212   4.220   0.037   2.123  0.1740 -0.3903  0.2742
 3574TIP3    H132213   4.291   0.008   2.180  0.3263 -0.8840 -0.1643
 3574TIP3    H232214   4.146  -0.020   2.145  0.1743 -0.4508  0.1185
 3575TIP3   OH232215   3.673   1.879  11.235  0.2500  0.4723 -0.0136
 3575TIP3    H132216   3.652   1.837  11.151 -1.4670  0.9002  0.1618
 3575TIP3    H232217   3.720   1.813  11.284 -0.6109 -0.5452 -0.5190
 3576TIP3   OH232218   6.169   0.924  10.707 -0.8601  0.0495  0.4596
 3576TIP3    H132219   6.133   0.871  10.635  1.3505  0.7156 -1.2457
 3576TIP3    H232220   6.206   0.860  10.767 -1.6721 -0.4678  0.4308
 3577TIP3   OH232221   6.604   3.742   1.388  0.2290  0.4236  0.7271
 3577TIP3    H132222   6.646   3.664   1.352 -0.6191  0.7994 -1.1655
 3577TIP3    H232223   6.552   3.709   1.461 -4.1541 -1.8415 -2.9066
 3578TIP3   OH232224   5.049   5.421  11.647 -0.0104  0.1756  0.2906
 3578TIP3    H132225   5.123   5.372  11.684  0.2521  0.0462 -0.4018
 3578TIP3    H232226   5.081   5.454  11.564 -1.4068 -1.7457 -1.1069
 3579TIP3   OH232227   2.299   1.421  16.446  0.3248 -0.3180  0.5437
 3579TIP3    H132228   2.376   1.375  16.478  1.7278  1.0582 -0.6914
 3579TIP3    H232229   2.282   1.383  16.360 -0.4899 -0.6984  0.8545
 3580TIP3   OH232230   4.730   5.848   4.942 -0.1042  0.0820 -0.1750
 3580TIP3    H132231   4.815   5.837   4.901 -0.5348  0.1765 -1.1115
 3580TIP3    H232232   4.671   5.791   4.892 -1.8177  4.1378 -3.3802
 3581TIP3   OH232233   4.786   6.663  11.695  0.2555  0.1219 -0.3048
 3581TIP3    H132234   4.692   6.653  11.681  0.4186 -1.9013 -0.2053
 3581TIP3    H232235   4.825   6.588  11.650  1.6022 -0.6645  2.0098
 3582TIP3   OH232236   5.708   5.520  16.906 -0.0875 -0.7473 -0.1922
 3582TIP3    H132237   5.625   5.524  16.954  0.9200 -0.4245  1.6356
 3582TIP3    H232238   5.695   5.578  16.831 -1.3347 -0.2749  0.3617
 3583TIP3   OH232239   5.572   0.306  10.594 -0.0693 -0.4832 -0.2564
 3583TIP3    H132240   5.483   0.338  10.605 -0.5024 -2.2207  1.9389
 3583TIP3    H232241   5.627   0.379  10.624 -0.8341 -0.0914  0.2369
 3584TIP3   OH232242   4.362   2.432  13.616 -0.1676 -0.5259  0.2441
 3584TIP3    H132243   4.357   2.524  13.590 -1.0696 -0.3535  0.9413
 3584TIP3    H232244   4.396   2.434  13.705  0.2782 -0.9082  0.0854
 3585TIP3   OH232245   2.437   0.908   4.592  0.2716 -0.9069 -0.2795
 3585TIP3    H132246   2.390   0.947   4.666  1.3348 -1.2252  0.5760
 3585TIP3    H232247   2.456   0.982   4.534  0.6791 -0.4231  0.4588
 3586TIP3   OH232248   4.871   5.630   1.526 -0.4316  0.2249 -0.8302
 3586TIP3    H132249   4.853   5.557   1.466 -1.1218 -0.4588  0.1791
 3586TIP3    H232250   4.788   5.676   1.534 -1.2176 -1.4025  1.8042
 3587TIP3   OH232251   0.198   0.528  11.883 -0.6115 -0.3617  0.0560
 3587TIP3    H132252   0.289   0.558  11.886 -0.6243 -0.2849 -0.2360
 3587TIP3    H232253   0.146   0.609  11.883 -0.6545 -0.3830 -0.4704
 3588TIP3   OH232254   0.562   3.976  14.469  0.3263 -0.4461 -0.0339
 3588TIP3    H132255   0.518   4.050  14.512  0.7704  2.0403 -3.3977
 3588TIP3    H232256   0.491   3.925  14.431 -0.0036 -2.1054  2.5635
 3589TIP3   OH232257   4.516   3.050  16.713 -0.2880  0.0336 -0.3825
 3589TIP3    H132258   4.456   3.090  16.651 -0.4810  0.6534  0.1951
 3589TIP3    H232259   4.567   3.123  16.747 -0.0572 -0.3262  0.0486
 3590TIP3   OH232260   1.151   2.119   2.820  0.4296 -0.5112  0.1734
 3590TIP3    H132261   1.184   2.110   2.730  0.4660  0.7171  0.0547
 3590TIP3    H232262   1.099   2.039   2.833 -0.8529 -0.0159 -1.4967
 3591TIP3   OH232263   0.283   0.840  15.657 -0.4932 -0.0762  0.1628
 3591TIP3    H132264   0.221   0.817  15.726  0.6006 -0.1914  1.1343
 3591TIP3    H232265   0.361   0.870  15.703  0.3465 -0.3668 -1.0143
 3592TIP3   OH232266   3.947   3.724  13.572  0.4868 -0.0315  0.6167
 3592TIP3    H132267   3.920   3.809  13.606 -0.8628  0.4257 -1.4437
 3592TIP3    H232268   3.875   3.696  13.515  2.0132 -1.3524 -0.7812
 3593TIP3   OH232269   0.950   3.108   0.766 -0.0811 -0.2797  0.5744
 3593TIP3    H132270   0.901   3.053   0.827  1.2598  0.8875  2.8307
 3593TIP3    H232271   0.909   3.194   0.774  0.3314 -0.0298  0.0404
 3594TIP3   OH232272   4.557   4.101   4.126  0.0319 -0.2826  0.0445
 3594TIP3    H132273   4.463   4.115   4.137  0.0928  0.7052 -0.5979
 3594TIP3    H232274   4.563   4.021   4.074 -0.5624  1.2027 -2.4300
 3595TIP3   OH232275   0.820   3.086  14.233  0.0553  0.3342  0.1253
 3595TIP3    H132276   0.907   3.060  14.203  0.2575  1.6844 -0.5460
 3595TIP3    H232277   0.769   3.005  14.231  1.3273 -0.5214  0.7183
 3596TIP3   OH232278   2.439   6.104   2.098 -0.1914  0.0742  0.2560
 3596TIP3    H132279   2.422   6.114   2.192  0.5278  0.2481  0.3825
 3596TIP3    H232280   2.357   6.075   2.061 -0.0825 -1.5060  1.1759
 3597TIP3   OH232281   5.987   2.229   6.172  0.8202  0.4760  0.1283
 3597TIP3    H132282   5.926   2.272   6.233 -0.1116 -0.5118 -0.0883
 3597TIP3    H232283   6.058   2.198   6.228  0.0745 -0.2369  0.7136
 3598TIP3   OH232284   0.670   3.739  16.286  0.2285  0.5606  0.2328
 3598TIP3    H132285   0.751   3.690  16.301  0.7384  1.0300 -0.8092
 3598TIP3    H232286   0.699   3.817  16.237 -0.8698  0.6475 -0.3017
 3599TIP3   OH232287   4.440   4.273   3.149  0.2217  0.4478  0.3123
 3599TIP3    H132288   4.494   4.350   3.167  0.9211 -0.0538  0.4507
 3599TIP3    H232289   4.503   4.200   3.148 -0.4453 -0.1433  0.3829
 3600TIP3   OH232290   0.300   4.711   4.907 -0.1068  0.1922 -0.6307
 3600TIP3    H132291   0.245   4.787   4.926  1.4086  0.9881  0.8302
 3600TIP3    H232292   0.284   4.651   4.979 -0.8061 -0.6257 -1.4415
 3601TIP3   OH232293   0.866   5.195   1.909  0.2760  0.1217 -0.4507
 3601TIP3    H132294   0.861   5.127   1.842 -0.3518 -0.4998  0.2208
 3601TIP3    H232295   0.778   5.199   1.947  0.3379  1.2062 -0.3724
 3602TIP3   OH232296   2.184   3.376  11.235  0.2727  0.3251  0.2261
 3602TIP3    H132297   2.270   3.408  11.208 -0.3729  2.5763  0.6225
 3602TIP3    H232298   2.168   3.299  11.180  0.8584  2.1769 -2.7673
 3603TIP3   OH232299   6.187   6.031  13.052 -0.1197  0.1714  0.1396
 3603TIP3    H132300   6.270   6.079  13.053  0.1462 -0.2865  1.2619
 3603TIP3    H232301   6.167   6.015  13.144 -0.9221 -0.6501 -0.1598
 3604TIP3   OH232302   3.489   0.487  14.030 -0.3721 -0.2830 -0.0039
 3604TIP3    H132303   3.479   0.575  13.995 -1.0216 -0.5361 -0.4915
 3604TIP3    H232304   3.464   0.495  14.122 -5.8892 -0.8393 -1.0949
 3605TIP3   OH232305   3.697   2.666   2.174  0.1230 -0.1534 -0.0376
 3605TIP3    H132306   3.657   2.600   2.116  0.6829 -1.3771  0.9135
 3605TIP3    H232307   3.755   2.716   2.117  2.8422 -3.1012 -0.1820
 3606TIP3   OH232308   4.338   4.080   2.903  0.6298 -0.2511  0.4477
 3606TIP3    H132309   4.341   4.174   2.882  0.0353 -0.4691 -0.6863
 3606TIP3    H232310   4.412   4.043   2.856  0.7407 -0.3859  0.7270
 3607TIP3   OH232311   6.701   0.684   4.769  0.4964 -0.4652 -0.1702
 3607TIP3    H132312   6.732   0.602   4.806 -0.4413 -0.6569  0.2231
 3607TIP3    H232313   6.608   0.669   4.752  0.0195  0.8791  1.0145
 3608TIP3   OH232314   4.566   3.105   4.903  0.0618  0.0017 -0.6466
 3608TIP3    H132315   4.586   3.040   4.971  1.0888  1.0076  0.0433
 3608TIP3    H232316   4.650   3.120   4.860 -0.9613 -2.4343 -3.8629
 3609TIP3   OH232317   6.352   1.465   1.521 -0.0012  0.0058 -0.0630
 3609TIP3    H132318   6.284   1.444   1.585 -0.3315  0.2991 -0.3170
 3609TIP3    H232319   6.383   1.552   1.548  1.2751 -0.7110  0.9121
 3610TIP3   OH232320   0.625   3.640   0.899  0.3394  0.0854 -0.7155
 3610TIP3    H132321   0.664   3.721   0.865 -2.0078  1.3107 -0.7453
 3610TIP3    H232322   0.570   3.669   0.972  0.7267 -1.7310  0.3288
 3611TIP3   OH232323   2.014   4.838  15.345 -0.1282 -0.6005  0.1523
 3611TIP3    H132324   2.030   4.931  15.330  0.3691 -0.9743 -1.9243
 3611TIP3    H232325   2.077   4.793  15.289 -0.8777 -2.1898  0.5164
 3612TIP3   OH232326   1.402   2.160  17.095 -1.1360  0.0991  0.6645
 3612TIP3    H132327   1.329   2.099  17.086 -1.2162  0.0646  1.4578
 3612TIP3    H232328   1.363   2.247  17.081 -0.8557 -0.0525 -1.3707
 3613TIP3   OH232329   5.923   2.402   0.540 -0.0896  0.2310 -0.2193
 3613TIP3    H132330   5.978   2.435   0.611  0.6008 -0.7284 -0.2884
 3613TIP3    H232331   5.854   2.468   0.530  0.0527  0.5928  1.0452
 3614TIP3   OH232332   3.636   1.691   3.052  0.3279 -0.0869 -0.0265
 3614TIP3    H132333   3.702   1.669   2.986 -0.1038 -0.7271 -0.2656
 3614TIP3    H232334   3.560   1.719   3.001  0.2436  0.1504  0.2279
 3615TIP3   OH232335   4.859   5.667   4.006 -0.0186  0.3093 -0.4717
 3615TIP3    H132336   4.911   5.681   3.927  0.3687  0.6823 -0.1515
 3615TIP3    H232337   4.781   5.621   3.975 -0.0385  0.7769 -1.1268
 3616TIP3   OH232338   3.578   4.302  15.701  0.0197 -0.3029  0.3859
 3616TIP3    H132339   3.495   4.350  15.695 -0.1624 -0.3982  1.8033
 3616TIP3    H232340   3.638   4.363  15.745  0.8111 -0.1392 -0.8486
 3617TIP3   OH232341   0.320   1.874   5.813 -0.1977  0.5826  0.1884
 3617TIP3    H132342   0.234   1.844   5.785 -0.1337  0.0903  0.5010
 3617TIP3    H232343   0.330   1.839   5.901  1.3430 -1.5750 -0.7372
 3618TIP3   OH232344   4.314   3.091   1.459 -0.1688  0.5775  0.4750
 3618TIP3    H132345   4.258   3.029   1.505  0.6215 -0.0389  0.6119
 3618TIP3    H232346   4.293   3.176   1.499 -0.9939  0.3543  0.5284
 3619TIP3   OH232347   6.719   1.789   0.555 -0.1943 -0.0611  0.1003
 3619TIP3    H132348   6.628   1.765   0.571 -0.1526  0.0296  0.4959
 3619TIP3    H232349   6.714   1.863   0.494 -0.2749 -1.8590 -2.1951
 3620TIP3   OH232350   1.360   2.521   1.036 -1.0144 -0.1476  0.4111
 3620TIP3    H132351   1.335   2.522   0.943 -0.5194 -2.1125  0.1934
 3620TIP3    H232352   1.325   2.438   1.068 -0.5064  0.1566  1.7914
 3621TIP3   OH232353   6.704   3.257   4.156 -0.1197  0.0934  0.7168
 3621TIP3    H132354   6.614   3.277   4.128 -0.7196 -3.0733 -0.0415
 3621TIP3    H232355   6.758   3.282   4.081 -0.8221 -1.0581 -0.2199
 3622TIP3   OH232356   1.048   0.132   2.495  0.5168  0.2770 -0.3544
 3622TIP3    H132357   1.075   0.053   2.448 -1.1450 -1.1236  0.9220
 3622TIP3    H232358   1.020   0.192   2.426 -2.0808 -1.8102 -1.2950
 3623TIP3   OH232359   5.619   5.724  16.715 -0.3413  0.0992  0.1390
 3623TIP3    H132360   5.602   5.818  16.705 -2.6128 -0.2073  0.6425
 3623TIP3    H232361   5.574   5.684  16.640  0.5445 -0.6011 -0.0293
 3624TIP3   OH232362   4.026   4.214   1.297 -0.2798  0.0198 -0.1139
 3624TIP3    H132363   4.060   4.240   1.211 -2.0365 -1.2368 -1.2478
 3624TIP3    H232364   3.970   4.287   1.324 -0.0656  0.2317 -0.2406
 3625TIP3   OH232365   6.836   4.622  10.273 -0.4029  0.0840  0.0783
 3625TIP3    H132366   6.823   4.705  10.229  2.6313 -0.1445 -1.4906
 3625TIP3    H232367   6.751   4.579  10.271 -1.3408  1.9180 -1.7073
 3626TIP3   OH232368   2.740   6.793  12.823  0.3449  0.7548  0.2246
 3626TIP3    H132369   2.803   6.853  12.862  2.1591  0.5838 -2.2034
 3626TIP3    H232370   2.779   6.707  12.831 -0.3067  0.4347  0.0657
 3627TIP3   OH232371   3.439   0.221   1.038  0.0540  0.3655 -0.5191
 3627TIP3    H132372   3.455   0.204   0.945  0.2086 -0.4314 -0.3576
 3627TIP3    H232373   3.483   0.148   1.083  1.3151  1.5544  0.2601
 3628TIP3   OH232374   5.068   4.269  15.250  0.6543 -0.2230 -0.1053
 3628TIP3    H132375   5.039   4.188  15.290 -0.7927 -0.8281 -2.2052
 3628TIP3    H232376   5.044   4.260  15.158  3.0230  1.4171 -0.9879
 3629TIP3   OH232377   0.284   3.749  14.065 -0.3064 -0.0982 -0.6746
 3629TIP3    H132378   0.267   3.723  13.974 -0.7663 -0.4945 -0.4809
 3629TIP3    H232379   0.351   3.687  14.095  1.0877  1.0607 -1.2373
 3630TIP3   OH232380   3.421   3.119  13.195 -0.0612 -0.1982 -0.0790
 3630TIP3    H132381   3.365   3.195  13.210  0.0355 -0.1597  0.0948
 3630TIP3    H232382   3.361   3.047  13.179 -0.1619 -0.1651  0.1473
 3631TIP3   OH232383   2.397   6.178   5.291 -0.3171  0.0016 -0.7046
 3631TIP3    H132384   2.414   6.223   5.373 -1.4615  0.7447 -0.8544
 3631TIP3    H232385   2.477   6.190   5.239  0.4211 -0.4980  0.2891
 3632TIP3   OH232386   4.017   6.456   1.970  0.1209  0.5881  0.1540
 3632TIP3    H132387   3.990   6.534   1.921  1.1012  0.2742 -0.9254
 3632TIP3    H232388   4.108   6.441   1.944 -0.7833 -2.4342 -1.7277
 3633TIP3   OH232389   0.263   0.964  13.103 -0.7750  0.1172  0.4993
 3633TIP3    H132390   0.295   1.037  13.157  0.3252  0.7526 -0.9381
 3633TIP3    H232391   0.174   0.988  13.079 -0.4656  0.9411  0.1490
 3634TIP3   OH232392   1.180   4.422  13.161  0.3209  0.4381  0.0874
 3634TIP3    H132393   1.169   4.343  13.108 -1.8409 -0.5038  1.7856
 3634TIP3    H232394   1.126   4.488  13.118  1.2013  0.6720 -0.6821
 3635TIP3   OH232395   4.265   3.963  17.152 -0.0679 -0.7344 -0.0416
 3635TIP3    H132396   4.232   4.012  17.077 -1.1073  0.3119  1.0490
 3635TIP3    H232397   4.202   3.981  17.222  1.6256 -0.4671  1.5089
 3636TIP3   OH232398   5.294   1.246   0.799  0.2133  0.2605  0.0053
 3636TIP3    H132399   5.269   1.207   0.715 -0.7171  0.8470  0.0025
 3636TIP3    H232400   5.389   1.255   0.793  0.2062 -0.0825 -0.8240
 3637TIP3   OH232401   5.400   3.107   3.967  0.4075  0.5343 -0.1340
 3637TIP3    H132402   5.311   3.134   3.945  0.1868 -0.7005 -0.8043
 3637TIP3    H232403   5.393   3.078   4.058  0.1144  0.3763 -0.2047
 3638TIP3   OH232404   1.945   0.209  11.943  0.3459 -0.1957 -0.1575
 3638TIP3    H132405   1.927   0.282  12.002  0.9371 -0.0368 -0.1687
 3638TIP3    H232406   1.881   0.218  11.873  0.9279  0.7933 -0.5856
 3639TIP3   OH232407   0.739   3.642   1.284  0.4550 -0.4760 -0.4035
 3639TIP3    H132408   0.807   3.705   1.262  1.0858 -1.5530 -1.6777
 3639TIP3    H232409   0.657   3.684   1.260  0.6477  0.8132  1.0851
 3640TIP3   OH232410   5.887   2.229   0.314 -0.4317  0.0891 -0.3893
 3640TIP3    H132411   5.891   2.272   0.399 -2.3622  0.3966 -0.4286
 3640TIP3    H232412   5.858   2.297   0.254 -0.5293 -0.4995 -1.0132
 3641TIP3   OH232413   4.159   4.308   3.464  0.1011  0.2843 -0.0316
 3641TIP3    H132414   4.175   4.237   3.526 -0.6170  0.8956  0.8643
 3641TIP3    H232415   4.156   4.264   3.378  0.0766 -0.7007  0.4591
 3642TIP3   OH232416   1.545   5.240  12.453 -0.1517 -0.9737  0.3526
 3642TIP3    H132417   1.451   5.228  12.445 -0.3774 -0.3007  1.6615
 3642TIP3    H232418   1.575   5.258  12.364 -1.8701  2.8522  0.3717
 3643TIP3   OH232419   1.375   6.553   5.813  0.1632  0.1592 -0.3283
 3643TIP3    H132420   1.441   6.560   5.744  0.3575 -2.4630 -0.5113
 3643TIP3    H232421   1.426   6.558   5.895  0.3386  0.0626 -0.4316
 3644TIP3   OH232422   2.341   4.724   3.752 -0.2379  0.2798  0.4339
 3644TIP3    H132423   2.423   4.744   3.708  0.7859 -0.5825  1.8659
 3644TIP3    H232424   2.290   4.804   3.746  0.2994  0.5402 -1.2953
 3645TIP3   OH232425   3.395   6.214   2.000 -0.6958 -0.4186  0.0198
 3645TIP3    H132426   3.301   6.203   1.986 -0.1833 -3.8528 -1.7762
 3645TIP3    H232427   3.413   6.162   2.078 -0.1654 -0.3597 -0.0617
 3646TIP3   OH232428   0.995   4.740  13.067  0.4422  0.4826 -0.8316
 3646TIP3    H132429   1.058   4.790  13.120  0.0531  1.0673 -0.9151
 3646TIP3    H232430   0.921   4.799  13.055  0.1790  0.0594 -1.3461
 3647TIP3   OH232431   6.135   0.230   6.017 -0.1460  0.2559  0.2995
 3647TIP3    H132432   6.049   0.259   6.049 -1.0856 -3.2482  1.4557
 3647TIP3    H232433   6.192   0.236   6.093 -0.0667  0.1598  0.2478
 3648TIP3   OH232434   5.980   5.905   0.239  0.1205  0.1145  0.6374
 3648TIP3    H132435   6.059   5.888   0.188  0.1112 -1.5607  1.1186
 3648TIP3    H232436   5.909   5.867   0.188  0.0111 -0.8804  1.5024
 3649TIP3   OH232437   1.629   6.621   4.905  0.1101 -0.1886 -0.2084
 3649TIP3    H132438   1.693   6.662   4.847  0.8336 -3.1270 -1.6909
 3649TIP3    H232439   1.681   6.562   4.960 -1.1689 -2.3458 -1.1748
 3650TIP3   OH232440   0.294   4.512   4.106 -0.1648  0.6257 -0.4494
 3650TIP3    H132441   0.369   4.455   4.091  1.1964  2.4971 -1.0709
 3650TIP3    H232442   0.237   4.497   4.030  0.3711  0.4036 -0.8097
 3651TIP3   OH232443   2.599   5.317  16.105  0.7754 -0.7597 -0.0826
 3651TIP3    H132444   2.544   5.247  16.069  1.0626 -2.1404  1.9736
 3651TIP3    H232445   2.562   5.398  16.069 -2.3156 -1.6464  0.7800
 3652TIP3   OH232446   4.853   2.213   0.084  0.3556 -0.2024 -0.1067
 3652TIP3    H132447   4.887   2.134   0.043  1.1774 -0.5572  1.2011
 3652TIP3    H232448   4.813   2.182   0.165  0.3789  0.6910  0.2539
 3653TIP3   OH232449   2.126   3.390   3.412  0.5331  0.4333  0.2990
 3653TIP3    H132450   2.145   3.333   3.337 -0.1217  3.1090 -2.0525
 3653TIP3    H232451   2.054   3.347   3.457 -0.6144 -0.1709 -1.9605
 3654TIP3   OH232452   6.529   3.174  13.854 -0.5323 -0.3738 -0.0245
 3654TIP3    H132453   6.473   3.226  13.911 -0.3670  1.5735 -1.5549
 3654TIP3    H232454   6.501   3.084  13.869 -1.6749  0.2255  1.7975
 3655TIP3   OH232455   1.501   5.774   4.203  0.0459 -0.8833 -0.3585
 3655TIP3    H132456   1.555   5.736   4.134 -0.4440 -0.0695 -1.2193
 3655TIP3    H232457   1.415   5.787   4.162 -0.3397 -0.6571  0.4961
 3656TIP3   OH232458   1.947   1.586   9.865  1.2058  0.3065 -0.2779
 3656TIP3    H132459   1.985   1.602   9.778  1.0225  1.0390 -0.2249
 3656TIP3    H232460   1.853   1.592   9.852  1.1672  0.1455 -0.0782
 3657TIP3   OH232461   5.960   4.266   2.383 -0.3098  0.3883 -0.7550
 3657TIP3    H132462   5.982   4.356   2.359  2.5070 -0.0360 -0.1852
 3657TIP3    H232463   5.968   4.217   2.300  2.6261  0.0471 -0.4097
 3658TIP3   OH232464   2.291   3.644   1.780 -0.4156  0.0887  0.3492
 3658TIP3    H132465   2.210   3.603   1.749  1.3739 -1.5869 -2.5151
 3658TIP3    H232466   2.342   3.572   1.816  0.2298  0.9705  1.2458
 3659TIP3   OH232467   3.983   2.404   2.165  0.4383 -0.1281 -0.3069
 3659TIP3    H132468   3.948   2.412   2.254  0.9487  0.9430 -0.1819
 3659TIP3    H232469   3.947   2.322   2.132 -1.5649  0.5402  0.0817
 3660TIP3   OH232470   6.336   0.656   5.708  0.7426  0.1943  0.6009
 3660TIP3    H132471   6.348   0.571   5.666  0.0871  0.1007  0.5976
 3660TIP3    H232472   6.404   0.711   5.669  0.3061  0.0402 -0.4121
 3661TIP3   OH232473   6.193   2.321   0.414 -0.0775  0.4884 -0.0448
 3661TIP3    H132474   6.124   2.298   0.352 -0.3274  1.2582 -0.0573
 3661TIP3    H232475   6.148   2.365   0.486  0.3726  0.8409  0.0301
 3662TIP3   OH232476   4.466   6.780  12.025  0.5053 -0.4012 -0.4805
 3662TIP3    H132477   4.538   6.800  11.965 -0.5891 -1.7432 -2.3349
 3662TIP3    H232478   4.420   6.864  12.036  0.7505 -0.1214 -1.4859
 3663TIP3   OH232479   0.576   5.567   1.095  0.4156 -0.3780 -0.1624
 3663TIP3    H132480   0.539   5.502   1.155  1.2360  0.1823  0.9826
 3663TIP3    H232481   0.621   5.514   1.029  1.3969 -0.9993  0.9667
 3664TIP3   OH232482   2.871   4.855  12.778 -0.4669  0.0380 -0.5383
 3664TIP3    H132483   2.893   4.817  12.693 -0.9982  0.1400 -0.7263
 3664TIP3    H232484   2.810   4.792  12.817 -1.5331  0.7917 -0.9507
 3665TIP3   OH232485   0.847   3.957  16.962  0.6504 -0.2237 -0.2972
 3665TIP3    H132486   0.768   4.006  16.983  0.6167  0.9223 -2.7218
 3665TIP3    H232487   0.904   3.970  17.038 -0.8075  0.3945  0.7405
 3666TIP3   OH232488   1.088   1.976   4.507 -0.0297  0.3920 -0.3201
 3666TIP3    H132489   1.029   2.037   4.551  0.0748  0.7875 -0.7224
 3666TIP3    H232490   1.176   2.011   4.523 -0.0317  0.9476 -1.4467
 3667TIP3   OH232491   2.850   2.782   3.652 -0.1042 -0.1896  0.1627
 3667TIP3    H132492   2.764   2.806   3.618 -1.0213  0.1013  2.4808
 3667TIP3    H232493   2.881   2.714   3.592 -0.3936  1.9838 -2.6613
 3668TIP3   OH232494   1.192   3.091  13.173 -0.1917  0.0531 -0.3944
 3668TIP3    H132495   1.199   3.177  13.130  0.3474  1.6969  2.6676
 3668TIP3    H232496   1.278   3.050  13.159  0.2571  0.9052 -0.2162
 3669TIP3   OH232497   1.599   5.206   4.364  0.4482 -0.5463 -0.1485
 3669TIP3    H132498   1.511   5.205   4.403 -0.2628 -1.3630 -1.6739
 3669TIP3    H232499   1.583   5.211   4.269  1.9649 -2.8014 -0.6061
 3670TIP3   OH232500   3.565   3.882   2.686  0.0344  0.2943  0.0303
 3670TIP3    H132501   3.524   3.946   2.628  1.2914 -0.2831 -1.5776
 3670TIP3    H232502   3.550   3.797   2.644  0.6952 -0.1849  0.7276
 3671TIP3   OH232503   2.736   1.789   2.709  0.0168 -0.3031  0.3686
 3671TIP3    H132504   2.648   1.755   2.723 -0.0267  0.1143  1.1807
 3671TIP3    H232505   2.751   1.781   2.615 -0.7903 -0.6103  0.2634
 3672TIP3   OH232506   6.387   5.238  10.642  0.0112  0.1190 -0.1716
 3672TIP3    H132507   6.368   5.285  10.561 -0.4065 -0.2147 -0.2683
 3672TIP3    H232508   6.303   5.233  10.687 -0.1510 -1.3496 -0.5933
 3673TIP3   OH232509   1.817   5.753  16.785 -0.3492 -0.2657  0.3040
 3673TIP3    H132510   1.740   5.716  16.829  0.7367  0.1959  2.8051
 3673TIP3    H232511   1.781   5.810  16.718 -2.1265 -2.0324 -0.3596
 3674TIP3   OH232512   1.273   5.897   1.080  0.2599 -0.0592  0.2589
 3674TIP3    H132513   1.236   5.905   0.992  1.4685 -1.1740 -0.3686
 3674TIP3    H232514   1.365   5.879   1.066  0.4039 -0.5967  1.7636
 3675TIP3   OH232515   2.151   0.980   0.560 -0.2233 -0.0327 -0.3449
 3675TIP3    H132516   2.126   1.072   0.565  0.1593  0.0524  0.1115
 3675TIP3    H232517   2.213   0.975   0.487 -1.0410 -0.1256 -1.0504
 3676TIP3   OH232518   4.430   2.413   2.885 -0.2444  0.0693  0.5382
 3676TIP3    H132519   4.441   2.383   2.975 -1.2735 -0.9431  0.3448
 3676TIP3    H232520   4.395   2.338   2.839  0.4618  0.5146 -0.7714
 3677TIP3   OH232521   4.217   1.723   0.344 -0.1091  0.3012  0.4716
 3677TIP3    H132522   4.297   1.671   0.336 -0.6138 -0.4367  0.0972
 3677TIP3    H232523   4.179   1.723   0.256 -0.7384  0.2739  0.7379
 3678TIP3   OH232524   2.887   4.036  15.040 -0.3307  0.4183  0.2940
 3678TIP3    H132525   2.845   3.978  14.976 -0.9717  0.0080  1.0615
 3678TIP3    H232526   2.870   4.124  15.008 -0.1654  0.2078 -0.3887
 3679TIP3   OH232527   0.724   3.306   0.647  0.3298  0.5415 -0.1779
 3679TIP3    H132528   0.655   3.244   0.623 -0.0516  1.0962 -0.5357
 3679TIP3    H232529   0.711   3.320   0.741  0.3980  0.1003 -0.1040
 3680TIP3   OH232530   1.877   4.729  15.046 -0.6201  0.1642 -0.2240
 3680TIP3    H132531   1.961   4.689  15.022  0.2230  1.8214 -0.1781
 3680TIP3    H232532   1.857   4.692  15.132  1.4776  1.6967  1.0445
 3681TIP3   OH232533   0.353   5.592   4.061  0.5155 -0.4904 -0.2170
 3681TIP3    H132534   0.321   5.607   3.972 -1.1903 -2.6375 -0.0564
 3681TIP3    H232535   0.387   5.502   4.060  3.9092  0.6071  0.4584
 3682TIP3   OH232536   4.485   1.316  15.242  0.7558 -0.9686  0.7142
 3682TIP3    H132537   4.434   1.396  15.255 -0.7712 -1.5366 -1.3295
 3682TIP3    H232538   4.548   1.339  15.173 -0.5810 -1.8215 -0.8672
 3683TIP3   OH232539   4.757   2.748   0.911  0.1017  0.8133  0.3746
 3683TIP3    H132540   4.684   2.690   0.934 -0.2273  1.6719  1.6109
 3683TIP3    H232541   4.797   2.770   0.995  0.2985  2.2554 -0.0639
 3684TIP3   OH232542   0.551   4.247  15.836  0.2665 -0.7655  0.0039
 3684TIP3    H132543   0.465   4.280  15.861  1.3279  1.7039  0.8060
 3684TIP3    H232544   0.546   4.231  15.742 -0.7027  0.7244 -0.2272
 3685TIP3   OH232545   2.425   1.490  15.815 -0.2538  0.8709  0.5926
 3685TIP3    H132546   2.360   1.446  15.870 -1.5054  0.2262 -1.2803
 3685TIP3    H232547   2.378   1.567  15.781 -0.5864 -0.2916 -1.8141
 3686TIP3   OH232548   3.276   2.488  16.615 -0.5314 -0.8084  0.3360
 3686TIP3    H132549   3.277   2.462  16.707 -1.4886  1.1443  0.9516
 3686TIP3    H232550   3.368   2.487  16.588  0.0148  0.5914  1.9591
 3687TIP3   OH232551   4.086   2.775  16.299  0.0628 -0.1997 -0.0408
 3687TIP3    H132552   4.030   2.784  16.221 -0.4599  4.1084  0.5393
 3687TIP3    H232553   4.024   2.765  16.371  0.3848 -1.0005  0.1352
 3688TIP3   OH232554   5.976   0.817  12.423  0.3592  0.1325  0.7204
 3688TIP3    H132555   6.050   0.770  12.462  0.6737  0.4933  0.5594
 3688TIP3    H232556   5.907   0.812  12.490 -0.2575 -2.1053  0.0207
 3689TIP3   OH232557   1.925   6.263   4.814 -0.9216  0.2184  0.5746
 3689TIP3    H132558   1.840   6.221   4.798 -0.6375 -0.2224  0.1845
 3689TIP3    H232559   1.932   6.330   4.745 -1.5670  1.2167  1.4617
 3690TIP3   OH232560   4.041   1.397   4.922  0.7492 -0.1614  0.3210
 3690TIP3    H132561   3.965   1.445   4.955  0.0974  0.7827 -2.2594
 3690TIP3    H232562   4.005   1.316   4.887  1.3010 -0.7965  1.1991
 3691TIP3   OH232563   6.232   3.517   6.011 -0.4363  0.2795 -0.3678
 3691TIP3    H132564   6.141   3.500   5.988 -0.6895  1.6699 -0.5060
 3691TIP3    H232565   6.226   3.577   6.086  0.3424  1.3013 -1.1039
 3692TIP3   OH232566   4.180   3.017  16.376 -0.1131 -0.0272  0.4708
 3692TIP3    H132567   4.143   2.932  16.349  1.3142 -0.5503  0.1018
 3692TIP3    H232568   4.269   3.017  16.341 -0.0430  1.5778  0.5957
 3693TIP3   OH232569   1.999   1.145   4.427  0.1507 -0.3846  0.0981
 3693TIP3    H132570   1.973   1.058   4.396  1.0202 -0.2469 -1.1011
 3693TIP3    H232571   1.945   1.160   4.504 -0.9153 -1.4668 -0.3998
 3694TIP3   OH232572   1.533   4.230   5.338  0.2647 -0.4847 -0.3709
 3694TIP3    H132573   1.509   4.321   5.358  0.0409 -0.5856 -0.1779
 3694TIP3    H232574   1.607   4.238   5.277  0.0120 -0.1743 -0.6378
 3695TIP3   OH232575   3.386   0.002  13.107 -0.0714 -0.3744 -0.3136
 3695TIP3    H132576   3.449  -0.045  13.160  0.1404  1.3721  1.0677
 3695TIP3    H232577   3.394  -0.038  13.020  0.4812 -2.4456  0.6156
 3696TIP3   OH232578   4.911   1.215   2.577 -0.8309 -0.0240 -0.0119
 3696TIP3    H132579   4.892   1.137   2.629  0.1150  0.3584  0.9588
 3696TIP3    H232580   4.900   1.288   2.639  0.8372  0.4055 -0.1845
 3697TIP3   OH232581   0.660   3.488  15.344 -0.2316 -0.0178  0.3663
 3697TIP3    H132582   0.645   3.409  15.395  1.9174 -0.8014 -0.1220
 3697TIP3    H232583   0.658   3.458  15.253  1.8476  0.2047  0.2113
 3698TIP3   OH232584   4.582   0.983  13.893 -0.4086 -0.6238 -0.0368
 3698TIP3    H132585   4.566   0.892  13.917  0.9566 -1.4172 -1.9405
 3698TIP3    H232586   4.494   1.022  13.890 -1.0224 -1.8574  0.7342
 3699TIP3   OH232587   1.976   6.016   4.162  0.1218 -0.0690 -0.2516
 3699TIP3    H132588   1.886   6.010   4.129  0.5536  0.0533 -1.5097
 3699TIP3    H232589   1.970   6.073   4.239 -0.9257 -0.3414 -0.1253
 3700TIP3   OH232590   5.996   2.173  13.825  0.8726 -0.3290  0.0912
 3700TIP3    H132591   6.003   2.110  13.896  0.4835 -1.2131 -0.6253
 3700TIP3    H232592   6.086   2.186  13.795  0.8029 -1.8899 -0.8713
 3701TIP3   OH232593   4.646   1.828  12.450  0.1825  0.0492  0.0112
 3701TIP3    H132594   4.607   1.914  12.464  0.3888  0.3210 -1.0165
 3701TIP3    H232595   4.719   1.825  12.511 -1.2237 -0.3425  1.7391
 3702TIP3   OH232596   5.618   2.646  15.956  0.0710  0.0647  0.8957
 3702TIP3    H132597   5.667   2.674  15.879  0.7978 -1.0976  0.9114
 3702TIP3    H232598   5.685   2.618  16.019 -0.5774 -1.2443  1.0431
 3703TIP3   OH232599   0.770   4.645  13.439 -0.5844 -0.5997  0.3124
 3703TIP3    H132600   0.709   4.680  13.374 -0.6545  1.6173  1.4968
 3703TIP3    H232601   0.738   4.678  13.523  1.4252 -0.5656  1.1207
 3704TIP3   OH232602   2.214   6.325   2.346 -0.2767  0.8178 -0.1957
 3704TIP3    H132603   2.182   6.361   2.429 -1.5144 -1.3951  0.3760
 3704TIP3    H232604   2.304   6.299   2.365  0.4433  2.8994 -0.4546
 3705TIP3   OH232605   1.340   2.703  14.823  0.3183  0.0450 -0.3094
 3705TIP3    H132606   1.410   2.693  14.759 -0.2839  1.1501 -1.1851
 3705TIP3    H232607   1.293   2.782  14.795  0.8743  1.4107  2.2883
 3706TIP3   OH232608   2.611   4.638   4.918  0.3399  0.0400 -0.1686
 3706TIP3    H132609   2.691   4.664   4.873 -0.2298 -0.2697 -1.4379
 3706TIP3    H232610   2.547   4.625   4.847 -0.2073 -1.9698  0.6081
 3707TIP3   OH232611   2.040   0.398  14.771  0.5821  0.1752  0.2109
 3707TIP3    H132612   2.046   0.464  14.702  1.6762 -0.0114  0.1137
 3707TIP3    H232613   2.123   0.404  14.818 -0.1305  0.2775  1.5132
 3708TIP3   OH232614   0.594   5.480   2.535 -0.6948 -0.2380 -0.4029
 3708TIP3    H132615   0.573   5.403   2.587 -1.7455  0.5102  0.3202
 3708TIP3    H232616   0.687   5.471   2.515 -0.3717 -0.7952  1.2031
 3709TIP3   OH232617   0.524   5.519   5.068  0.3956 -0.1809 -0.4185
 3709TIP3    H132618   0.528   5.468   5.149 -1.5365 -0.9305 -0.7521
 3709TIP3    H232619   0.571   5.600   5.089  1.2752 -0.9945  0.9450
 3710TIP3   OH232620   1.825   1.952  11.407  0.0807 -0.4740  0.2233
 3710TIP3    H132621   1.844   1.957  11.313  1.3067 -0.0105  0.4740
 3710TIP3    H232622   1.902   1.910  11.444  0.3097  0.7820  1.2171
 3711TIP3   OH232623   6.060   5.731  14.759 -0.2078  0.1192  0.4644
 3711TIP3    H132624   6.153   5.747  14.742 -0.1081 -0.4841  0.4317
 3711TIP3    H232625   6.049   5.750  14.852  0.2689 -1.2245  0.8190
 3712TIP3   OH232626   3.604   2.506   4.551 -0.3636 -0.0574  0.2357
 3712TIP3    H132627   3.640   2.548   4.473 -2.0920  1.5500  0.2400
 3712TIP3    H232628   3.653   2.544   4.624  1.4842 -1.8049 -0.0104
 3713TIP3   OH232629   5.884   0.827   1.719 -0.3422  0.7153  0.0064
 3713TIP3    H132630   5.907   0.755   1.778 -1.0126 -0.7854 -1.4697
 3713TIP3    H232631   5.789   0.822   1.711 -0.2694  0.8692 -1.1751
 3714TIP3   OH232632   3.698   0.484   3.881 -0.4332  0.7609 -0.9784
 3714TIP3    H132633   3.652   0.535   3.948  0.6465  1.0029 -0.4061
 3714TIP3    H232634   3.788   0.480   3.912 -0.2120 -0.3216 -1.7224
 3715TIP3   OH232635   5.201   2.455   2.490 -0.5117  0.5849  0.6395
 3715TIP3    H132636   5.202   2.448   2.586  0.8903  0.0596  0.6056
 3715TIP3    H232637   5.269   2.521   2.471  0.0314 -0.1576 -0.0385
 3716TIP3   OH232638   6.759   4.385  12.399 -0.2501 -0.0368 -0.6119
 3716TIP3    H132639   6.852   4.406  12.390 -0.4899  1.0239 -0.6857
 3716TIP3    H232640   6.721   4.408  12.314 -0.7002  0.1950 -0.3517
 3717TIP3   OH232641   5.345   4.178  12.701 -0.0614 -0.1190 -0.4099
 3717TIP3    H132642   5.267   4.234  12.703  0.0178  0.0902 -2.1413
 3717TIP3    H232643   5.316   4.096  12.742 -0.5676  0.6834  0.8961
 3718TIP3   OH232644   4.252   0.671  11.687 -0.1176 -0.5244 -0.0615
 3718TIP3    H132645   4.239   0.687  11.780  0.1826 -1.2630  0.1064
 3718TIP3    H232646   4.169   0.633  11.658 -0.8220  1.1829 -0.4549
 3719TIP3   OH232647   3.347   0.718   2.964 -0.3455 -0.2694  0.5693
 3719TIP3    H132648   3.372   0.782   3.030  0.0190  0.2333 -0.0502
 3719TIP3    H232649   3.257   0.742   2.941  0.1699  0.7461 -0.4833
 3720TIP3   OH232650   0.571   0.597   0.618  0.0380  0.6199 -0.0869
 3720TIP3    H132651   0.615   0.669   0.663  0.0713  1.6906 -1.7366
 3720TIP3    H232652   0.594   0.609   0.526 -0.9411 -0.8131 -0.5527
 3721TIP3   OH232653   0.697   2.416  14.007 -0.6312  0.1510 -0.2852
 3721TIP3    H132654   0.715   2.369  14.089  0.7418  1.0386 -0.0495
 3721TIP3    H232655   0.652   2.496  14.034 -1.1616 -0.0673 -0.5064
 3722TIP3   OH232656   1.963   4.822   1.211  0.1122  0.1569 -0.1254
 3722TIP3    H132657   1.937   4.824   1.303  0.6206  0.2142  0.0163
 3722TIP3    H232658   1.952   4.730   1.185  2.6458 -0.4918  0.7721
 3723TIP3   OH232659   1.026   4.227   3.774  0.0789  0.2925  0.0589
 3723TIP3    H132660   1.040   4.167   3.847 -0.2729  0.0782 -0.0437
 3723TIP3    H232661   0.955   4.285   3.803 -1.6361 -1.1988 -0.9178
 3724TIP3   OH232662   0.265   2.539  10.686 -0.0687 -0.0427  0.2199
 3724TIP3    H132663   0.306   2.626  10.690  1.2581 -0.5885  4.4830
 3724TIP3    H232664   0.176   2.553  10.718  0.0502 -0.1592  0.6151
 3725TIP3   OH232665   1.891   1.137  13.088  0.2497 -0.2403  0.3373
 3725TIP3    H132666   1.936   1.130  13.004 -0.8539 -2.8607 -0.1368
 3725TIP3    H232667   1.886   1.231  13.105  1.2144  0.3269 -2.1366
 3726TIP3   OH232668   2.680   6.555  11.779 -1.0102  0.2194 -0.6828
 3726TIP3    H132669   2.617   6.615  11.817  0.0225  0.2818  1.0176
 3726TIP3    H232670   2.720   6.511  11.854  0.8816  0.1053 -1.6994
 3727TIP3   OH232671   0.755   2.039   0.466  0.3698 -0.0143 -0.0976
 3727TIP3    H132672   0.685   1.974   0.460  1.2840 -0.9599 -1.1003
 3727TIP3    H232673   0.710   2.123   0.472 -0.8409 -0.6421 -0.1022
 3728TIP3   OH232674   3.363   3.962  16.975  0.2639 -0.2514 -0.0760
 3728TIP3    H132675   3.316   3.907  17.038  0.2582  0.8672  0.9218
 3728TIP3    H232676   3.326   3.937  16.890 -0.9150 -0.6174  0.5152
 3729TIP3   OH232677   3.965   1.270   1.253 -0.1632 -0.2203  0.7998
 3729TIP3    H132678   3.889   1.288   1.199  1.0498  1.8147 -0.3695
 3729TIP3    H232679   3.960   1.334   1.325  0.3669 -0.1248  0.7593
 3730TIP3   OH232680   2.992   2.289  10.193 -0.5741 -0.0751 -0.3051
 3730TIP3    H132681   2.997   2.302  10.288 -0.4862  0.5321 -0.3882
 3730TIP3    H232682   2.923   2.348  10.164  0.0584  0.4535 -0.7439
 3731TIP3   OH232683   3.252   5.186   0.793  0.5723  0.3647  0.7762
 3731TIP3    H132684   3.314   5.245   0.836  1.0997  3.4862 -3.6018
 3731TIP3    H232685   3.306   5.117   0.755  1.5041  2.4093 -1.9812
 3732TIP3   OH232686   4.683   0.003  11.865 -0.7354 -0.2033 -0.3973
 3732TIP3    H132687   4.658   0.076  11.809 -1.1525 -1.1504 -1.4925
 3732TIP3    H232688   4.749  -0.045  11.815  1.1254  0.5768  1.1966
 3733TIP3   OH232689   4.962   3.408  16.273  0.1204  0.2890  0.3982
 3733TIP3    H132690   5.031   3.475  16.279 -0.2518  0.9400 -1.6613
 3733TIP3    H232691   4.883   3.453  16.302  0.1689  0.2318  0.6183
 3734TIP3   OH232692   2.511   4.351   4.052  0.3454 -0.2294  0.0433
 3734TIP3    H132693   2.568   4.295   4.105 -1.8327 -2.3384  0.3527
 3734TIP3    H232694   2.422   4.331   4.083 -0.8159  0.5415 -2.4685
 3735TIP3   OH232695   2.188   5.844  11.359  0.3027 -0.0620 -0.6520
 3735TIP3    H132696   2.206   5.887  11.443  0.1346 -1.1725 -0.0217
 3735TIP3    H232697   2.273   5.842  11.315  0.2755  1.0679 -0.7776
 3736TIP3   OH232698   0.832   4.465  10.926 -0.2454  0.0858 -0.4744
 3736TIP3    H132699   0.892   4.511  10.867 -1.5648  0.9861 -1.1512
 3736TIP3    H232700   0.864   4.374  10.926  0.9820  0.4937 -0.9670
 3737TIP3   OH232701   4.682   1.576  15.822 -0.2990  0.0099  0.7935
 3737TIP3    H132702   4.612   1.522  15.784  0.3388  0.6439 -1.4317
 3737TIP3    H232703   4.666   1.663  15.787  1.8602  0.0721 -0.1424
 3738TIP3   OH232704   4.789   6.354   1.689 -0.0296 -0.1423  0.4290
 3738TIP3    H132705   4.703   6.396   1.695  0.4522  0.9770 -0.1646
 3738TIP3    H232706   4.776   6.278   1.633 -0.1891  1.3337 -1.6418
 3739TIP3   OH232707   5.389   0.934   3.544 -0.6308 -0.5369  0.0572
 3739TIP3    H132708   5.465   0.988   3.566 -1.5923  0.5192  0.8808
 3739TIP3    H232709   5.419   0.844   3.559  1.0529 -0.2945 -1.5255
 3740TIP3   OH232710   5.429   4.346   2.778  0.1633  0.0886 -0.0719
 3740TIP3    H132711   5.410   4.439   2.789 -2.7623 -0.5662  1.4291
 3740TIP3    H232712   5.353   4.311   2.730  1.2017 -1.5127 -0.6324
 3741TIP3   OH232713   6.363   1.994   3.024 -0.2612 -0.0816  0.3124
 3741TIP3    H132714   6.385   1.905   2.995  1.7601  0.1495  0.9720
 3741TIP3    H232715   6.373   2.047   2.946 -1.5400 -0.4112 -0.1013
 3742TIP3   OH232716   1.837   4.282   3.697 -0.2701  0.3097  0.1163
 3742TIP3    H132717   1.805   4.370   3.673  2.8510  1.2927 -0.9246
 3742TIP3    H232718   1.782   4.223   3.646 -2.2584  1.6239  0.5999
 3743TIP3   OH232719   1.418   1.857   2.796  0.2360  0.0379 -0.1364
 3743TIP3    H132720   1.484   1.896   2.739  0.6531  0.4880  0.6372
 3743TIP3    H232721   1.339   1.853   2.743 -0.3379  3.5157  0.2121
 3744TIP3   OH232722   2.281   5.356   0.424 -0.4869  0.0703  0.4242
 3744TIP3    H132723   2.328   5.290   0.476 -0.7517 -0.2744  0.2320
 3744TIP3    H232724   2.292   5.437   0.474  3.4209  0.8814 -1.3852
 3745TIP3   OH232725   1.930   2.571  10.794  0.2801  0.6757  0.0028
 3745TIP3    H132726   1.875   2.598  10.868  0.4113  0.0782  0.3311
 3745TIP3    H232727   1.949   2.479  10.812  0.2539  0.5069 -0.8204
 3746TIP3   OH232728   4.403   5.675   2.465  0.2069 -0.2006 -0.0760
 3746TIP3    H132729   4.399   5.642   2.375  0.0192  0.0046 -0.1415
 3746TIP3    H232730   4.331   5.737   2.472 -0.2065 -0.7323  0.4305
 3747TIP3   OH232731   5.611   5.131  14.251 -0.2418  0.0462 -0.0808
 3747TIP3    H132732   5.655   5.212  14.224  0.0109 -0.1945 -0.3958
 3747TIP3    H232733   5.526   5.160  14.285  0.1373  0.5181  0.4984
 3748TIP3   OH232734   2.816   5.597  12.838  0.0546 -0.3278 -0.3046
 3748TIP3    H132735   2.879   5.574  12.770  0.4362 -1.0802  0.2922
 3748TIP3    H232736   2.859   5.668  12.887 -1.1904  1.9117 -2.2442
 3749TIP3   OH232737   0.414   0.402   3.630  0.0730  0.3204  0.5377
 3749TIP3    H132738   0.509   0.402   3.642  0.1372 -1.8563  0.4398
 3749TIP3    H232739   0.378   0.404   3.718  0.2411  0.1957  0.6105
 3750TIP3   OH232740   3.175   0.388  14.864  0.2743 -0.1104 -0.4924
 3750TIP3    H132741   3.139   0.308  14.826  0.4390 -0.3124 -0.2258
 3750TIP3    H232742   3.269   0.383  14.845  0.1158  0.6416 -1.6047
 3751TIP3   OH232743   5.392   2.832   6.206 -0.1877  0.7930  0.2916
 3751TIP3    H132744   5.312   2.870   6.243 -0.5746 -0.2018  0.5126
 3751TIP3    H232745   5.364   2.791   6.125  0.2138  0.9359  0.0797
 3752TIP3   OH232746   2.801   5.335  11.923 -0.1748 -0.0952 -0.1802
 3752TIP3    H132747   2.820   5.346  11.829 -1.9106 -0.6668 -0.6418
 3752TIP3    H232748   2.879   5.292  11.958  0.2894 -0.3668 -1.4735
 3753TIP3   OH232749   4.726   0.913   5.429 -0.1036  0.2248 -0.0038
 3753TIP3    H132750   4.645   0.962   5.415 -1.1938 -1.8271 -1.2893
 3753TIP3    H232751   4.718   0.880   5.519 -0.4406  0.4823  0.0648
 3754TIP3   OH232752   0.608   2.309   5.338 -0.7137  0.9717  0.5384
 3754TIP3    H132753   0.554   2.320   5.259 -0.4567  0.3047  0.2622
 3754TIP3    H232754   0.608   2.215   5.354  0.1220  0.9911  0.7074
 3755TIP3   OH232755   1.379   6.676  12.802  0.0314 -0.1890 -0.4654
 3755TIP3    H132756   1.429   6.657  12.723 -0.0780 -2.9123  0.0279
 3755TIP3    H232757   1.439   6.728  12.856  0.7645  0.1560 -1.5716
 3756TIP3   OH232758   1.208   4.963  14.586 -0.2711  0.0172  0.1793
 3756TIP3    H132759   1.178   4.923  14.504 -2.1481 -2.4329  1.8968
 3756TIP3    H232760   1.152   5.040  14.597  0.4498  0.7593 -1.1021
 3757TIP3   OH232761   0.239   2.272  14.739 -0.2192 -0.0324  0.6401
 3757TIP3    H132762   0.194   2.219  14.673 -1.3756  1.7714 -0.1110
 3757TIP3    H232763   0.283   2.340  14.689 -1.5274  1.6816  1.6897
 3758TIP3   OH232764   0.618   5.123  11.899 -0.3783  0.1884 -0.2924
 3758TIP3    H132765   0.673   5.168  11.964 -2.0863  2.5120 -0.3484
 3758TIP3    H232766   0.677   5.109  11.825  0.7824  0.3188  0.5598
 3759TIP3   OH232767   5.829   5.618   3.012  0.4148 -0.3643  0.5625
 3759TIP3    H132768   5.904   5.631   3.070 -0.0072  0.9893  0.8328
 3759TIP3    H232769   5.789   5.705   3.004 -0.1499 -0.7342 -0.9155
 3760TIP3   OH232770   0.303   1.875   0.191  0.4682  0.3011  0.0358
 3760TIP3    H132771   0.367   1.827   0.139 -0.4902  0.8242 -1.6924
 3760TIP3    H232772   0.240   1.909   0.127 -1.2219  0.2939  1.5982
 3761TIP3   OH232773   0.697   1.065  14.879 -0.4125 -0.1317  0.4578
 3761TIP3    H132774   0.602   1.071  14.874 -0.3651  0.8661  0.5303
 3761TIP3    H232775   0.728   1.154  14.859  0.5952 -0.9078 -1.9064
 3762TIP3   OH232776   2.183   3.946  13.158 -0.4754 -0.3453 -0.2204
 3762TIP3    H132777   2.141   3.891  13.224 -0.6322  0.3762  0.2896
 3762TIP3    H232778   2.277   3.930  13.170 -0.4404  0.5961  0.9234
 3763TIP3   OH232779   3.530   5.880  14.588 -0.3534  0.1939  0.1892
 3763TIP3    H132780   3.598   5.831  14.634  0.1623  1.3993  0.7511
 3763TIP3    H232781   3.526   5.840  14.502  2.1032  0.9545 -0.3676
 3764TIP3   OH232782   1.246   2.641   0.509  0.5383  0.2440  0.6152
 3764TIP3    H132783   1.159   2.670   0.481  0.4384 -1.2153 -0.7556
 3764TIP3    H232784   1.229   2.572   0.574  0.5621 -1.5342 -1.1858
 3765TIP3   OH232785   2.147   1.889  14.827  0.4374  0.1834  0.2815
 3765TIP3    H132786   2.221   1.924  14.778 -0.1400  0.6845 -0.2667
 3765TIP3    H232787   2.117   1.963  14.880 -1.8311  1.1433 -2.1191
 3766TIP3   OH232788   0.645   0.258   4.497 -0.4959  0.1064  0.5946
 3766TIP3    H132789   0.729   0.303   4.486 -0.3282 -0.4633 -0.7590
 3766TIP3    H232790   0.666   0.183   4.554  0.4732 -1.2771 -1.4288
 3767TIP3   OH232791   5.799   4.937   0.155 -0.5978 -0.7377  0.1101
 3767TIP3    H132792   5.871   4.950   0.217  0.0798  0.7686 -0.9390
 3767TIP3    H232793   5.731   4.998   0.184  0.0807  0.6635 -1.0986
 3768TIP3   OH232794   3.359   6.706  12.868  0.2087  0.0663 -0.1230
 3768TIP3    H132795   3.305   6.676  12.794  0.7567 -1.7071  0.1373
 3768TIP3    H232796   3.448   6.708  12.834  0.2024  1.4900 -0.1200
 3769TIP3   OH232797   0.638   0.610   6.099 -0.2063  0.1535  0.0304
 3769TIP3    H132798   0.637   0.555   6.021  0.2840  1.1536 -0.7155
 3769TIP3    H232799   0.711   0.577   6.151  1.3287  1.2259 -1.3094
 3770TIP3   OH232800   0.871   5.570   3.924  0.0874  0.1258 -0.4133
 3770TIP3    H132801   0.888   5.596   3.833 -2.2027  0.4065 -0.8411
 3770TIP3    H232802   0.954   5.535   3.955  0.9959  0.1936 -2.5553
 3771TIP3   OH232803   0.147   0.555  12.789  0.0800  0.3767 -0.1183
 3771TIP3    H132804   0.173   0.627  12.847  1.5336  0.3222 -0.6468
 3771TIP3    H232805   0.146   0.478  12.846  1.8142  0.2632 -0.1686
 3772TIP3   OH232806   3.561   3.924  16.035 -0.5533 -0.3770 -0.0772
 3772TIP3    H132807   3.574   4.010  16.076 -0.7430 -1.1543  1.7105
 3772TIP3    H232808   3.649   3.897  16.009 -0.3679 -0.0342  0.1784
 3773TIP3   OH232809   3.570   4.766   0.685 -0.4668 -0.3019  0.4995
 3773TIP3    H132810   3.644   4.814   0.721  0.1437 -0.9110  0.0811
 3773TIP3    H232811   3.554   4.806   0.600 -0.7533 -0.0422  0.6718
 3774TIP3   OH232812   0.694   5.834  15.879  0.0663 -0.1711 -0.2993
 3774TIP3    H132813   0.689   5.774  15.805 -2.5218  1.0543 -1.2733
 3774TIP3    H232814   0.687   5.921  15.839 -0.1187  0.5871  1.3012
 3775TIP3   OH232815   4.693   4.083   2.549 -0.4699  0.1669  0.3006
 3775TIP3    H132816   4.779   4.045   2.533 -0.0876  1.3755 -0.5904
 3775TIP3    H232817   4.636   4.043   2.483 -0.8111 -1.2371  1.3877
 3776TIP3   OH232818   5.603   4.150  16.474 -0.0246 -0.2225  0.2501
 3776TIP3    H132819   5.577   4.144  16.382 -0.6088  0.9987  0.3219
 3776TIP3    H232820   5.695   4.176  16.472 -0.2382  0.5341  0.0027
 3777TIP3   OH232821   2.435   2.430  11.991  0.1659  0.0244 -0.2227
 3777TIP3    H132822   2.398   2.494  11.930  0.9689  0.5774 -0.1345
 3777TIP3    H232823   2.363   2.411  12.051  0.8003  3.4052  1.8564
 3778TIP3   OH232824   4.341   6.103   2.933 -0.9057  0.2988 -0.1892
 3778TIP3    H132825   4.299   6.109   2.847  1.3493 -2.3970 -1.6412
 3778TIP3    H232826   4.420   6.157   2.925  0.8260 -2.1899 -0.9441
 3779TIP3   OH232827   1.573   3.747   0.880  0.5214 -0.0115  0.6559
 3779TIP3    H132828   1.504   3.696   0.923 -0.5274 -0.1848 -1.1221
 3779TIP3    H232829   1.601   3.692   0.807 -0.4458  1.7743 -1.1498
 3780TIP3   OH232830   0.737   3.465   3.271  0.2334 -0.0809  0.0812
 3780TIP3    H132831   0.754   3.473   3.177  0.4216  3.4053  0.2705
 3780TIP3    H232832   0.808   3.409   3.304 -1.0923 -3.3145 -2.0249
 3781TIP3   OH232833   3.862   5.296   0.512 -0.6174  0.0822 -0.1032
 3781TIP3    H132834   3.808   5.367   0.544  0.4845  0.3833  1.1659
 3781TIP3    H232835   3.942   5.339   0.479 -0.1114 -0.5203  0.3074
 3782TIP3   OH232836   2.661   6.706   0.228 -0.4235  0.9868 -0.6367
 3782TIP3    H132837   2.659   6.610   0.229  0.7382  0.9543  0.1729
 3782TIP3    H232838   2.570   6.732   0.213 -1.1846 -0.2228  1.5458
 3783TIP3   OH232839   1.463   2.178  14.608 -0.0488  0.1324  0.0754
 3783TIP3    H132840   1.556   2.154  14.612 -0.1940 -0.8222 -1.5058
 3783TIP3    H232841   1.463   2.271  14.582  0.4616 -0.0298 -0.5203
 3784TIP3   OH232842   3.122   4.845  16.479  0.2378 -0.4620 -0.1425
 3784TIP3    H132843   3.109   4.937  16.501  0.7915 -0.1348 -1.1067
 3784TIP3    H232844   3.034   4.810  16.465  0.0752  0.9022 -3.4834
 3785TIP3   OH232845   1.858   3.858  15.795 -0.0420 -0.2086 -0.7057
 3785TIP3    H132846   1.898   3.919  15.733 -1.9841  1.2914 -0.5398
 3785TIP3    H232847   1.860   3.903  15.879 -2.4917  0.1535 -0.7863
 3786TIP3   OH232848   3.860   6.433   3.106 -0.8063 -0.7564  0.3374
 3786TIP3    H132849   3.835   6.516   3.065 -2.6543 -1.1394  0.6100
 3786TIP3    H232850   3.779   6.399   3.142  0.3600 -1.4855  2.4597
 3787TIP3   OH232851   0.453   0.239  11.634 -0.4527  0.1308  0.5355
 3787TIP3    H132852   0.360   0.248  11.613 -0.4290 -1.2887 -0.2674
 3787TIP3    H232853   0.465   0.146  11.654  0.6329  0.4543  1.5305
 3788TIP3   OH232854   3.204   0.611  12.688  0.5147 -0.4940  0.1106
 3788TIP3    H132855   3.277   0.644  12.635 -0.2518  1.0606 -0.0279
 3788TIP3    H232856   3.194   0.674  12.759 -2.2399  0.7731 -1.2453
 3789TIP3   OH232857   6.121   1.638   0.434  0.1948  0.5338 -0.1709
 3789TIP3    H132858   6.090   1.643   0.344 -0.2216 -1.6392 -0.2123
 3789TIP3    H232859   6.111   1.727   0.468  0.8838  1.5352 -2.4076
 3790TIP3   OH232860   4.964   2.455  15.273 -0.3916 -0.5212  0.0465
 3790TIP3    H132861   5.032   2.407  15.225 -0.5047 -0.3759 -0.2580
 3790TIP3    H232862   4.914   2.499  15.205  0.3131  0.8357  0.3819
 3791TIP3   OH232863   6.537   2.109   4.135  0.4964  0.1408  0.2874
 3791TIP3    H132864   6.550   2.190   4.086  3.7187  0.8062  1.9663
 3791TIP3    H232865   6.457   2.123   4.185  1.4028  2.7145  1.1798
 3792TIP3   OH232866   0.941   0.551   0.631 -0.1167 -0.5517 -0.5856
 3792TIP3    H132867   0.859   0.580   0.591 -0.2810 -0.9150 -0.5118
 3792TIP3    H232868   0.915   0.481   0.691  0.4235 -1.7752 -1.7316
 3793TIP3   OH232869   5.457   2.900   2.077 -0.7018 -0.0578  0.0909
 3793TIP3    H132870   5.530   2.897   2.139 -1.8748 -1.6869  1.4565
 3793TIP3    H232871   5.388   2.948   2.122 -1.4844 -1.0473 -0.0116
 3794TIP3   OH232872   1.215   2.127  14.716 -1.0924  0.7042 -0.5117
 3794TIP3    H132873   1.227   2.114  14.811 -0.6374 -1.3785 -0.8027
 3794TIP3    H232874   1.304   2.121  14.681 -1.3426  0.7425 -1.1501
 3795TIP3   OH232875   0.256   4.531  16.209  0.4399 -0.1153 -0.2131
 3795TIP3    H132876   0.284   4.619  16.233 -0.4675 -0.0003  0.4524
 3795TIP3    H232877   0.208   4.542  16.127 -2.5414  0.5433  1.4860
 3796TIP3   OH232878   4.324   0.692   5.800 -0.2993 -0.5542 -0.6051
 3796TIP3    H132879   4.328   0.783   5.769  1.6364 -0.5645 -0.5263
 3796TIP3    H232880   4.355   0.696   5.890 -2.6223 -0.9980  0.2707
 3797TIP3   OH232881   1.244   5.941  11.807 -0.0147 -0.0326 -0.1777
 3797TIP3    H132882   1.199   6.018  11.773  0.0133 -0.4170 -1.1055
 3797TIP3    H232883   1.332   5.972  11.827 -0.3747  0.4759  0.6801
 3798TIP3   OH232884   5.245   0.598  13.411  0.2118 -1.0318  0.4127
 3798TIP3    H132885   5.270   0.665  13.474 -0.8081 -0.7154  0.4939
 3798TIP3    H232886   5.306   0.609  13.339  1.4474 -1.4482  1.3542
 3799TIP3   OH232887   0.539   3.640  14.919  0.1057  0.7618 -0.0896
 3799TIP3    H132888   0.541   3.649  14.824  1.3107  1.2797 -0.0371
 3799TIP3    H232889   0.602   3.569  14.938 -2.1519 -1.3077  0.1675
 3800TIP3   OH232890   5.254   4.427  11.418  0.0864 -0.0940 -0.8626
 3800TIP3    H132891   5.321   4.399  11.481  0.3521  0.3352 -0.9484
 3800TIP3    H232892   5.172   4.391  11.452  0.1920  0.3182 -0.1402
 3801TIP3   OH232893   5.993   6.769  10.575  0.2503  0.2158  0.1403
 3801TIP3    H132894   5.930   6.737  10.510  0.6227  0.5516 -0.3933
 3801TIP3    H232895   6.067   6.800  10.523 -0.2276  2.2663  0.5996
 3802TIP3   OH232896   4.616   4.845   3.898 -0.0065 -0.1515 -0.5185
 3802TIP3    H132897   4.668   4.899   3.957  0.9802 -0.3027 -1.2246
 3802TIP3    H232898   4.596   4.766   3.949 -0.1283  0.1989 -0.0157
 3803TIP3   OH232899   5.857   3.665   5.558  0.9116  0.4992  0.2627
 3803TIP3    H132900   5.884   3.610   5.632 -2.9185 -0.8977  0.8587
 3803TIP3    H232901   5.825   3.745   5.599  0.0300  0.2690  0.0415
 3804TIP3   OH232902   5.029   3.389  13.945 -0.0681 -0.5406  0.0439
 3804TIP3    H132903   4.963   3.393  13.876  0.2733 -3.1370 -0.5523
 3804TIP3    H232904   5.112   3.406  13.899 -0.1316  1.1944  0.5106
 3805TIP3   OH232905   3.475   2.609  13.882 -0.0804  0.6882  0.5293
 3805TIP3    H132906   3.480   2.698  13.916  1.3952  1.0413 -0.5084
 3805TIP3    H232907   3.519   2.556  13.949  2.5513  1.3382 -0.5640
 3806TIP3   OH232908   3.769   2.792  13.713  0.8273  0.5100 -0.0084
 3806TIP3    H132909   3.757   2.705  13.752 -3.0982  0.7123 -0.3166
 3806TIP3    H232910   3.837   2.779  13.647  2.1617 -1.6602  1.6175
 3807TIP3   OH232911   2.846   0.478  11.641  0.2747  0.1185  0.1623
 3807TIP3    H132912   2.935   0.504  11.617 -0.4761  2.1187 -0.6170
 3807TIP3    H232913   2.825   0.405  11.583  1.6916 -0.9874  0.9688
 3808TIP3   OH232914   5.001   2.072  17.031  0.2125  1.0773  0.3660
 3808TIP3    H132915   4.929   2.029  16.985  0.9526  1.3165 -1.1078
 3808TIP3    H232916   5.080   2.040  16.987  1.0831  0.2478  2.4186
 3809TIP3   OH232917   3.922   3.278   4.398  0.5619  0.2490  0.6450
 3809TIP3    H132918   3.995   3.234   4.441  0.1390 -0.3206  0.7942
 3809TIP3    H232919   3.844   3.231   4.428  0.2630 -0.3027 -0.8933
 3810TIP3   OH232920   3.944   3.374   2.076  0.6704  0.1723 -0.5732
 3810TIP3    H132921   3.905   3.352   1.991 -0.2994  0.1224 -0.1325
 3810TIP3    H232922   3.904   3.458   2.099  0.9038  0.1709 -0.1544
 3811TIP3   OH232923   2.528   4.346  11.020  0.2615  0.3460  0.4617
 3811TIP3    H132924   2.552   4.423  11.072  1.8949  0.3977 -0.3174
 3811TIP3    H232925   2.524   4.378  10.930 -0.1867 -0.2490  0.2629
 3812TIP3   OH232926   0.187   1.407   2.564  0.4501  0.2113  0.3882
 3812TIP3    H132927   0.282   1.398   2.558  0.3685  0.0988 -0.9230
 3812TIP3    H232928   0.170   1.499   2.544  0.2094 -0.0329 -0.5931
 3813TIP3   OH232929   3.454   6.638   5.072  0.2399  0.1318  0.8568
 3813TIP3    H132930   3.363   6.630   5.098  0.4542  0.2237  1.6669
 3813TIP3    H232931   3.468   6.732   5.062  0.2481  0.1192  0.7478
 3814TIP3   OH232932   0.091   3.306   5.823  0.1899 -0.3974 -0.1173
 3814TIP3    H132933   0.154   3.257   5.876  0.5690  0.0416 -0.1573
 3814TIP3    H232934   0.024   3.334   5.886  0.1897 -0.6024 -0.0236
 3815TIP3   OH232935   4.287   6.223  16.556 -0.3329  0.4065 -0.3996
 3815TIP3    H132936   4.202   6.178  16.556  0.7963 -1.9056 -1.4648
 3815TIP3    H232937   4.270   6.307  16.515 -2.1414  0.0731 -0.4246
 3816TIP3   OH232938   5.478   3.331   3.335 -0.1467  0.1794  0.2558
 3816TIP3    H132939   5.484   3.251   3.387 -0.2636 -0.6342 -0.9573
 3816TIP3    H232940   5.565   3.342   3.298 -0.4553 -0.0812 -0.5704
 3817TIP3   OH232941   1.399   4.051  10.793  0.7803  0.2792 -0.0188
 3817TIP3    H132942   1.415   4.127  10.738 -1.9936 -1.3003 -3.5008
 3817TIP3    H232943   1.411   3.976  10.734 -0.5980 -1.7181  2.0442
 3818TIP3   OH232944   2.392   6.053  15.594 -0.2389 -0.4017  0.0292
 3818TIP3    H132945   2.343   6.135  15.604  1.0647  0.2584  1.3873
 3818TIP3    H232946   2.420   6.054  15.502  0.5313  1.1591  0.2426
 3819TIP3   OH232947   6.178   0.977  16.738 -0.8981 -0.4482  0.1716
 3819TIP3    H132948   6.193   0.951  16.647 -2.8059  1.8257 -0.9127
 3819TIP3    H232949   6.115   1.049  16.732 -1.6116 -0.6598  3.3596
 3820TIP3   OH232950   1.120   5.573   1.665 -0.1171 -0.1702 -0.2906
 3820TIP3    H132951   1.050   5.565   1.730 -0.3682  0.3017 -0.4951
 3820TIP3    H232952   1.141   5.666   1.665  1.7706 -0.5287  1.0682
 3821TIP3   OH232953   2.002   6.291   0.753 -0.0185  0.3891  0.2125
 3821TIP3    H132954   2.011   6.200   0.780 -0.6110  0.4553  0.6470
 3821TIP3    H232955   1.975   6.337   0.832  2.9541  1.4487  0.7380
 3822TIP3   OH232956   2.765   2.482  12.946 -0.4941  0.5015  0.3504
 3822TIP3    H132957   2.688   2.466  12.892 -0.6147  1.1431  0.3226
 3822TIP3    H232958   2.812   2.553  12.901 -0.4374  0.8353  0.9221
 3823TIP3   OH232959   1.022   2.945  13.842 -0.1469  0.3659 -0.2000
 3823TIP3    H132960   0.985   2.884  13.906  1.8767 -0.8025 -0.0437
 3823TIP3    H232961   1.021   2.897  13.759  1.5056  0.0420 -0.0660
 3824TIP3   OH232962   3.422   0.925   1.570 -0.3101  0.4001 -0.3163
 3824TIP3    H132963   3.410   1.018   1.553  1.5369  0.7359 -0.0562
 3824TIP3    H232964   3.396   0.913   1.661 -1.8643  0.3547 -0.7409
 3825TIP3   OH232965   1.539   4.140  15.798  0.1321 -0.3275 -0.7361
 3825TIP3    H132966   1.622   4.183  15.779 -1.4967  2.3750 -2.5118
 3825TIP3    H232967   1.533   4.070  15.734  0.7316 -0.0802 -1.0735
 3826TIP3   OH232968   4.215   5.585   0.853 -0.0236 -0.0410 -0.1580
 3826TIP3    H132969   4.192   5.577   0.945 -0.2672 -1.2305 -0.3022
 3826TIP3    H232970   4.213   5.679   0.835 -0.8637  0.1435  0.8266
 3827TIP3   OH232971   0.868   1.855   1.249  0.1939  0.1508  0.6267
 3827TIP3    H132972   0.795   1.798   1.225 -0.3507  0.8449  0.5910
 3827TIP3    H232973   0.846   1.940   1.211  0.9453  0.4125  0.7539
 3828TIP3   OH232974   4.213   1.688  14.135 -0.0839  0.4786  0.6422
 3828TIP3    H132975   4.144   1.714  14.074  0.2809  0.8276  0.3704
 3828TIP3    H232976   4.292   1.683  14.081 -0.2560 -1.9979  0.5040
 3829TIP3   OH232977   1.602   1.883   4.527  0.2366  0.1278 -0.0644
 3829TIP3    H132978   1.530   1.932   4.568  0.1300 -0.1510  0.0807
 3829TIP3    H232979   1.602   1.798   4.571  1.6720  0.6626  1.0739
 3830TIP3   OH232980   3.877   4.760  12.112  0.2210 -0.6955 -0.1218
 3830TIP3    H132981   3.908   4.761  12.202 -0.8126  3.6598  0.3921
 3830TIP3    H232982   3.956   4.744  12.060  1.4544 -0.0311  1.4691
 3831TIP3   OH232983   0.656   5.688  12.397 -0.2833 -0.4056  0.3025
 3831TIP3    H132984   0.642   5.700  12.303  0.9736 -0.3419  0.1083
 3831TIP3    H232985   0.640   5.775  12.435 -2.8623 -0.8755  0.4556
 3832TIP3   OH232986   1.785   6.013  12.752 -0.0726 -0.2895  0.6700
 3832TIP3    H132987   1.880   6.016  12.751 -0.0629  0.3952 -1.5394
 3832TIP3    H232988   1.758   6.081  12.690 -2.0726  0.6405  2.4012
 3833TIP3   OH232989   2.898   2.671  13.332 -0.2103  0.0800  0.4465
 3833TIP3    H132990   2.882   2.588  13.377  1.3088 -0.1348  0.6315
 3833TIP3    H232991   2.813   2.694  13.293 -0.6108 -1.6363  0.2403
 3834TIP3   OH232992   6.690   6.264  15.430 -0.1230  0.1681 -0.0558
 3834TIP3    H132993   6.782   6.268  15.404  0.7803  0.4666  2.8603
 3834TIP3    H232994   6.692   6.263  15.525 -3.1764  0.2163  0.0997
 3835TIP3   OH232995   0.224   2.030  16.263 -0.3260  0.5830 -0.0926
 3835TIP3    H132996   0.288   2.078  16.315 -0.3312  0.0063  0.4515
 3835TIP3    H232997   0.139   2.064  16.291 -0.2531  2.0813 -1.5343
 3836TIP3   OH232998   3.035   1.008  13.449  0.1504 -0.8982  0.5744
 3836TIP3    H132999   3.076   0.922  13.457 -1.5250 -1.6358  1.7512
 3836TIP3    H233000   2.954   1.001  13.499 -0.7114  0.9487 -0.4620
 3837TIP3   OH233001   4.790   0.433  16.763  0.2963  0.1436 -0.0151
 3837TIP3    H133002   4.823   0.440  16.673  1.9561 -1.0008  0.4571
 3837TIP3    H233003   4.829   0.507  16.809 -2.1747  1.9576 -0.6095
 3838TIP3   OH233004   2.886   4.747   3.565 -0.3197 -0.4194  0.2936
 3838TIP3    H133005   2.866   4.665   3.610  0.2291 -0.0206  1.2895
 3838TIP3    H233006   2.871   4.727   3.472 -2.2980 -1.0041  0.6896
 3839TIP3   OH233007   4.118   6.655  13.761  0.1451 -0.5229 -0.0267
 3839TIP3    H133008   4.092   6.685  13.848  0.5816 -0.9148  0.2403
 3839TIP3    H233009   4.051   6.691  13.702  1.4737  2.3469  0.0450
 3840TIP3   OH233010   3.776   3.128  16.088 -0.1110 -0.1068 -0.0953
 3840TIP3    H133011   3.861   3.104  16.124  0.6918  0.0241 -1.7934
 3840TIP3    H233012   3.728   3.166  16.161  2.0356  1.7310  0.4701
 3841TIP3   OH233013   1.526   4.758  11.894 -0.2787  0.0047 -0.2322
 3841TIP3    H133014   1.540   4.712  11.978 -0.1398  1.2680  0.4562
 3841TIP3    H233015   1.458   4.706  11.850 -0.4135 -0.6351  0.6937
 3842TIP3   OH233016   2.801   5.338   5.222  0.1455 -0.3535 -0.2953
 3842TIP3    H133017   2.764   5.425   5.237 -1.9088 -1.2241  0.0616
 3842TIP3    H233018   2.812   5.301   5.310  2.7814  0.1641 -0.3261
 3843TIP3   OH233019   5.789   1.949  13.569  0.1059 -0.4144 -0.2962
 3843TIP3    H133020   5.795   1.890  13.494  1.7043 -0.8154  0.1119
 3843TIP3    H233021   5.795   2.037  13.531  0.9495 -0.6155 -0.6400
 3844TIP3   OH233022   6.399   3.321   6.288 -0.7420 -0.0901  0.1594
 3844TIP3    H133023   6.450   3.241   6.298 -0.3950 -0.1520 -1.8036
 3844TIP3    H233024   6.329   3.312   6.353  2.1776  0.4771  3.7038
 3845TIP3   OH233025   0.310   3.219  14.131  0.0184  0.2950  0.1168
 3845TIP3    H133026   0.379   3.159  14.103 -0.4598 -0.5372  0.6625
 3845TIP3    H233027   0.317   3.293  14.072  0.0981 -0.6596 -1.1192
 3846TIP3   OH233028   1.487   0.642  14.564  0.9419  0.3301  0.0823
 3846TIP3    H133029   1.580   0.660  14.552  0.8489 -0.2247 -1.8471
 3846TIP3    H233030   1.475   0.554  14.528 -0.2698  0.2264  0.6776
 3847TIP3   OH233031   4.754   6.358  15.853  0.1952 -0.2540  0.1417
 3847TIP3    H133032   4.719   6.292  15.913 -1.0098 -0.5467 -0.8469
 3847TIP3    H233033   4.760   6.437  15.905 -1.2690 -0.3854  0.5637
 3848TIP3   OH233034   4.829   5.874   1.188 -0.1876  0.0372 -0.2195
 3848TIP3    H133035   4.873   5.791   1.170  0.0634  0.1693 -0.2224
 3848TIP3    H233036   4.886   5.918   1.251 -0.0728  0.4179 -0.5845
 3849TIP3   OH233037   5.481   5.207   1.091 -0.1021 -0.4967 -0.8472
 3849TIP3    H133038   5.416   5.172   1.152  0.9308  0.0649  0.6023
 3849TIP3    H233039   5.444   5.291   1.062  1.0337  1.0449  1.8952
 3850TIP3   OH233040   2.931   0.294   0.689  0.2443  0.2440 -0.1642
 3850TIP3    H133041   2.908   0.230   0.757 -0.2678 -0.0220 -0.5871
 3850TIP3    H233042   2.944   0.376   0.738  0.0036  0.0284  0.2753
 3851TIP3   OH233043   0.425   4.996   2.644 -0.4970 -0.2133 -0.2300
 3851TIP3    H133044   0.335   5.009   2.612  0.6490  1.8773 -3.1007
 3851TIP3    H233045   0.465   5.083   2.638  2.1445 -1.3584 -0.6082
 3852TIP3   OH233046   3.656   0.015   4.159 -0.1659  0.6397  0.1376
 3852TIP3    H133047   3.651   0.076   4.232  1.3270  0.2525  0.5779
 3852TIP3    H233048   3.649   0.070   4.081  0.2577  1.2693  0.5434
 3853TIP3   OH233049   0.028   6.505   5.087 -0.2277 -0.4764  0.3118
 3853TIP3    H133050  -0.027   6.560   5.143  1.6961  1.1451  0.7222
 3853TIP3    H233051   0.108   6.557   5.073 -0.1852 -1.2038 -3.1544
 3854TIP3   OH233052   2.871   4.832   0.535  0.2070 -0.7505 -0.2375
 3854TIP3    H133053   2.895   4.739   0.529 -1.5622 -1.3147  0.7735
 3854TIP3    H233054   2.778   4.834   0.513  0.2346  0.8113 -0.2956
 3855TIP3   OH233055   0.402   2.640  16.470  0.0587 -0.1570 -0.2952
 3855TIP3    H133056   0.497   2.651  16.457  0.3614  2.3450  2.8816
 3855TIP3    H233057   0.362   2.691  16.400  0.8851 -2.5547 -2.6805
 3856TIP3   OH233058   4.905   4.248   0.546  0.1331 -0.0246 -0.5457
 3856TIP3    H133059   4.968   4.211   0.608 -1.4269 -0.6146  0.7575
 3856TIP3    H233060   4.819   4.224   0.582 -0.9412  3.0764 -0.7426
 3857TIP3   OH233061   3.577   1.420  15.349 -0.0227  0.3296 -0.9593
 3857TIP3    H133062   3.546   1.399  15.261  2.1634 -0.0753 -1.7019
 3857TIP3    H233063   3.585   1.335  15.392 -0.4073  0.4704 -0.6023
 3858TIP3   OH233064   1.213   6.787  16.771 -0.6213  0.0137 -0.0698
 3858TIP3    H133065   1.222   6.863  16.828 -0.7939  0.0762 -0.1241
 3858TIP3    H233066   1.262   6.810  16.692 -0.2261 -0.1483  0.1275
 3859TIP3   OH233067   4.925   2.283   5.039  0.4162  0.9739 -0.5654
 3859TIP3    H133068   4.972   2.321   5.114  2.2939 -0.8198 -0.7467
 3859TIP3    H233069   4.846   2.245   5.076  0.6297  1.3349  0.2804
 3860TIP3   OH233070   0.354   2.618   2.359  0.3212  0.0029 -0.3515
 3860TIP3    H133071   0.288   2.681   2.330 -0.0361 -0.7403 -1.2034
 3860TIP3    H233072   0.393   2.586   2.277  1.2126 -0.1229  0.1166
 3861TIP3   OH233073   2.029   2.284  12.951 -0.5479  0.3702 -0.2901
 3861TIP3    H133074   2.008   2.303  13.042  0.7987  1.0054 -0.0954
 3861TIP3    H233075   1.944   2.273  12.909 -1.1952 -0.8231  1.2108
 3862TIP3   OH233076   5.861   1.130  11.302 -0.7049 -0.4094 -0.2635
 3862TIP3    H133077   5.917   1.179  11.361  0.8112  0.7507 -2.5194
 3862TIP3    H233078   5.871   1.039  11.329  1.3762 -0.1100  0.1375
 3863TIP3   OH233079   3.845   5.487  13.185 -0.0526  0.5776  0.4640
 3863TIP3    H133080   3.889   5.407  13.156  0.1959  0.3530  1.4482
 3863TIP3    H233081   3.916   5.546  13.210 -0.1555  1.6066 -1.3997
 3864TIP3   OH233082   6.246   3.472  15.294 -0.1804  0.7254 -0.1497
 3864TIP3    H133083   6.230   3.550  15.347  3.3103  1.6260 -0.2162
 3864TIP3    H233084   6.193   3.404  15.336 -2.1634  2.7154  0.8083
 3865TIP3   OH233085   2.909   3.429  15.639  0.1139  0.6843  0.2140
 3865TIP3    H133086   3.000   3.410  15.617  0.0049  1.1474 -0.6758
 3865TIP3    H233087   2.886   3.504  15.584 -0.6442  0.9093  0.8203
 3866TIP3   OH233088   4.555   3.851  16.560  0.0178  0.1520 -0.0739
 3866TIP3    H133089   4.488   3.783  16.555  1.2367 -1.1338  0.3995
 3866TIP3    H233090   4.547   3.886  16.649 -1.0369  1.1115 -0.5268
 3867TIP3   OH233091   5.023   6.769   4.613  0.1345  0.6066 -0.0778
 3867TIP3    H133092   5.117   6.782   4.598 -0.3461  1.0942 -3.1846
 3867TIP3    H233093   4.985   6.856   4.610 -0.6081  0.2820 -0.3316
 3868TIP3   OH233094   6.636   4.733  11.056 -0.6057 -0.5757  0.7358
 3868TIP3    H133095   6.553   4.715  11.099 -0.3450  0.6949  1.8492
 3868TIP3    H233096   6.679   4.798  11.112  1.0880 -1.1049  0.1218
 3869TIP3   OH233097   4.020   6.142  16.600 -0.0873  0.7178  0.5679
 3869TIP3    H133098   4.020   6.058  16.646  1.2877  0.0040 -0.6538
 3869TIP3    H233099   4.007   6.207  16.669  0.0505 -0.4133  1.6987
 3870TIP3   OH233100   4.929   5.122  14.731  0.7748 -0.0212 -0.1433
 3870TIP3    H133101   4.888   5.112  14.817  2.5127  1.3116  0.9043
 3870TIP3    H233102   4.994   5.052  14.727 -0.2650 -0.9806 -1.0252
 3871TIP3   OH233103   5.640   2.987   5.450 -0.3963  0.0501 -0.6445
 3871TIP3    H133104   5.639   3.029   5.364 -2.0727 -0.9819 -1.1767
 3871TIP3    H233105   5.607   3.053   5.510  0.0724  0.5380 -0.9173
 3872TIP3   OH233106   3.025   2.446  15.329  0.5366 -0.2676 -0.0226
 3872TIP3    H133107   2.935   2.452  15.299 -0.4061  1.6531  2.8098
 3872TIP3    H233108   3.057   2.364  15.291 -2.0614 -0.5658 -1.8355
 3873TIP3   OH233109   1.001   5.965  13.705  0.1544 -0.6622  0.5648
 3873TIP3    H133110   0.963   5.904  13.642 -1.1491  1.2430 -0.5884
 3873TIP3    H233111   0.993   6.051  13.664  2.8309  0.2422  1.6900
 3874TIP3   OH233112   1.390   4.856  17.103  0.1388 -0.1431 -0.5660
 3874TIP3    H133113   1.400   4.798  17.179  0.6078  0.6219 -0.0299
 3874TIP3    H233114   1.409   4.799  17.028 -1.3535 -1.1640 -0.2060
 3875TIP3   OH233115   0.296   1.428   5.162 -0.0150  0.4903  0.2573
 3875TIP3    H133116   0.347   1.371   5.219 -0.2363  0.0737  0.0443
 3875TIP3    H233117   0.205   1.405   5.181 -0.0937  0.4608 -0.1485
 3876TIP3   OH233118   4.311   3.826   4.578 -0.3211 -0.0996 -0.3771
 3876TIP3    H133119   4.342   3.812   4.489 -0.0493 -1.5213 -0.0829
 3876TIP3    H233120   4.250   3.754   4.594 -0.2070  0.0192  0.6498
 3877TIP3   OH233121   1.600   6.398   5.372 -0.3179  0.0963 -0.1434
 3877TIP3    H133122   1.637   6.359   5.293 -1.3648 -0.7902 -0.2259
 3877TIP3    H233123   1.526   6.341   5.394 -0.5647  0.8225  0.9868
 3878TIP3   OH233124   6.639   6.291  15.737 -0.5267  0.5235 -0.0284
 3878TIP3    H133125   6.709   6.255  15.791 -1.2091 -1.2663 -0.2769
 3878TIP3    H233126   6.559   6.279  15.788 -1.2971 -1.9090 -1.6211
 3879TIP3   OH233127   3.035   1.120  17.113  0.2355 -0.3216  0.5021
 3879TIP3    H133128   3.056   1.113  17.207 -1.1225 -0.2886  0.8280
 3879TIP3    H233129   2.981   1.198  17.107  0.3150 -0.3280 -0.3245
 3880TIP3   OH233130   5.668   5.344   1.581  0.1193 -0.5967 -0.0650
 3880TIP3    H133131   5.692   5.434   1.602 -0.4209 -0.4728  0.0419
 3880TIP3    H233132   5.749   5.304   1.551  0.5487 -0.3053  0.6765
 3881TIP3   OH233133   0.897   5.203   5.958  0.2421  0.0368 -0.1517
 3881TIP3    H133134   0.839   5.257   6.012 -0.2457  0.5880 -1.1883
 3881TIP3    H233135   0.939   5.144   6.020 -1.3501 -0.3068  0.6629
 3882TIP3   OH233136   1.561   1.838  14.285 -0.4831 -0.5219 -0.1394
 3882TIP3    H133137   1.603   1.762  14.324 -0.4543  0.1038  1.1373
 3882TIP3    H233138   1.482   1.804  14.243 -2.1633 -0.9793  3.0331
 3883TIP3   OH233139   1.526   4.101  13.085 -0.0456  0.0614 -0.3362
 3883TIP3    H133140   1.449   4.044  13.075  0.4758 -0.8256  0.6295
 3883TIP3    H233141   1.582   4.056  13.148  0.9805  1.0202 -0.5346
 3884TIP3   OH233142   5.910   3.273  12.191 -0.0168 -0.0240 -0.0662
 3884TIP3    H133143   5.982   3.243  12.135  1.0978 -2.3780  2.4089
 3884TIP3    H233144   5.835   3.223  12.161  0.3596 -0.6140 -0.0462
 3885TIP3   OH233145   0.273   0.009   4.981  0.0128 -0.0359 -0.0424
 3885TIP3    H133146   0.204  -0.038   4.934  0.3891 -0.6139 -0.0297
 3885TIP3    H233147   0.300  -0.052   5.051  1.0259 -0.1213 -0.4920
 3886TIP3   OH233148   2.182   6.175  15.713 -0.0125 -0.2248  0.2362
 3886TIP3    H133149   2.225   6.185  15.798  1.9417 -0.0390 -0.7252
 3886TIP3    H233150   2.102   6.229  15.720 -0.5326 -1.1720  2.3174
 3887TIP3   OH233151   0.610   0.101  12.824 -0.2382 -0.0709  0.3131
 3887TIP3    H133152   0.525   0.142  12.809  0.4227  1.5745  0.8151
 3887TIP3    H233153   0.647   0.150  12.898  1.3754 -0.3622 -0.2522
 3888TIP3   OH233154   1.128   3.048   2.293 -0.1526 -0.1884 -0.2245
 3888TIP3    H133155   1.064   3.030   2.361 -0.4838 -0.3994 -0.5905
 3888TIP3    H233156   1.209   3.065   2.341 -0.5460  0.3780  0.2514
 3889TIP3   OH233157   0.683   5.598   6.006 -0.2735 -0.0429  0.6958
 3889TIP3    H133158   0.597   5.624   5.973  0.0457  1.0822  0.7008
 3889TIP3    H233159   0.730   5.681   6.016  0.6204 -0.6038  1.2188
 3890TIP3   OH233160   0.061   3.237   3.893  0.1622  0.0802 -0.0511
 3890TIP3    H133161   0.141   3.248   3.944  1.2587  1.5420 -1.9633
 3890TIP3    H233162   0.044   3.143   3.895  0.7502 -0.0281  2.0502
 3891TIP3   OH233163   5.834   3.477  13.688  0.0221  0.2638  0.3829
 3891TIP3    H133164   5.785   3.558  13.673  0.0564 -0.0476 -1.6273
 3891TIP3    H233165   5.776   3.424  13.742 -1.2544  0.4975 -0.7060
 3892TIP3   OH233166   6.061   5.123  15.174 -0.2883  0.1500 -0.6424
 3892TIP3    H133167   6.092   5.211  15.152 -0.7875  0.5925  0.3865
 3892TIP3    H233168   6.061   5.077  15.090 -1.2860  1.5276 -1.4466
 3893TIP3   OH233169   3.567   2.196  16.700  0.0335  1.2171 -0.0411
 3893TIP3    H133170   3.490   2.245  16.672  0.7704  2.5074  0.0825
 3893TIP3    H233171   3.629   2.264  16.729  0.3511  0.1109  2.0677
 3894TIP3   OH233172   6.288   6.217   2.404  0.1396 -0.4723  0.6063
 3894TIP3    H133173   6.275   6.132   2.363  0.8333 -0.4766  0.3818
 3894TIP3    H233174   6.205   6.264   2.391  0.3686 -0.4436 -0.8613
 3895TIP3   OH233175   4.942   3.804  16.778  0.2504 -0.0702  0.0562
 3895TIP3    H133176   4.956   3.844  16.692 -0.8555 -0.4919 -0.3421
 3895TIP3    H233177   5.030   3.778  16.807  0.4528 -1.7900 -1.8792
 3896TIP3   OH233178   0.912   3.558   5.693  0.1924  0.8413  0.0760
 3896TIP3    H133179   0.855   3.628   5.723  1.1129  2.0135 -0.8258
 3896TIP3    H233180   0.858   3.508   5.632 -1.1986 -0.6548  2.3812
 3897TIP3   OH233181   0.436   2.916   4.887 -0.2159 -0.1568  0.9628
 3897TIP3    H133182   0.483   2.994   4.857  0.8973  0.1281  3.2225
 3897TIP3    H233183   0.423   2.864   4.808  2.9801  0.2662  0.0073
 3898TIP3   OH233184   0.374   6.110   5.267 -0.1235 -0.5484  0.4628
 3898TIP3    H133185   0.304   6.060   5.310  0.1897 -0.9364  0.5258
 3898TIP3    H233186   0.454   6.078   5.308  0.1596 -0.7455 -0.2345
 3899TIP3   OH233187   0.653   1.683   1.264  0.0543 -0.4193  0.0999
 3899TIP3    H133188   0.607   1.669   1.347  0.9189 -0.8426  0.5102
 3899TIP3    H233189   0.696   1.600   1.246  1.1247  0.1416  0.0008
 3900TIP3   OH233190   1.169   6.449  13.518 -0.5339 -0.2875  0.1442
 3900TIP3    H133191   1.202   6.422  13.604 -0.4658 -0.3585  0.0959
 3900TIP3    H233192   1.188   6.542  13.514  3.2028 -0.9332 -1.4218
 3901TIP3   OH233193   6.255   0.653   3.432  0.1818  0.0712  0.3152
 3901TIP3    H133194   6.214   0.589   3.375  1.4381  0.1642 -0.7391
 3901TIP3    H233195   6.252   0.735   3.383  0.8917  0.2498  0.5477
 3902TIP3   OH233196   2.062   0.578  13.482  0.6055 -0.3089  0.2430
 3902TIP3    H133197   2.133   0.599  13.542  0.0193  0.5410  0.6563
 3902TIP3    H233198   1.983   0.577  13.536 -0.1189  1.6929 -0.6677
 3903TIP3   OH233199   2.622   1.184   3.479 -0.2095  0.1220 -0.0343
 3903TIP3    H133200   2.636   1.271   3.515  2.1858  0.7065 -2.0822
 3903TIP3    H233201   2.558   1.196   3.409  2.3453  1.0200 -2.4250
 3904TIP3   OH233202   6.003   0.729  16.648 -0.3682  0.0461 -0.2773
 3904TIP3    H133203   5.982   0.743  16.741 -3.7430  1.3241 -1.0816
 3904TIP3    H233204   6.075   0.790  16.631  0.8292 -0.7492  1.6224
 3905TIP3   OH233205   3.659   4.189  11.093  0.7006 -0.5513 -0.1192
 3905TIP3    H133206   3.733   4.130  11.087 -1.8574 -4.0405 -0.5921
 3905TIP3    H233207   3.643   4.199  11.187  0.8187 -1.1104 -0.0407
 3906TIP3   OH233208   1.609   0.729   1.121  0.5765 -0.2139  0.3835
 3906TIP3    H133209   1.585   0.791   1.190  0.8311 -0.1594  0.4239
 3906TIP3    H233210   1.652   0.782   1.054  2.2006 -0.5486  1.1027
 3907TIP3   OH233211   1.684   2.072   5.637 -0.2590 -0.5131 -0.2137
 3907TIP3    H133212   1.655   2.031   5.718 -0.6954  0.2637  0.0317
 3907TIP3    H233213   1.702   2.162   5.661  0.9414 -0.6050 -0.6917
 3908TIP3   OH233214   0.421   2.150  16.440 -0.3402 -0.0665  0.3789
 3908TIP3    H133215   0.338   2.179  16.479 -0.5671 -0.1222 -0.0573
 3908TIP3    H233216   0.482   2.145  16.514 -1.0382 -1.1784  0.9148
 3909TIP3   OH233217   5.514   2.059   1.637 -0.3488  0.1256  0.1329
 3909TIP3    H133218   5.470   1.999   1.577 -1.6440 -2.6978  3.5430
 3909TIP3    H233219   5.442   2.104   1.683  0.5638  1.5355  0.2564
 3910TIP3   OH233220   4.408   3.353  12.412 -0.4996 -0.2363 -0.1928
 3910TIP3    H133221   4.370   3.441  12.411  0.6394  0.2696 -1.0055
 3910TIP3    H233222   4.461   3.348  12.332 -0.6053 -1.7011 -0.2139
 3911TIP3   OH233223   6.325   4.972   5.438 -0.3106  0.2365 -0.9463
 3911TIP3    H133224   6.333   4.949   5.530  0.7631 -3.3813 -1.8120
 3911TIP3    H233225   6.343   5.066   5.435  2.3710 -0.0384  2.2084
 3912TIP3   OH233226   5.505   5.699  15.866 -0.3549 -0.4829 -0.2987
 3912TIP3    H133227   5.589   5.689  15.820 -0.9595 -1.1371 -1.2893
 3912TIP3    H233228   5.491   5.613  15.907 -0.8982 -0.6129 -0.7558
 3913TIP3   OH233229   1.528   5.081   0.038 -0.6424 -0.3270  0.1834
 3913TIP3    H133230   1.617   5.051   0.061 -0.8049 -0.6308  0.4243
 3913TIP3    H233231   1.495   5.014  -0.021 -1.0185 -0.6463  0.7451
 3914TIP3   OH233232   5.092   3.703  12.415  0.0385 -0.4733  0.0369
 3914TIP3    H133233   5.136   3.674  12.335  1.8742  1.9206  0.0792
 3914TIP3    H233234   5.029   3.769  12.386 -0.5282 -0.8166  0.4400
 3915TIP3   OH233235   5.117   4.164   1.039 -0.1471  0.3703 -0.4774
 3915TIP3    H133236   5.144   4.243   0.992 -1.0279  0.2235 -1.2605
 3915TIP3    H233237   5.082   4.196   1.122  3.0201  0.5273  0.9419
 3916TIP3   OH233238   3.192   0.040   0.974  0.2364  0.0608 -0.2330
 3916TIP3    H133239   3.230   0.122   0.943 -0.6581  1.4653  2.0752
 3916TIP3    H233240   3.256  -0.026   0.950  2.7081  1.9048  0.7894
 3917TIP3   OH233241   1.918   6.281   0.490  0.2853 -0.8473 -0.1408
 3917TIP3    H133242   1.890   6.191   0.475  1.6940 -1.0978 -1.5626
 3917TIP3    H233243   1.955   6.281   0.578 -1.0748 -1.2780  0.4537
 3918TIP3   OH233244   3.621   3.341   2.199  0.2421 -0.2691  0.2594
 3918TIP3    H133245   3.709   3.375   2.211  0.1760 -0.6418  1.9586
 3918TIP3    H233246   3.580   3.403   2.138  2.1872 -1.0747 -2.0321
 3919TIP3   OH233247   5.139   6.286  11.935  0.4573  0.1382  0.0008
 3919TIP3    H133248   5.106   6.353  11.995 -0.2647 -1.4796  1.4901
 3919TIP3    H233249   5.234   6.294  11.939  0.3787  1.1457  0.0456
 3920TIP3   OH233250   3.148   2.075  16.589  0.4241 -0.1463  0.1039
 3920TIP3    H133251   3.132   2.148  16.529  1.9930  0.3024  0.1920
 3920TIP3    H233252   3.145   2.115  16.676 -2.2638 -0.8676  0.4254
 3921TIP3   OH233253   1.140   0.272  12.988  0.3454 -0.3126 -0.4741
 3921TIP3    H133254   1.144   0.326  13.067 -0.1781  1.5131 -1.6456
 3921TIP3    H233255   1.136   0.182  13.022  0.3934  0.3855  1.5651
 3922TIP3   OH233256   1.123   6.113   1.982 -0.5297  0.5127  0.0118
 3922TIP3    H133257   1.110   6.185   2.044 -0.3618  0.3817  0.2000
 3922TIP3    H233258   1.196   6.063   2.019  1.0817  1.6956 -1.4069
 3923TIP3   OH233259   4.232   5.953   1.931 -0.4786  0.2601 -0.7463
 3923TIP3    H133260   4.205   5.985   1.844 -1.0229 -0.0962 -0.7175
 3923TIP3    H233261   4.187   6.011   1.993 -0.8599 -0.0773 -0.7007
 3924TIP3   OH233262   2.613   4.430  14.026 -0.2739 -0.0281  0.7722
 3924TIP3    H133263   2.663   4.508  14.006 -0.7883  0.1144  0.0202
 3924TIP3    H233264   2.532   4.463  14.067 -0.0645 -0.2216  1.3587
 3925TIP3   OH233265   1.603   0.543  15.305 -0.6461 -0.1226 -0.6719
 3925TIP3    H133266   1.539   0.538  15.376 -0.2419 -0.2057 -0.3089
 3925TIP3    H233267   1.685   0.567  15.348 -0.2536 -0.8114 -1.0179
 3926TIP3   OH233268   0.593   6.511  12.363  0.2498 -0.0094  0.0812
 3926TIP3    H133269   0.620   6.474  12.448  0.3672  1.3756  0.6807
 3926TIP3    H233270   0.594   6.437  12.303  1.8413 -0.7107  0.9115
 3927TIP3   OH233271   3.111   4.692  11.964  0.5480 -0.1731  0.0039
 3927TIP3    H133272   3.019   4.666  11.959  0.2405  1.0295 -1.5028
 3927TIP3    H233273   3.160   4.610  11.956 -0.4025 -0.5872 -2.5613
 3928TIP3   OH233274   5.240   5.085  15.672 -0.1082 -0.9540 -0.3398
 3928TIP3    H133275   5.151   5.116  15.690 -0.4478 -1.5209 -1.0234
 3928TIP3    H233276   5.286   5.163  15.642 -0.8140 -0.9770 -1.5308
 3929TIP3   OH233277   2.022   1.231  12.634  0.1847 -0.3875  0.6276
 3929TIP3    H133278   1.990   1.250  12.545  1.3093 -2.0281 -0.1808
 3929TIP3    H233279   2.109   1.270  12.637  0.0612 -0.1434  1.1017
 3930TIP3   OH233280   4.939   2.171   1.170 -0.1108  0.1798 -0.2274
 3930TIP3    H133281   4.977   2.163   1.082  2.1786  1.8194  0.5129
 3930TIP3    H233282   4.853   2.211   1.156  0.8969  1.9793 -1.6441
 3931TIP3   OH233283   0.912   2.938  13.203 -0.3390  0.2455  0.0767
 3931TIP3    H133284   0.989   2.887  13.178 -1.6691 -1.6354 -0.4447
 3931TIP3    H233285   0.912   3.013  13.143  0.3905 -0.4125 -0.7816
 3932TIP3   OH233286   0.275   2.424   0.457  0.0013  1.1969 -0.1874
 3932TIP3    H133287   0.358   2.393   0.494  0.7695 -0.4833 -3.0125
 3932TIP3    H233288   0.222   2.345   0.448 -0.0773  1.4555 -2.6051
 3933TIP3   OH233289   2.045   5.275  12.190 -0.3047  0.4658  0.1795
 3933TIP3    H133290   2.122   5.318  12.227 -1.8020  1.5265  2.2615
 3933TIP3    H233291   1.993   5.248  12.266 -1.7523 -0.6840 -1.1414
 3934TIP3   OH233292   1.032   2.400  12.454  0.0682  0.0166 -0.3001
 3934TIP3    H133293   1.096   2.330  12.440  0.7610  0.2184  1.5674
 3934TIP3    H233294   1.084   2.476  12.479 -0.8435  0.4059  0.5013
 3935TIP3   OH233295   6.560   0.291  13.153  0.2869  0.0547 -0.4332
 3935TIP3    H133296   6.521   0.336  13.078 -0.2077  1.4794  0.6352
 3935TIP3    H233297   6.641   0.339  13.170  0.0204  0.2159  0.3983
 3936TIP3   OH233298   6.084   6.126  13.938 -0.1616 -0.1687  0.6973
 3936TIP3    H133299   6.056   6.185  14.008  0.4249 -1.0140  1.6766
 3936TIP3    H233300   6.096   6.041  13.982  1.1115 -0.4950 -0.2360
 3937TIP3   OH233301   4.669   1.310  15.458  0.4728 -0.4099 -0.1426
 3937TIP3    H133302   4.593   1.291  15.402  0.2008  0.7531 -0.1844
 3937TIP3    H233303   4.666   1.241  15.525 -0.9126 -0.1053  0.1469
 3938TIP3   OH233304   4.852   0.161   3.777  0.0214  0.1817  0.1445
 3938TIP3    H133305   4.798   0.240   3.768 -1.3213 -0.5436  1.5022
 3938TIP3    H233306   4.791   0.089   3.764  0.7187 -0.6591  1.3663
 3939TIP3   OH233307   2.898   2.132   3.821 -0.3451 -0.5800 -0.2736
 3939TIP3    H133308   2.932   2.169   3.739 -0.0575  0.6597  0.3831
 3939TIP3    H233309   2.968   2.073   3.850 -0.6889 -1.4719 -1.1909
 3940TIP3   OH233310   5.982   0.700   5.634 -0.2547  0.5810  0.7008
 3940TIP3    H133311   5.976   0.773   5.696  0.8174 -1.1107  2.9476
 3940TIP3    H233312   6.029   0.632   5.682 -0.1467 -1.1773 -1.7200
 3941TIP3   OH233313   3.597   0.283   4.260  0.0175 -0.0770  0.2928
 3941TIP3    H133314   3.560   0.329   4.335  1.1590 -0.8877  1.3908
 3941TIP3    H233315   3.521   0.258   4.207 -0.6928  2.2688  0.0904
 3942TIP3   OH233316   6.781   1.822  14.865  0.2589 -0.0587  0.0132
 3942TIP3    H133317   6.694   1.861  14.857  0.3924 -0.0230 -1.6386
 3942TIP3    H233318   6.795   1.813  14.959 -1.6139 -0.2669  0.3067
 3943TIP3   OH233319   1.880   0.217   5.330 -0.1079 -0.2643 -0.3389
 3943TIP3    H133320   1.785   0.229   5.330 -0.0569  0.1674  0.0919
 3943TIP3    H233321   1.912   0.280   5.265 -0.0889 -0.1820 -0.2495
 3944TIP3   OH233322   2.713   4.087   2.339  0.8192  0.4306  0.4131
 3944TIP3    H133323   2.620   4.109   2.329  0.7087 -0.8024 -2.4802
 3944TIP3    H233324   2.713   3.995   2.362  1.3032  0.1409 -0.6976
 3945TIP3   OH233325   5.692   4.748  10.313  0.3970 -0.3790  0.1553
 3945TIP3    H133326   5.698   4.655  10.335 -1.0236 -0.4794  0.2080
 3945TIP3    H233327   5.680   4.749  10.218 -3.6044 -0.5346  0.5163
 3946TIP3   OH233328   0.333   1.046  15.862  0.0063  0.0845  0.4201
 3946TIP3    H133329   0.373   0.970  15.905 -0.3063 -1.1567 -1.3841
 3946TIP3    H233330   0.239   1.034  15.876 -0.0121  0.5138  0.6922
 3947TIP3   OH233331   5.994   1.104  12.865 -0.3061  0.2648  0.1643
 3947TIP3    H133332   5.955   1.021  12.837  2.2481 -1.1634  0.5549
 3947TIP3    H233333   5.963   1.117  12.955  0.9107 -1.4465  0.8872
 3948TIP3   OH233334   1.138   5.719   5.359  0.0805 -0.4688  0.3083
 3948TIP3    H133335   1.043   5.730   5.347  0.3783 -0.2000 -2.3608
 3948TIP3    H233336   1.161   5.646   5.302  1.3446 -1.2535  1.7806
 3949TIP3   OH233337   1.812   6.631   3.977 -0.1286  0.5001 -0.1118
 3949TIP3    H133338   1.834   6.540   3.996  1.9454  0.6879 -1.3179
 3949TIP3    H233339   1.890   6.666   3.935 -1.2521  2.5697 -0.6008
 3950TIP3   OH233340   4.383   2.803   4.857  0.1863  0.1393 -0.1585
 3950TIP3    H133341   4.331   2.759   4.924  0.1034  0.1307 -0.2279
 3950TIP3    H233342   4.392   2.893   4.888  1.0379 -0.1247  0.3766
 3951TIP3   OH233343   3.728   5.525  16.355  0.0925 -0.1601 -0.3303
 3951TIP3    H133344   3.773   5.508  16.439  0.5425  1.9021 -0.0989
 3951TIP3    H233345   3.787   5.584  16.309 -1.2086  0.5132 -1.1586
 3952TIP3   OH233346   1.322   2.926   5.199 -0.3595 -0.5512  0.0003
 3952TIP3    H133347   1.400   2.967   5.237  0.7764 -2.8237  0.3185
 3952TIP3    H233348   1.356   2.853   5.148 -2.2454 -0.8920 -0.8559
 3953TIP3   OH233349   2.043   1.142  11.292  0.3106  0.0972  0.0534
 3953TIP3    H133350   2.100   1.176  11.361  0.0918  0.0387  0.2685
 3953TIP3    H233351   1.956   1.175  11.315 -0.2116 -1.8675  1.1809
 3954TIP3   OH233352   1.420   1.630  10.678  0.2421  0.2338 -0.0667
 3954TIP3    H133353   1.371   1.711  10.664  1.8839  1.0571 -1.3805
 3954TIP3    H233354   1.394   1.573  10.606 -0.0009  0.0323  0.1756
 3955TIP3   OH233355   4.894   5.194   5.213  0.7873  0.0080 -0.3929
 3955TIP3    H133356   4.808   5.169   5.179  0.6489  0.1820 -0.1806
 3955TIP3    H233357   4.949   5.117   5.200  0.1236 -0.7698  1.1246
 3956TIP3   OH233358   6.509   3.683  16.771  0.1349  0.1781  0.1083
 3956TIP3    H133359   6.576   3.709  16.708  0.9609  0.4432  1.0700
 3956TIP3    H233360   6.426   3.704  16.728  0.6742  0.2600 -0.9198
 3957TIP3   OH233361   1.975   1.071  14.709  0.0615 -0.1370 -0.0010
 3957TIP3    H133362   2.014   1.051  14.793  0.5460  0.7064 -0.0112
 3957TIP3    H233363   2.029   1.142  14.674 -1.0318  0.5449 -0.3466
 3958TIP3   OH233364   1.081   2.560  13.664 -0.3287 -0.5449  0.0792
 3958TIP3    H133365   1.040   2.554  13.750  0.2834 -1.5494  0.3108
 3958TIP3    H233366   1.012   2.536  13.602 -0.8712  0.5230  0.2441
 3959TIP3   OH233367   2.183   5.949  14.862  0.5084 -0.2914  0.0352
 3959TIP3    H133368   2.203   5.987  14.948  0.8247 -1.2039  0.3765
 3959TIP3    H233369   2.248   5.879  14.851  0.7783  0.1343 -1.1706
 3960TIP3   OH233370   2.835   4.817  15.433  0.2918 -0.0004  0.3455
 3960TIP3    H133371   2.757   4.769  15.405  0.9966  0.1471 -2.1156
 3960TIP3    H233372   2.896   4.809  15.360  1.9869  1.2540  1.5267
 3961TIP3   OH233373   1.453   4.946   1.075 -0.6026 -0.1601 -0.4629
 3961TIP3    H133374   1.547   4.935   1.090 -0.6159  0.2876 -0.0557
 3961TIP3    H233375   1.412   4.918   1.157 -0.7739  0.5832 -0.2942
 3962TIP3   OH233376   1.661   2.929  10.796 -0.0815 -0.1313  0.0604
 3962TIP3    H133377   1.649   2.845  10.839  3.3610 -0.9364 -0.2507
 3962TIP3    H233378   1.731   2.914  10.732 -1.8864  2.1042 -2.6868
 3963TIP3   OH233379   5.453   0.270   5.347 -0.3427 -0.4319 -0.3397
 3963TIP3    H133380   5.376   0.316   5.315  0.9682  1.1538 -1.4060
 3963TIP3    H233381   5.468   0.307   5.434 -0.4542 -0.3182 -0.3685
 3964TIP3   OH233382   4.176   2.245  11.653  0.4564 -0.3643  0.3746
 3964TIP3    H133383   4.152   2.337  11.659  0.5484 -0.3647  0.7738
 3964TIP3    H233384   4.154   2.220  11.563  1.4320  0.3176 -0.0702
 3965TIP3   OH233385   6.366   3.911   2.434 -0.7263  0.2299 -0.1620
 3965TIP3    H133386   6.451   3.883   2.470 -0.3888  0.2059 -0.9670
 3965TIP3    H233387   6.359   3.864   2.351 -1.1658  0.8632 -0.4831
 3966TIP3   OH233388   3.308   4.207  14.029  0.1158  0.1561 -0.6104
 3966TIP3    H133389   3.236   4.166  14.078 -0.4975  0.2501 -1.4084
 3966TIP3    H233390   3.265   4.273  13.974  0.7266 -0.2253 -1.5761
 3967TIP3   OH233391   3.876   5.159   3.490  0.5385 -0.1299  0.5223
 3967TIP3    H133392   3.840   5.180   3.576 -1.9078  2.2032 -0.9258
 3967TIP3    H233393   3.828   5.081   3.462  0.4765 -0.1879  0.7924
 3968TIP3   OH233394   2.616   2.561  10.780  0.0915 -0.4557 -0.3600
 3968TIP3    H133395   2.535   2.512  10.766 -0.6249 -0.6257  3.4017
 3968TIP3    H233396   2.684   2.493  10.786 -0.4266 -0.8806  1.7507
 3969TIP3   OH233397   5.173   0.467   1.136  0.3162 -0.2628  0.1015
 3969TIP3    H133398   5.256   0.505   1.107  0.2685  1.4314  2.0162
 3969TIP3    H233399   5.134   0.533   1.193 -1.0945 -2.0841  1.3847
 3970TIP3   OH233400   2.664   6.744  14.219 -0.2195  0.0399 -0.5010
 3970TIP3    H133401   2.571   6.724  14.208 -0.3377 -0.1440  0.7266
 3970TIP3    H233402   2.692   6.771  14.132 -1.2141 -0.7292 -1.0915
 3971TIP3   OH233403   6.797   5.979   3.904 -0.2626 -0.3652 -0.2553
 3971TIP3    H133404   6.873   6.033   3.880  0.9580 -0.8752  2.1713
 3971TIP3    H233405   6.833   5.891   3.915 -1.8228 -1.2942 -1.9562
 3972TIP3   OH233406   4.390   1.749   4.162 -0.1138  0.5914 -0.6487
 3972TIP3    H133407   4.484   1.770   4.160  0.1374 -0.5221 -1.4547
 3972TIP3    H233408   4.387   1.655   4.180 -1.0557  0.5206 -1.1233
 3973TIP3   OH233409   1.019   1.810   2.152 -0.2603 -0.0010 -0.2537
 3973TIP3    H133410   1.055   1.810   2.063 -1.2925  1.2021 -0.7053
 3973TIP3    H233411   0.979   1.723   2.161  0.8988 -0.5784 -0.5064
 3974TIP3   OH233412   3.878   4.671  16.278 -0.6705  0.2878  0.6546
 3974TIP3    H133413   3.837   4.602  16.330 -2.0847 -0.4164 -1.2448
 3974TIP3    H233414   3.953   4.699  16.329 -1.4029 -1.0333  2.5639
 3975TIP3   OH233415   4.945   0.043  13.262 -0.1270 -0.0532 -0.3081
 3975TIP3    H133416   5.025   0.082  13.227  0.0623 -0.8909 -0.8461
 3975TIP3    H233417   4.913  -0.013  13.192 -0.7810 -0.3050  0.1789
 3976TIP3   OH233418   3.316   1.275  16.701 -0.6773  0.0546  0.0645
 3976TIP3    H133419   3.263   1.257  16.779 -0.4908  0.2887  0.2444
 3976TIP3    H233420   3.305   1.369  16.685 -0.3989  0.0839  0.0409
 3977TIP3   OH233421   2.273   3.347  13.589 -0.0546  0.1063 -0.5108
 3977TIP3    H133422   2.303   3.276  13.533  1.4198  0.0119  0.3479
 3977TIP3    H233423   2.311   3.426  13.549  1.5714 -0.0319  0.6823
 3978TIP3   OH233424   3.770   4.787   2.701  0.2148 -1.1896  0.0884
 3978TIP3    H133425   3.757   4.826   2.787 -1.0857  0.4001 -0.7657
 3978TIP3    H233426   3.865   4.791   2.686  0.1652  1.8148  0.0365
 3979TIP3   OH233427   3.282   6.569   4.354 -0.0758  0.7859 -0.0327
 3979TIP3    H133428   3.209   6.611   4.309  0.1474  0.3887 -0.7648
 3979TIP3    H233429   3.357   6.582   4.296  0.0869 -0.2506 -0.0653
 3980TIP3   OH233430   2.541   4.384   5.796  0.0651  0.6609 -0.4626
 3980TIP3    H133431   2.509   4.307   5.749  0.6958  0.2382 -0.2196
 3980TIP3    H233432   2.463   4.419   5.840  0.0325 -0.8220  0.7729
 3981TIP3   OH233433   2.792   1.167   2.929  0.6760 -0.1021  0.2278
 3981TIP3    H133434   2.872   1.220   2.926 -0.4023  1.7321  1.5692
 3981TIP3    H233435   2.767   1.166   3.021 -1.5632  0.5267 -0.3137
 3982TIP3   OH233436   4.773   5.454  15.507  0.5760  0.3872 -0.2276
 3982TIP3    H133437   4.729   5.518  15.452 -0.7115 -0.1115  0.1740
 3982TIP3    H233438   4.741   5.369  15.476  0.3525  0.0633  0.8270
 3983TIP3   OH233439   5.322   4.388   4.132  0.2359 -0.1995  0.0814
 3983TIP3    H133440   5.270   4.458   4.171 -0.1004  1.5821 -3.2265
 3983TIP3    H233441   5.263   4.346   4.070  1.2250 -1.7444  0.1349
 3984TIP3   OH233442   1.840   0.297   3.222 -0.1228 -0.3025  0.2883
 3984TIP3    H133443   1.750   0.262   3.219  0.2303 -1.2430  0.2737
 3984TIP3    H233444   1.868   0.282   3.312  0.7218 -1.9078 -0.1928
 3985TIP3   OH233445   2.582   2.569   0.240 -0.2746 -0.1582 -0.2526
 3985TIP3    H133446   2.605   2.658   0.267  1.9917 -0.1180 -1.9736
 3985TIP3    H233447   2.578   2.520   0.322  1.4330  0.9557  0.5714
 3986TIP3   OH233448   4.419   4.327  16.236 -0.5556  0.0536  0.1468
 3986TIP3    H133449   4.489   4.303  16.176 -0.6421 -0.7796  0.3668
 3986TIP3    H233450   4.339   4.300  16.191 -0.6489 -0.1840  0.4520
 3987TIP3   OH233451   6.215   3.538   3.019 -0.7039 -0.0537  0.0368
 3987TIP3    H133452   6.262   3.580   2.947 -0.3910 -2.0008 -0.9678
 3987TIP3    H233453   6.282   3.513   3.081 -0.2210 -2.9647 -1.4646
 3988TIP3   OH233454   4.493   0.206   3.968  0.2196 -0.0319  0.4824
 3988TIP3    H133455   4.453   0.160   4.042 -0.9195  3.0773  2.0021
 3988TIP3    H233456   4.571   0.248   4.004  0.5832  0.1844 -0.5103
 3989TIP3   OH233457   3.052   4.193  17.093  0.0467 -0.2066 -0.1974
 3989TIP3    H133458   3.123   4.234  17.044 -1.1177  0.7981 -1.0829
 3989TIP3    H233459   2.972   4.234  17.061 -0.7780  0.7961  2.7709
 3990TIP3   OH233460   3.492   1.097   5.986  0.7298 -0.6505 -0.0035
 3990TIP3    H133461   3.491   1.175   6.041 -0.9636  1.4506 -2.7359
 3990TIP3    H233462   3.518   1.026   6.045 -1.7344  1.1798  3.6923
 3991TIP3   OH233463   6.514   4.361   3.206  0.3694  0.2031 -0.0118
 3991TIP3    H133464   6.479   4.279   3.241  1.3873 -0.1694  0.1609
 3991TIP3    H233465   6.436   4.414   3.188 -0.2382  0.4252  2.7936
 3992TIP3   OH233466   1.348   5.949  14.626  0.1541 -0.0172  0.2568
 3992TIP3    H133467   1.392   5.984  14.704  1.2256 -1.2789  0.2621
 3992TIP3    H233468   1.375   6.007  14.555 -0.4844  0.8891  0.7390
 3993TIP3   OH233469   3.470   0.587  13.575  0.2778 -0.7775  0.1388
 3993TIP3    H133470   3.409   0.513  13.575 -0.0958 -0.4741 -0.3811
 3993TIP3    H233471   3.550   0.551  13.614 -1.0622 -0.4383  3.4573
 3994TIP3   OH233472   5.599   2.487   3.630 -0.1626 -0.4897  0.4885
 3994TIP3    H133473   5.601   2.582   3.618  0.7370 -0.8048 -3.0097
 3994TIP3    H233474   5.507   2.464   3.627 -0.3038  0.1463 -0.4267
 3995TIP3   OH233475   4.839   3.263   1.799 -0.3928 -0.4327 -0.4941
 3995TIP3    H133476   4.780   3.298   1.866 -1.0260 -1.3035 -0.5748
 3995TIP3    H233477   4.905   3.331   1.786 -0.4598 -0.1169  0.7696
 3996TIP3   OH233478   6.774   0.423  15.645 -0.4136 -0.2436 -0.1658
 3996TIP3    H133479   6.693   0.375  15.661  1.2740 -2.6968  1.9712
 3996TIP3    H233480   6.799   0.454  15.732  0.3418  1.5440 -0.9943
 3997TIP3   OH233481   1.950   1.853  11.932  0.1111  0.3813 -0.3896
 3997TIP3    H133482   1.865   1.893  11.916 -0.3455 -0.4339 -0.0330
 3997TIP3    H233483   2.007   1.926  11.956 -1.2709  0.5910  2.6062
 3998TIP3   OH233484   3.903   1.881   0.064  0.6871 -0.0042  0.7330
 3998TIP3    H133485   3.910   1.808   0.125  0.1033 -0.7322 -0.0394
 3998TIP3    H233486   3.984   1.930   0.076  1.4703 -1.2313  0.7049
 3999TIP3   OH233487   4.912   4.653  12.467  0.7503 -0.1252  0.1290
 3999TIP3    H133488   4.989   4.649  12.409  0.6667 -3.2582  0.0687
 3999TIP3    H233489   4.946   4.688  12.549  1.5389  1.4393 -0.8121
 4000TIP3   OH233490   6.120   1.645  11.492 -0.5727  0.3223  0.1025
 4000TIP3    H133491   6.026   1.624  11.493 -0.4214 -0.4316 -0.5595
 4000TIP3    H233492   6.123   1.740  11.480 -1.2553  0.4503  0.8479
 4001TIP3   OH233493   4.961   0.084  14.232  0.2899  0.8256 -0.4712
 4001TIP3    H133494   4.909   0.007  14.253  3.0685 -0.8576  0.7909
 4001TIP3    H233495   4.944   0.100  14.139  0.7410 -2.3190 -1.1982
 4002TIP3   OH233496   3.720   0.921  15.900  0.1605  0.3232 -0.6409
 4002TIP3    H133497   3.777   0.981  15.947 -0.1597  1.2384 -1.3819
 4002TIP3    H233498   3.710   0.846  15.958  1.0720  0.7100  0.0379
 4003TIP3   OH233499   0.098   1.014   0.128  0.1259  0.0377  0.5097
 4003TIP3    H133500   0.007   1.027   0.155  0.2436  0.7010  0.6015
 4003TIP3    H233501   0.126   0.935   0.174 -0.8484 -1.0311 -0.6527
 4004TIP3   OH233502   6.142   2.404  10.331  0.1288  0.3926  0.0915
 4004TIP3    H133503   6.168   2.317  10.361  0.8183  1.6269  3.5575
 4004TIP3    H233504   6.224   2.453  10.324 -0.3234  1.0505 -0.8539
 4005TIP3   OH233505   6.527   3.597   3.557 -0.0277  0.0072 -0.3658
 4005TIP3    H133506   6.528   3.566   3.648  1.4746 -0.4184 -0.5017
 4005TIP3    H233507   6.619   3.618   3.538 -0.6207  2.2069 -1.0884
 4006TIP3   OH233508   0.558   5.769   3.976  0.2481 -0.3563  0.4438
 4006TIP3    H133509   0.488   5.729   4.027 -0.7527 -0.1306 -0.7163
 4006TIP3    H233510   0.580   5.849   4.024 -0.6727 -0.1413  0.5216
 4007TIP3   OH233511   1.053   2.491  15.852 -0.7941 -0.1676  0.2593
 4007TIP3    H133512   1.042   2.559  15.786 -0.2445 -1.7253 -1.5370
 4007TIP3    H233513   0.968   2.447  15.855 -1.0371  0.3327  1.1491
 4008TIP3   OH233514   5.731   1.498  15.893 -0.0315 -0.0046  0.7921
 4008TIP3    H133515   5.801   1.446  15.852 -0.5568  0.6928 -1.1093
 4008TIP3    H233516   5.777   1.565  15.944  0.6514 -0.9644  1.4653
 4009TIP3   OH233517   2.925   3.439   3.856 -0.2068  0.1739  0.5436
 4009TIP3    H133518   2.879   3.398   3.929  0.6579  0.5910  1.3423
 4009TIP3    H233519   2.908   3.533   3.867 -0.3173  0.2150  0.0375
 4010TIP3   OH233520   1.290   1.939  12.546  0.5306  0.3999 -0.2972
 4010TIP3    H133521   1.277   1.876  12.617 -1.4054  1.8797  0.7703
 4010TIP3    H233522   1.229   1.912  12.477 -0.6635  1.3040  0.3605
 4011TIP3   OH233523   3.162   0.274   2.948  0.2891 -0.6996  0.3357
 4011TIP3    H133524   3.143   0.187   2.983  0.4147 -0.4004  1.1823
 4011TIP3    H233525   3.100   0.332   2.992  0.4649 -0.3010  0.0678
 4012TIP3   OH233526   4.970   4.864  17.026 -0.7372  0.1497  0.7729
 4012TIP3    H133527   5.026   4.813  16.967  0.7342  1.4129  1.0172
 4012TIP3    H233528   4.903   4.902  16.969  0.2249  0.7444 -0.0048
 4013TIP3   OH233529   3.629   6.679  15.489  0.0552  0.5745 -0.3850
 4013TIP3    H133530   3.657   6.768  15.512 -2.0950  1.4750 -1.0362
 4013TIP3    H233531   3.636   6.629  15.570 -1.1733  2.0237  0.6499
 4014TIP3   OH233532   2.339   2.335   3.694 -0.0558  0.0303 -0.2418
 4014TIP3    H133533   2.264   2.359   3.747 -1.3661  1.4395 -2.5556
 4014TIP3    H233534   2.311   2.257   3.645 -0.6283  1.3488 -2.1302
 4015TIP3   OH233535   1.708   1.567  12.969  0.7114  0.4332 -0.1824
 4015TIP3    H133536   1.793   1.527  12.984  1.3605  1.5576 -0.6885
 4015TIP3    H233537   1.682   1.601  13.055  0.6461 -0.1423  0.0265
 4016TIP3   OH233538   0.741   1.744  11.256  0.3297 -0.3117  0.2451
 4016TIP3    H133539   0.709   1.679  11.319 -0.1962 -0.4938 -0.2101
 4016TIP3    H233540   0.681   1.739  11.182  0.8738 -0.0137 -0.2307
 4017TIP3   OH233541   1.775   1.794   5.560 -0.0411  0.2077 -0.5023
 4017TIP3    H133542   1.738   1.762   5.478 -0.4184 -0.7128  0.0074
 4017TIP3    H233543   1.701   1.801   5.619  0.0526  1.9388 -0.5406
 4018TIP3   OH233544   0.955   2.072  12.491  0.4843 -0.3521 -0.0380
 4018TIP3    H133545   0.938   2.076  12.397  1.6211 -1.3764 -0.3088
 4018TIP3    H233546   1.026   2.135  12.505  0.2142 -0.0916  0.1618
 4019TIP3   OH233547   3.961   3.111  11.638  0.2803  0.1624  0.1165
 4019TIP3    H133548   4.014   3.128  11.715 -1.3730  1.1955  1.0927
 4019TIP3    H233549   3.874   3.092  11.672 -0.5399  0.8031 -1.4932
 4020TIP3   OH233550   3.651   0.129   0.543  0.4989  0.4319  0.1776
 4020TIP3    H133551   3.635   0.100   0.453 -1.0886 -0.5779  0.7420
 4020TIP3    H233552   3.746   0.141   0.548  0.4640  2.4076 -2.1625
 4021TIP3   OH233553   2.989   3.532  14.798 -0.0020  0.2585 -0.2961
 4021TIP3    H133554   3.051   3.514  14.868  0.1802 -3.2419 -1.1776
 4021TIP3    H233555   3.040   3.579  14.732  0.5387  1.0898  0.6817
 4022TIP3   OH233556   2.794   2.130  13.067 -0.0371  0.2502  0.3417
 4022TIP3    H133557   2.818   2.198  13.131 -2.1495  0.0826  1.4068
 4022TIP3    H233558   2.714   2.091  13.103 -0.4611 -0.8716 -1.6891
 4023TIP3   OH233559   1.299   6.586  16.008  0.1556  0.0626 -0.0827
 4023TIP3    H133560   1.236   6.519  16.035 -0.3455  1.7150  3.3072
 4023TIP3    H233561   1.246   6.652  15.963 -0.0305  0.0421  0.1054
 4024TIP3   OH233562   3.305   1.944  15.391 -1.0209  0.2884  0.0981
 4024TIP3    H133563   3.254   1.892  15.329 -0.0020 -1.6526  0.8198
 4024TIP3    H233564   3.266   1.926  15.476 -0.4280  0.3970  0.4016
 4025TIP3   OH233565   0.100   2.242   1.155  0.3910 -0.8318 -0.9238
 4025TIP3    H133566   0.173   2.187   1.182  0.5819 -0.3249 -0.4007
 4025TIP3    H233567   0.136   2.331   1.150  0.0871 -0.7454 -1.7557
 4026TIP3   OH233568   5.442   2.989  16.870  0.1099 -0.4427  0.2659
 4026TIP3    H133569   5.510   2.922  16.881 -0.9182 -1.5261  0.1175
 4026TIP3    H233570   5.435   3.002  16.776  1.5323  1.2058  0.3202
 4027TIP3   OH233571   6.561   6.017  15.988  0.0164  0.5173  0.3856
 4027TIP3    H133572   6.492   5.991  16.049 -0.8418  1.1967 -0.2667
 4027TIP3    H233573   6.536   6.105  15.960 -0.3074 -0.2379 -1.8829
 4028TIP3   OH233574   5.298   4.891  11.854 -0.3970 -0.3294 -0.0261
 4028TIP3    H133575   5.275   4.840  11.776  0.3122 -1.7337  0.6535
 4028TIP3    H233576   5.245   4.852  11.924  1.4417 -1.3397  0.8566
 4029TIP3   OH233577   5.573   2.760  13.388 -0.2556  0.1932 -0.0201
 4029TIP3    H133578   5.543   2.690  13.446  0.0096  0.8010  0.8698
 4029TIP3    H233579   5.668   2.747  13.383 -0.2694  0.1828 -0.2805
 4030TIP3   OH233580   1.134   2.758   4.342  0.2105 -0.2314 -0.0828
 4030TIP3    H133581   1.107   2.700   4.413  1.7778  1.6723  2.2383
 4030TIP3    H233582   1.057   2.812   4.323  0.2239  0.3898  1.4629
 4031TIP3   OH233583   5.007   6.687   0.627 -0.0656 -0.5429 -0.0647
 4031TIP3    H133584   4.995   6.596   0.651  1.6843 -1.0618 -0.9833
 4031TIP3    H233585   5.021   6.686   0.532  0.1016  0.6698 -0.0792
 4032TIP3   OH233586   2.293   1.982   2.515  0.5099  0.1533 -0.0537
 4032TIP3    H133587   2.243   1.973   2.596  1.0680  2.4645  0.6386
 4032TIP3    H233588   2.374   2.026   2.542  1.1062  0.1483 -1.7287
 4033TIP3   OH233589   3.053   6.442   4.923 -0.0174 -0.1369  0.1469
 4033TIP3    H133590   3.003   6.361   4.931 -0.5562  0.1414 -0.2991
 4033TIP3    H233591   3.102   6.433   4.842 -1.5387  0.7443 -0.9092
 4034TIP3   OH233592   1.478   3.561  15.323  0.1865 -0.0825  0.0268
 4034TIP3    H133593   1.387   3.583  15.305  0.4149  1.3601  0.5113
 4034TIP3    H233594   1.484   3.558  15.418  0.8779  0.9588  0.0284
 4035TIP3   OH233595   3.189   4.783  15.298  0.4160  0.0994 -0.8880
 4035TIP3    H133596   3.218   4.696  15.327  0.2997  0.4750  0.4357
 4035TIP3    H233597   3.184   4.834  15.378 -0.4650  1.0596 -1.5277
 4036TIP3   OH233598   0.746   5.438  12.423  0.2519  0.0114  0.0966
 4036TIP3    H133599   0.830   5.432  12.378 -0.4878 -0.5249 -1.3076
 4036TIP3    H233600   0.722   5.530  12.419  0.8406  0.1940  0.6601
 4037TIP3   OH233601   0.556   4.658   2.891  0.0626  0.2068 -0.4791
 4037TIP3    H133602   0.596   4.594   2.951  1.1838  0.7144 -0.6565
 4037TIP3    H233603   0.570   4.621   2.804 -0.7249 -0.0714 -0.4945
 4038TIP3   OH233604   4.585   1.812  14.406 -0.2487  0.2267  0.3053
 4038TIP3    H133605   4.602   1.832  14.314 -0.5487  0.4060  0.2863
 4038TIP3    H233606   4.530   1.734  14.405 -0.1713  0.1723  0.3338
 4039TIP3   OH233607   1.053   6.426   1.265 -0.7703  0.6568 -0.1554
 4039TIP3    H133608   0.985   6.456   1.325  0.2261  0.9717  0.8549
 4039TIP3    H233609   1.135   6.452   1.306 -0.0537  1.8585 -2.1751
 4040TIP3   OH233610   5.754   1.660  11.084 -0.3375  0.5000  0.1231
 4040TIP3    H133611   5.754   1.604  11.162  1.3097  0.9489  0.4788
 4040TIP3    H233612   5.814   1.732  11.105  0.6345  0.3251 -1.7564
 4041TIP3   OH233613   0.240   0.537  15.889  0.0978  0.3273  0.3118
 4041TIP3    H133614   0.214   0.462  15.942  1.3221  0.6541  1.4570
 4041TIP3    H233615   0.297   0.500  15.821  0.2736  0.1440  0.5563
 4042TIP3   OH233616   3.574   2.749   0.664 -0.0149 -0.1006 -0.1713
 4042TIP3    H133617   3.597   2.670   0.615 -1.2325 -0.8778  0.4604
 4042TIP3    H233618   3.491   2.777   0.626  0.7784  1.3559 -0.9190
 4043TIP3   OH233619   0.526   6.476   3.880 -0.3623  0.4010 -0.1793
 4043TIP3    H133620   0.459   6.490   3.812 -1.1898 -1.0644  0.2893
 4043TIP3    H233621   0.576   6.557   3.881  0.5943  0.0481 -3.5308
 4044TIP3   OH233622   4.143   3.089   2.836  0.2320  0.5955 -0.2192
 4044TIP3    H133623   4.103   3.061   2.919 -0.7078  2.2834 -0.0648
 4044TIP3    H233624   4.207   3.155   2.861  1.6852 -0.5840 -0.6675
 4045TIP3   OH233625   1.215   6.556  13.234  0.4193 -0.3759 -0.5525
 4045TIP3    H133626   1.195   6.635  13.284  0.5473  0.1548 -1.3381
 4045TIP3    H233627   1.287   6.515  13.283  1.9735  1.2156 -1.3792
 4046TIP3   OH233628   6.183   3.299   3.378 -0.9393 -0.5717 -0.3024
 4046TIP3    H133629   6.158   3.216   3.337 -1.2875  0.2649 -1.8511
 4046TIP3    H233630   6.272   3.285   3.409 -1.6499 -2.1308  1.2237
 4047TIP3   OH233631   5.504   4.900  11.447  0.3502  0.1181  0.2618
 4047TIP3    H133632   5.454   4.820  11.463  2.4500 -1.5432 -0.8895
 4047TIP3    H233633   5.561   4.878  11.373 -0.6368  3.4976 -1.7472
 4048TIP3   OH233634   1.242   0.658   1.434 -0.1317  0.3394  0.2335
 4048TIP3    H133635   1.206   0.677   1.520  1.3675  0.0467  0.9544
 4048TIP3    H233636   1.225   0.736   1.382 -0.1784  0.9071  1.0948
 4049TIP3   OH233637   4.049   4.702  13.226  0.0714 -0.1220  0.1070
 4049TIP3    H133638   4.007   4.692  13.312  1.1294  1.0243  0.8015
 4049TIP3    H233639   4.098   4.784  13.233  0.8071 -0.4041 -1.3424
 4050TIP3   OH233640   3.630   5.260  14.892  0.2593  0.0510  0.2829
 4050TIP3    H133641   3.545   5.255  14.936  0.4172  1.1830  0.7475
 4050TIP3    H233642   3.689   5.209  14.947 -0.2474 -1.3523 -0.4209
 4051TIP3   OH233643   2.695   6.163  11.761  0.3073 -0.4912  0.0240
 4051TIP3    H133644   2.621   6.199  11.810  0.2446 -0.2587 -0.2340
 4051TIP3    H233645   2.661   6.150  11.672  0.4471 -0.8148  0.0156
 4052TIP3   OH233646   4.696   1.850  16.261 -0.1599  0.5889 -0.1773
 4052TIP3    H133647   4.662   1.939  16.250  0.6222  1.0494  1.0105
 4052TIP3    H233648   4.661   1.802  16.185 -0.0982  2.0486 -1.1797
 4053TIP3   OH233649   4.365   1.781   6.575 -0.1713  0.2604 -0.3317
 4053TIP3    H133650   4.295   1.781   6.640  0.5774  2.2798  0.5664
 4053TIP3    H233651   4.333   1.835   6.504 -0.4195 -0.7626 -1.0216
 4054TIP3   OH233652   4.780   5.019   0.069 -0.3899 -0.4715  0.7539
 4054TIP3    H133653   4.698   5.039   0.023  0.1343 -1.0055 -0.4747
 4054TIP3    H233654   4.765   4.934   0.108 -0.5998 -0.3321  0.9803
 4055TIP3   OH233655   6.737   2.480  12.790  0.6748 -0.3107  0.0984
 4055TIP3    H133656   6.687   2.403  12.818  0.1578  0.3438  1.0640
 4055TIP3    H233657   6.732   2.478  12.694  0.5096 -1.3629  0.1109
 4056TIP3   OH233658   1.707   5.511  14.417  0.0859 -0.1134 -0.0183
 4056TIP3    H133659   1.785   5.560  14.442 -0.3933  0.2825  0.7605
 4056TIP3    H233660   1.641   5.537  14.482 -0.6793 -0.4633 -0.6379
 4057TIP3   OH233661   1.048   5.053  14.975  0.2956 -0.2496 -0.3958
 4057TIP3    H133662   1.103   5.130  14.965  0.6725 -0.6267 -1.3372
 4057TIP3    H233663   0.959   5.087  14.981  0.6229  0.4027  1.6734
 4058TIP3   OH233664   4.066   0.609   1.005  0.5204  0.1684  0.9287
 4058TIP3    H133665   4.069   0.527   0.955 -1.8591  1.4119 -1.5521
 4058TIP3    H233666   4.145   0.607   1.059  0.7416 -3.5653  0.7626
 4059TIP3   OH233667   3.118   5.689   0.581  0.4858 -0.5282  0.2672
 4059TIP3    H133668   3.161   5.604   0.582  0.8158 -0.3799 -0.4593
 4059TIP3    H233669   3.182   5.748   0.540 -0.4229 -0.3307 -0.9411
 4060TIP3   OH233670   6.090   0.278   3.492  0.2002 -0.4795 -0.1016
 4060TIP3    H133671   6.185   0.282   3.479  0.2087  0.0048  0.0788
 4060TIP3    H233672   6.076   0.318   3.578 -0.1322 -0.9108  0.0478
 4061TIP3   OH233673   3.236   3.054  12.389 -0.2162 -0.0443 -0.0799
 4061TIP3    H133674   3.205   3.090  12.473  1.7951  1.9650 -0.0911
 4061TIP3    H233675   3.325   3.026  12.407  0.0100 -0.2091 -1.4096
 4062TIP3   OH233676   3.694   3.934  12.421  0.4143 -0.6490  0.9468
 4062TIP3    H133677   3.716   4.018  12.463 -0.2258 -0.3782  0.7521
 4062TIP3    H233678   3.637   3.891  12.484 -0.3713 -0.3379  0.4605
 4063TIP3   OH233679   5.388   6.167  12.025 -0.6831  0.0286 -0.0132
 4063TIP3    H133680   5.478   6.135  12.015 -0.4419  0.7788 -0.3492
 4063TIP3    H233681   5.371   6.161  12.119 -0.5231 -0.7524 -0.0316
 4064TIP3   OH233682   5.959   6.370  14.868 -0.0855 -0.5862  0.6319
 4064TIP3    H133683   5.935   6.381  14.776 -0.6529  1.2441  0.9699
 4064TIP3    H233684   5.892   6.311  14.903 -0.4450 -0.4850  0.1197
 4065TIP3   OH233685   5.186   3.444   0.768  0.9444  0.1568  0.2544
 4065TIP3    H133686   5.136   3.525   0.783  0.5681 -0.1207  0.5037
 4065TIP3    H233687   5.147   3.407   0.689  0.2478 -0.4416  0.8627
 4066TIP3   OH233688   4.780   1.637  13.663  0.2473 -0.2177 -0.2471
 4066TIP3    H133689   4.803   1.690  13.587  0.0395  1.2176  0.6476
 4066TIP3    H233690   4.697   1.674  13.693  1.1681  0.3895  1.6802
 4067TIP3   OH233691   0.965   6.347   5.800  0.6129 -0.2338  0.0976
 4067TIP3    H133692   1.029   6.412   5.773  0.5672  0.0848  0.7466
 4067TIP3    H233693   1.003   6.307   5.878  1.3465 -2.0422 -1.0928
 4068TIP3   OH233694   4.305   0.539   1.611 -0.4017  0.0862  0.2564
 4068TIP3    H133695   4.384   0.500   1.574 -0.2257 -0.0097  0.7328
 4068TIP3    H233696   4.312   0.632   1.590 -0.6146 -0.0597 -0.5104
 4069TIP3   OH233697   5.857   5.051  11.473 -0.2822  0.0026 -0.3269
 4069TIP3    H133698   5.824   5.039  11.562 -2.0356  1.1950 -0.7624
 4069TIP3    H233699   5.851   4.965  11.433 -0.1481 -0.3959  0.4975
 4070TIP3   OH233700   2.680   1.258   3.777 -0.0905 -0.6398 -0.2215
 4070TIP3    H133701   2.680   1.322   3.706 -0.8160 -0.4868 -0.0930
 4070TIP3    H233702   2.769   1.225   3.779  0.3257  0.4409 -0.2264
 4071TIP3   OH233703   1.182   6.406   4.279  1.0234 -0.1681  0.1457
 4071TIP3    H133704   1.155   6.364   4.361  2.5875 -1.0953  0.2250
 4071TIP3    H233705   1.140   6.354   4.210 -0.1619  0.5130  0.3455
 4072TIP3   OH233706   5.900   6.122  15.960  0.8212  0.1132 -0.1447
 4072TIP3    H133707   5.973   6.060  15.970  1.4185  0.8409  0.1541
 4072TIP3    H233708   5.906   6.177  16.038 -1.6544 -1.4227  1.2376
 4073TIP3   OH233709   0.472   6.024   2.187 -0.5626 -0.1428 -0.0931
 4073TIP3    H133710   0.443   6.030   2.096  1.4624  0.6553 -0.7404
 4073TIP3    H233711   0.434   5.942   2.219 -2.6291  0.3514 -1.1278
 4074TIP3   OH233712   4.354   2.790   2.058  0.6580 -0.2648 -0.3311
 4074TIP3    H133713   4.299   2.725   2.103 -0.0097  0.0146 -0.7265
 4074TIP3    H233714   4.301   2.819   1.984  0.2192  2.0120  0.7833
 4075TIP3   OH233715   2.185   4.225  14.438  0.4457  0.2834 -0.3517
 4075TIP3    H133716   2.242   4.151  14.460 -0.9693 -0.1031  2.3822
 4075TIP3    H233717   2.205   4.292  14.503 -0.9131  0.8419 -0.4656
 4076TIP3   OH233718   1.754   5.030   1.989 -0.2626  0.1693 -0.2776
 4076TIP3    H133719   1.788   4.984   1.912 -1.1125  1.0003 -1.1860
 4076TIP3    H233720   1.817   5.100   2.005  0.9316 -1.1270  0.9900
 4077TIP3   OH233721   0.327   6.821   1.854 -0.1799 -0.2058  0.0871
 4077TIP3    H133722   0.345   6.911   1.825 -0.8689  0.4997  1.7051
 4077TIP3    H233723   0.307   6.830   1.947 -0.0520 -2.0861  0.3276
 4078TIP3   OH233724   5.379   1.764  15.897 -0.1727  0.0382 -0.1719
 4078TIP3    H133725   5.304   1.815  15.868  0.2263  1.6750  1.5177
 4078TIP3    H233726   5.450   1.791  15.839 -0.1064  0.9940  0.3408
 4079TIP3   OH233727   1.850   2.297  16.677 -0.3525 -0.7865  0.3391
 4079TIP3    H133728   1.889   2.250  16.604  1.1807  0.6650  0.1603
 4079TIP3    H233729   1.907   2.277  16.751 -1.0770 -1.1014  0.8275
 4080TIP3   OH233730   6.319   1.997   4.832 -1.1213 -0.0260  0.3256
 4080TIP3    H133731   6.302   2.071   4.773  0.0547  1.7524  2.0960
 4080TIP3    H233732   6.239   1.991   4.885 -0.2403  1.8231  1.9803
 4081TIP3   OH233733   0.103   1.701  15.956  0.4984 -0.5778  0.7333
 4081TIP3    H133734   0.007   1.702  15.951  0.4536 -0.1966  1.5617
 4081TIP3    H233735   0.122   1.652  16.036  0.9989 -0.6929  0.5459
 4082TIP3   OH233736   5.962   0.318   1.150  0.2148 -0.1486  0.5515
 4082TIP3    H133737   6.048   0.303   1.110 -0.0890 -0.2542 -0.0670
 4082TIP3    H233738   5.947   0.241   1.205 -0.4716 -1.2104 -1.0775
 4083TIP3   OH233739   0.036   6.595  13.443 -0.1042 -0.2087  0.2075
 4083TIP3    H133740  -0.007   6.674  13.477 -1.5884 -0.4304 -1.0470
 4083TIP3    H233741  -0.022   6.523  13.468  0.4687 -0.7489  0.0282
 4084TIP3   OH233742   1.462   1.912   1.479 -0.4187  0.2633 -0.1071
 4084TIP3    H133743   1.410   1.967   1.538 -0.2827  0.0001  0.2589
 4084TIP3    H233744   1.401   1.847   1.446 -0.3158 -0.0891  0.3773
 4085TIP3   OH233745   3.475   0.482  12.864 -0.1126 -0.3049  0.1579
 4085TIP3    H133746   3.479   0.413  12.930  1.5344 -0.2760  0.1213
 4085TIP3    H233747   3.462   0.435  12.782  1.1475 -0.6039  0.1162
 4086TIP3   OH233748   4.927   6.045  10.465 -0.2862 -0.0147  0.0598
 4086TIP3    H133749   4.911   6.113  10.530 -0.8497  0.8836 -0.9855
 4086TIP3    H233750   4.850   6.048  10.408 -0.6750 -2.0090  0.3818
 4087TIP3   OH233751   6.238   1.641   2.166 -0.5283  0.0685 -0.2632
 4087TIP3    H133752   6.316   1.692   2.190 -0.3408 -0.4838  0.3140
 4087TIP3    H233753   6.245   1.561   2.217 -1.6534  0.1537  0.0416
 4088TIP3   OH233754   2.710   2.379  11.072  0.1594  0.0361 -0.1547
 4088TIP3    H133755   2.735   2.366  10.981 -1.6145 -0.0041 -0.6855
 4088TIP3    H233756   2.773   2.442  11.107  0.2685  0.8192 -1.7097
 4089TIP3   OH233757   5.988   6.831   2.516 -0.3001  0.1400  0.2873
 4089TIP3    H133758   5.938   6.833   2.435 -0.6439  1.4302  0.5040
 4089TIP3    H233759   6.068   6.783   2.494 -0.3322  0.5733 -0.8562
 4090TIP3   OH233760   5.725   2.538  10.151 -0.0478 -0.1800  0.3480
 4090TIP3    H133761   5.729   2.448  10.183 -0.9036 -0.2192  0.3936
 4090TIP3    H233762   5.691   2.588  10.225  0.9053  0.2756  0.4867
 4091TIP3   OH233763   2.644   0.293  13.911 -0.1047  0.0438 -0.2417
 4091TIP3    H133764   2.731   0.319  13.941 -0.1331  2.9250 -2.2287
 4091TIP3    H233765   2.584   0.345  13.965 -0.4085  0.6592 -1.1537
 4092TIP3   OH233766   1.231   4.647   1.068 -0.3690 -0.3985  0.1526
 4092TIP3    H133767   1.229   4.714   1.137  1.0499 -0.0326 -0.1176
 4092TIP3    H233768   1.322   4.616   1.068 -0.5139 -0.8679 -1.1011
 4093TIP3   OH233769   0.341   4.474  15.384  0.0108 -0.3636  0.8984
 4093TIP3    H133770   0.339   4.382  15.357 -0.1824 -0.6802  1.9526
 4093TIP3    H233771   0.431   4.502  15.368  0.1695 -0.8470  0.9527
 4094TIP3   OH233772   5.920   5.515  16.345 -0.0028 -0.1924 -0.3305
 4094TIP3    H133773   5.869   5.595  16.330  0.6691  0.1870 -0.6091
 4094TIP3    H233774   5.924   5.473  16.260  0.0070 -0.3099 -0.2732
 4095TIP3   OH233775   3.703   5.622  12.951  0.3343  0.4171  0.0393
 4095TIP3    H133776   3.748   5.660  12.876  0.6950 -0.4400 -0.1873
 4095TIP3    H233777   3.773   5.596  13.011  0.2196 -1.5390 -0.6076
 4096TIP3   OH233778   1.380   1.539   2.476  0.0801 -0.0502  0.2538
 4096TIP3    H133779   1.416   1.621   2.441  0.4982 -0.2023  0.3144
 4096TIP3    H233780   1.352   1.562   2.565  0.9057 -0.1484  0.5501
 4097TIP3   OH233781   0.349   1.782   6.077  0.1714 -0.2568  0.3240
 4097TIP3    H133782   0.431   1.757   6.120  0.2138 -0.5442  0.0817
 4097TIP3    H233783   0.284   1.720   6.110  0.2767 -0.6945 -0.2819
 4098TIP3   OH233784   1.027   0.748   1.007  0.6965  0.0007  0.9303
 4098TIP3    H133785   0.998   0.667   0.966 -0.3032  0.8355 -0.0715
 4098TIP3    H233786   1.123   0.743   1.006  0.6632 -0.6157 -0.2465
 4099TIP3   OH233787   0.253   6.225  11.132 -0.0776  0.1846  0.1564
 4099TIP3    H133788   0.298   6.201  11.051 -0.5997  2.9377 -1.0705
 4099TIP3    H233789   0.316   6.279  11.180  0.0320 -0.9716  1.3682
 4100TIP3   OH233790   1.593   5.663  15.608 -0.0495 -0.0168  0.1253
 4100TIP3    H133791   1.562   5.753  15.595  0.5289  0.1949  0.1610
 4100TIP3    H233792   1.513   5.611  15.618 -0.3954  0.8039  2.2093
 4101TIP3   OH233793   4.383   0.940  14.621  0.0768 -0.1391  0.0872
 4101TIP3    H133794   4.339   0.913  14.541 -1.5231  1.6305  0.2873
 4101TIP3    H233795   4.324   0.912  14.691  0.7389 -0.3605  0.5648
 4102TIP3   OH233796   0.687   4.149   3.251 -0.3273 -0.2964 -0.3776
 4102TIP3    H133797   0.750   4.144   3.179  0.6252 -0.6079  0.4609
 4102TIP3    H233798   0.623   4.080   3.231 -0.1626 -0.2790 -1.0044
 4103TIP3   OH233799   0.790   5.591  15.404  0.5171 -0.1331  0.0724
 4103TIP3    H133800   0.796   5.680  15.371 -0.1342  0.1834  0.7778
 4103TIP3    H233801   0.712   5.555  15.361  0.7251 -0.3290 -0.1402
 4104TIP3   OH233802   1.996   5.929  16.942 -0.8448  0.0809 -0.2253
 4104TIP3    H133803   1.962   6.008  16.900 -0.8188 -0.8091 -2.0026
 4104TIP3    H233804   1.942   5.858  16.906  0.0206 -0.8673  0.2975
 4105TIP3   OH233805   6.271   0.813   1.175 -0.1197 -0.3531 -0.3279
 4105TIP3    H133806   6.198   0.806   1.114 -0.3496 -0.1751 -0.0798
 4105TIP3    H233807   6.347   0.783   1.126 -0.5616 -1.7168 -0.1962
 4106TIP3   OH233808   4.875   5.226  10.402  0.4046 -0.2004  0.2306
 4106TIP3    H133809   4.798   5.263  10.446  1.0327 -0.7095  1.8384
 4106TIP3    H233810   4.843   5.144  10.364 -0.2721  0.4906 -0.7563
 4107TIP3   OH233811   6.402   5.809   6.114 -0.5211 -0.5198 -0.3282
 4107TIP3    H133812   6.444   5.814   6.028  2.1355 -1.7739  0.7990
 4107TIP3    H233813   6.427   5.890   6.158 -0.7844 -0.4678 -0.2727
 4108TIP3   OH233814   4.209   3.471   1.863 -0.3759  0.3323 -0.5359
 4108TIP3    H133815   4.188   3.378   1.866 -2.9638  0.8551 -0.1116
 4108TIP3    H233816   4.198   3.496   1.771  2.1947 -0.0829 -1.0366
 4109TIP3   OH233817   2.353   0.095  10.973  0.2846 -0.0092  0.0117
 4109TIP3    H133818   2.411   0.149  10.920 -1.1248  1.6797  0.0979
 4109TIP3    H233819   2.272   0.090  10.922 -0.3912 -0.0728  1.0665
 4110TIP3   OH233820   1.857   3.916   5.314  0.2426 -0.2555 -0.0241
 4110TIP3    H133821   1.912   3.923   5.392  1.5025  1.2128 -0.9902
 4110TIP3    H233822   1.854   3.822   5.295  2.1362 -0.4182  0.2876
 4111TIP3   OH233823   5.215   6.748  14.271 -0.2776  0.0079  0.0753
 4111TIP3    H133824   5.175   6.766  14.186  1.1850 -2.6266 -1.2980
 4111TIP3    H233825   5.156   6.684  14.312 -0.8994  1.1557  1.0162
 4112TIP3   OH233826   4.689   2.192   2.040 -0.0005 -0.7695 -0.3626
 4112TIP3    H133827   4.715   2.155   2.124 -1.7797 -0.9589  0.1404
 4112TIP3    H233828   4.769   2.234   2.007  0.3115  1.0576  2.3509
 4113TIP3   OH233829   4.816   4.000  13.022  0.3471  0.3536 -0.6390
 4113TIP3    H133830   4.864   3.996  13.105  1.2868 -0.7854 -1.2002
 4113TIP3    H233831   4.724   3.998  13.048  0.6199 -0.9094  0.3784
 4114TIP3   OH233832   0.771   0.393   2.303 -0.6633 -0.8850  0.5133
 4114TIP3    H133833   0.817   0.416   2.384 -0.0786  0.2966 -0.1150
 4114TIP3    H233834   0.692   0.448   2.305 -0.1643 -0.1173 -0.1488
 4115TIP3   OH233835   4.610   0.338   2.986  0.1842 -0.2086  0.8499
 4115TIP3    H133836   4.531   0.382   2.956  0.8871 -0.2124 -1.1473
 4115TIP3    H233837   4.587   0.245   2.986  0.4773 -0.2945 -0.7312
 4116TIP3   OH233838   6.157   2.245   6.399  0.0910  0.3414 -0.1906
 4116TIP3    H133839   6.093   2.210   6.461  1.1410 -1.9388 -0.3073
 4116TIP3    H233840   6.167   2.337   6.424 -0.1853 -0.2823  2.4321
 4117TIP3   OH233841   2.931   5.527   0.783 -0.2255 -0.2879 -0.5595
 4117TIP3    H133842   2.914   5.453   0.724  0.8062 -0.9568 -0.0308
 4117TIP3    H233843   2.988   5.585   0.733 -2.5729  1.1766 -1.7277
 4118TIP3   OH233844   2.590   1.923  14.618  0.7198  0.3325 -0.0890
 4118TIP3    H133845   2.593   1.831  14.593  0.6644 -0.0477  1.2570
 4118TIP3    H233846   2.670   1.961  14.582  0.6613 -0.1978 -0.7910
 4119TIP3   OH233847   3.942   6.360   4.915  0.5436  0.5386 -0.1035
 4119TIP3    H133848   3.922   6.378   5.007  0.3338  1.5293 -0.3352
 4119TIP3    H233849   3.875   6.296   4.888 -0.4530  1.5020 -0.0160
 4120TIP3   OH233850   1.827   2.824   2.695  0.0119 -0.7268  0.7212
 4120TIP3    H133851   1.813   2.879   2.772 -0.4869 -0.6360  0.5670
 4120TIP3    H233852   1.922   2.813   2.691  0.0086 -1.3445  1.7788
 4121TIP3   OH233853   0.350   2.457  15.773 -0.1185  0.2082  0.3954
 4121TIP3    H133854   0.344   2.493  15.685 -1.4614 -0.2152  0.2857
 4121TIP3    H233855   0.304   2.373  15.768 -0.4142  0.2751  1.5332
 4122TIP3   OH233856   2.754   4.819   3.310  0.2266  0.4918 -0.2528
 4122TIP3    H133857   2.757   4.898   3.256 -2.7800 -0.1601 -1.5989
 4122TIP3    H233858   2.719   4.752   3.251 -0.0711 -1.0962  1.6406
 4123TIP3   OH233859   1.996   5.395  14.567 -0.1573  0.0093 -0.0186
 4123TIP3    H133860   1.990   5.443  14.650  0.7636 -0.2057  0.1841
 4123TIP3    H233861   2.049   5.452  14.511  0.9579 -0.7747  0.2279
 4124TIP3   OH233862   1.673   4.435  13.369 -0.4138  0.4483 -0.1555
 4124TIP3    H133863   1.593   4.399  13.330  0.0746 -1.2713  0.3741
 4124TIP3    H233864   1.707   4.495  13.302 -1.7625  0.6869 -0.6621
 4125TIP3   OH233865   1.368   0.759   4.326 -0.2508 -0.0679 -0.0259
 4125TIP3    H133866   1.336   0.748   4.237  0.3878 -0.9571 -0.1556
 4125TIP3    H233867   1.402   0.848   4.329 -0.7451  0.1443 -0.5107
 4126TIP3   OH233868   5.880   0.571   1.332  0.5154  0.2530 -0.1053
 4126TIP3    H133869   5.865   0.522   1.413 -1.1786 -1.5825 -1.4495
 4126TIP3    H233870   5.931   0.512   1.277  0.2808  0.8396 -0.9637
 4127TIP3   OH233871   3.666   3.241   2.632 -0.3080  0.1900  0.4264
 4127TIP3    H133872   3.716   3.193   2.567 -2.2486 -0.7910 -0.4182
 4127TIP3    H233873   3.688   3.333   2.615 -0.4032 -0.0759 -1.3095
 4128TIP3   OH233874   5.716   2.820  17.019 -0.3996  0.2451 -0.6010
 4128TIP3    H133875   5.807   2.808  16.991 -1.2610 -0.6151 -3.3661
 4128TIP3    H233876   5.705   2.915  17.026  1.3691  0.3354  2.5198
 4129TIP3   OH233877   0.102   5.152   4.795  0.4770  0.2785 -0.1430
 4129TIP3    H133878   0.192   5.181   4.814  0.4101  0.3212  0.1226
 4129TIP3    H233879   0.051   5.185   4.869  0.4456 -0.7313  0.3200
 4130TIP3   OH233880   5.550   1.371  10.675 -0.5197 -0.1748  0.1145
 4130TIP3    H133881   5.521   1.400  10.589 -1.6109 -0.0716  0.5005
 4130TIP3    H233882   5.645   1.375  10.671 -0.5674  2.2332 -0.2962
 4131TIP3   OH233883   1.426   0.740  13.166  0.0791  0.6504 -0.1008
 4131TIP3    H133884   1.496   0.803  13.150 -0.0281  0.6399 -0.6501
 4131TIP3    H233885   1.379   0.735  13.082  0.0900 -0.1583 -0.0650
 4132TIP3   OH233886   1.286   4.797  10.046  0.2692  0.6178  0.0094
 4132TIP3    H133887   1.357   4.734  10.051  0.3410  0.5376 -1.6838
 4132TIP3    H233888   1.211   4.752  10.085  0.2712 -0.6097 -1.3494
 4133TIP3   OH233889   4.829   1.665  14.231  0.2004 -0.3972 -0.0837
 4133TIP3    H133890   4.889   1.657  14.157 -0.3283 -1.2963 -0.4246
 4133TIP3    H233891   4.761   1.725  14.200  0.9479  0.6910  0.3340
 4134TIP3   OH233892   4.092   2.767   5.043  0.0292  0.3529  0.0147
 4134TIP3    H133893   4.023   2.746   5.106  0.0518  1.7525  0.5299
 4134TIP3    H233894   4.105   2.861   5.051  1.3459  0.2668 -0.7519
 4135TIP3   OH233895   3.819   1.907   0.693 -0.3098  0.3749  0.6132
 4135TIP3    H133896   3.775   1.893   0.609 -0.1742  0.7928  0.4742
 4135TIP3    H233897   3.750   1.893   0.759  0.0480 -2.1751  0.5657
 4136TIP3   OH233898   4.257   1.328   0.542  0.5511 -0.6932 -0.1098
 4136TIP3    H133899   4.182   1.329   0.601 -0.0358  0.7761 -0.8286
 4136TIP3    H233900   4.328   1.288   0.593  0.4194  1.6494  2.0676
 4137TIP3   OH233901   1.667   4.487   4.438  0.2338  0.4974  0.1056
 4137TIP3    H133902   1.586   4.438   4.451  0.0932  1.4488  3.9297
 4137TIP3    H233903   1.638   4.577   4.423  0.6045  0.2663 -2.4617
 4138TIP3   OH233904   5.515   5.085   3.449 -0.8653 -0.3286 -0.0348
 4138TIP3    H133905   5.549   5.055   3.534  0.7775  0.5518 -0.3444
 4138TIP3    H233906   5.428   5.121   3.470  0.1891  1.4716  1.6324
 4139TIP3   OH233907   5.999   0.455  14.450 -0.1800 -0.2989 -0.5788
 4139TIP3    H133908   5.992   0.488  14.540  0.6083  0.1462 -0.6699
 4139TIP3    H233909   6.088   0.419  14.445 -0.6706 -1.5031 -0.7991
 4140TIP3   OH233910   3.074   5.041   0.531 -0.0095 -0.0089 -0.2275
 4140TIP3    H133911   2.992   4.993   0.545 -0.1410  0.1381 -0.4753
 4140TIP3    H233912   3.123   5.029   0.612 -0.6118  0.5532  0.2340
 4141TIP3   OH233913   2.915   2.439  13.735 -0.7008 -0.4304 -0.0799
 4141TIP3    H133914   2.878   2.459  13.649 -2.2090  0.5279  0.7524
 4141TIP3    H233915   2.840   2.438  13.794  0.6183  2.7996  1.9465
 4142TIP3   OH233916   1.523   0.306   1.456 -0.2310  0.5088  0.5278
 4142TIP3    H133917   1.607   0.266   1.433 -1.3912 -1.3862 -0.7896
 4142TIP3    H233918   1.516   0.382   1.399  0.2112  0.1654  0.0031
 4143TIP3   OH233919   4.969   0.495  13.873  0.1905 -0.0538  0.2493
 4143TIP3    H133920   5.064   0.502  13.861  0.1182 -1.9620 -2.4693
 4143TIP3    H233921   4.932   0.551  13.805 -0.5967 -0.4852  0.3095
 4144TIP3   OH233922   1.630   1.344  10.675 -0.3987  0.5074 -0.3467
 4144TIP3    H133923   1.635   1.391  10.592  0.4034  0.6144 -0.2509
 4144TIP3    H233924   1.593   1.259  10.652  1.7018 -0.2537 -1.2074
 4145TIP3   OH233925   5.887   0.206   1.965 -0.4572  0.0860  0.0937
 4145TIP3    H133926   5.828   0.256   2.022 -0.3629 -1.1664  1.3376
 4145TIP3    H233927   5.883   0.252   1.881  0.0879  2.5552  1.3050
 4146TIP3   OH233928   2.439   5.384   5.499  0.1736  0.4274  0.2387
 4146TIP3    H133929   2.430   5.340   5.584  1.0484  0.2498  0.2530
 4146TIP3    H233930   2.460   5.313   5.438 -1.8905  0.3228 -0.4414
 4147TIP3   OH233931   2.316   4.957  11.687  0.1327 -0.6465 -0.0839
 4147TIP3    H133932   2.337   4.933  11.596  1.0269  0.4904 -0.2050
 4147TIP3    H233933   2.317   5.053  11.687 -1.8082 -0.5856  0.7093
 4148TIP3   OH233934   3.956   6.477  14.205  0.4661 -0.0701 -0.0794
 4148TIP3    H133935   4.004   6.470  14.287  2.4336  0.6504 -1.0866
 4148TIP3    H233936   3.930   6.569  14.201  0.3307 -0.1152 -0.2322
 4149TIP3   OH233937   3.872   3.047  14.730  0.1400 -0.3668  0.2539
 4149TIP3    H133938   3.798   3.106  14.718 -0.6145 -1.3941 -0.2861
 4149TIP3    H233939   3.865   2.984  14.658  0.7884 -1.2365  0.9252
 4150TIP3   OH233940   2.725   3.918  12.088  0.3733 -0.1067 -0.1792
 4150TIP3    H133941   2.680   3.898  12.006  1.1754  2.4784 -1.3628
 4150TIP3    H233942   2.688   4.002  12.116  1.1543 -0.2327  1.3254
 4151TIP3   OH233943   5.842   4.109   3.320 -0.4703 -0.2859 -0.1031
 4151TIP3    H133944   5.752   4.110   3.286 -0.8525 -3.0320  0.6244
 4151TIP3    H233945   5.877   4.025   3.293  1.0156 -0.3494  1.8308
 4152TIP3   OH233946   1.965   6.634  13.914 -0.6805  0.0860  0.2347
 4152TIP3    H133947   1.882   6.661  13.953 -2.0006 -1.2659 -1.4646
 4152TIP3    H233948   1.993   6.709  13.862 -0.7715  0.5705  0.8618
 4153TIP3   OH233949   4.997   4.412  12.315  0.1478 -0.0601 -0.4150
 4153TIP3    H133950   4.948   4.343  12.360  1.8049  0.8484  3.1938
 4153TIP3    H233951   5.046   4.366  12.247 -2.5877 -1.5381 -1.5510
 4154TIP3   OH233952   1.825   0.236  16.707 -0.0949 -0.2684  0.5951
 4154TIP3    H133953   1.851   0.328  16.706 -1.6925  0.2267 -1.2297
 4154TIP3    H233954   1.755   0.232  16.773 -0.7952  0.0918 -0.1081
 4155TIP3   OH233955   5.629   4.540   3.062  0.2755  0.3864 -0.1955
 4155TIP3    H133956   5.663   4.601   3.128 -0.1403 -0.2907  0.6762
 4155TIP3    H233957   5.610   4.594   2.986  0.9036  1.1716  0.1935
 4156TIP3   OH233958   3.157   2.498  16.119 -0.2468  0.1818 -0.2804
 4156TIP3    H133959   3.090   2.566  16.122  0.0990  0.5068  0.2370
 4156TIP3    H233960   3.108   2.416  16.111 -0.8524  0.2208  2.2085
 4157TIP3   OH233961   5.793   3.036   4.582 -0.8234  0.1649  0.0462
 4157TIP3    H133962   5.705   3.072   4.593 -1.2025 -1.1905  1.9136
 4157TIP3    H233963   5.830   3.033   4.671  1.1336  0.6823 -0.6807
 4158TIP3   OH233964   3.449   5.023  11.253  0.0607 -0.4454  0.0187
 4158TIP3    H133965   3.416   5.095  11.199  0.9283 -1.1857 -1.5482
 4158TIP3    H233966   3.372   4.993  11.301 -0.7928  0.1178 -0.9486
 4159TIP3   OH233967   2.951   1.313   2.503  0.3412  0.2912 -0.3148
 4159TIP3    H133968   3.005   1.296   2.580 -0.2747  1.3670  0.3830
 4159TIP3    H233969   2.941   1.227   2.462  0.4939 -0.3588  0.9318
 4160TIP3   OH233970   3.222   2.272   4.851  0.8570 -0.1770  0.0320
 4160TIP3    H133971   3.152   2.329   4.883 -0.2834 -2.2204  1.4109
 4160TIP3    H233972   3.299   2.298   4.902  0.8409  1.2768 -0.6377
 4161TIP3   OH233973   5.532   6.259  16.470  0.2462  0.3023  0.2583
 4161TIP3    H133974   5.511   6.353  16.471 -1.1641  0.0382 -0.7911
 4161TIP3    H233975   5.465   6.219  16.525 -0.1941 -0.2400 -0.6431
 4162TIP3   OH233976   6.705   5.023   4.382 -0.0257 -0.5736 -0.3905
 4162TIP3    H133977   6.717   5.085   4.454  2.2637 -2.8275  1.3521
 4162TIP3    H233978   6.610   5.013   4.374 -0.3575  0.5471  1.5723
 4163TIP3   OH233979   3.471   3.153   1.750  0.3735 -0.3935  1.0596
 4163TIP3    H133980   3.539   3.094   1.782  0.3687 -0.8332  0.2607
 4163TIP3    H233981   3.393   3.129   1.800  1.1587  1.2598  3.2515
 4164TIP3   OH233982   6.157   6.728   3.986  0.0500  0.0720  0.2644
 4164TIP3    H133983   6.197   6.641   3.982  2.1305  0.8934  1.2970
 4164TIP3    H233984   6.071   6.713   4.025  0.4765 -1.4918  0.6787
 4165TIP3   OH233985   0.339   2.470  11.223 -0.7297 -0.1033 -0.3269
 4165TIP3    H133986   0.431   2.478  11.199 -0.9410  1.4770 -0.7579
 4165TIP3    H233987   0.319   2.552  11.269 -2.6122  0.9651 -2.8128
 4166TIP3   OH233988   0.339   4.710   0.913 -0.2555  0.7331  0.4220
 4166TIP3    H133989   0.252   4.744   0.895 -0.8822 -0.1514  1.6662
 4166TIP3    H233990   0.361   4.660   0.835 -1.4287 -0.1209  0.6114
 4167TIP3   OH233991   3.443   4.591   5.264  0.0726 -0.0842 -0.0635
 4167TIP3    H133992   3.414   4.501   5.280 -1.8348  0.0430 -2.3109
 4167TIP3    H233993   3.464   4.593   5.171  0.8958  1.6160  0.1232
 4168TIP3   OH233994   3.221   0.709  10.241  0.4157  0.5376  0.2315
 4168TIP3    H133995   3.129   0.732  10.257  0.8846  1.6726  1.5205
 4168TIP3    H233996   3.256   0.689  10.327  1.0714 -1.2355 -0.4098
 4169TIP3   OH233997   1.460   2.545  14.196 -0.0710  1.0162  0.0939
 4169TIP3    H133998   1.395   2.560  14.264 -1.4092  0.9998 -1.1201
 4169TIP3    H233999   1.520   2.620  14.202  0.5985  0.3624  2.0791
 4170TIP3   OH234000   5.079   0.179   6.086  0.1123  0.8263 -0.1010
 4170TIP3    H134001   5.137   0.251   6.111  1.0236 -0.0257  0.2942
 4170TIP3    H234002   5.093   0.168   5.993  1.5089 -0.1634  0.2104
 4171TIP3   OH234003   3.523   4.537  12.020 -0.5316 -0.1539  0.0404
 4171TIP3    H134004   3.546   4.486  12.098 -0.5972 -0.8563 -0.3882
 4171TIP3    H234005   3.462   4.603  12.052  1.2682  1.1209  1.0240
 4172TIP3   OH234006   5.015   0.817   1.013 -0.2298 -0.0501  0.1978
 4172TIP3    H134007   5.093   0.873   1.005 -0.7863  0.5368 -1.6788
 4172TIP3    H234008   4.942   0.879   1.014 -0.7202 -0.4813  3.4612
 4173TIP3   OH234009   4.282   6.144   4.386  0.6443 -0.0735 -0.2111
 4173TIP3    H134010   4.318   6.118   4.301  0.2252 -0.1857 -0.3592
 4173TIP3    H234011   4.336   6.218   4.414  1.5794 -0.8243  0.0104
 4174TIP3   OH234012   6.823   6.312  11.068 -0.1102  0.1677 -0.7662
 4174TIP3    H134013   6.831   6.337  10.975 -1.3958 -0.0208 -0.9412
 4174TIP3    H234014   6.913   6.288  11.093  0.0183 -1.4135 -2.4422
 4175TIP3   OH234015   2.205   4.238  11.063  0.0029  0.0766  0.4413
 4175TIP3    H134016   2.274   4.184  11.024  0.4113 -0.1483  1.4408
 4175TIP3    H234017   2.173   4.292  10.991 -0.9545 -1.9997 -0.7823
 4176TIP3   OH234018   0.244   6.255  13.209  0.2540  0.0496  0.0767
 4176TIP3    H134019   0.162   6.208  13.225  0.9269 -1.0205  0.4925
 4176TIP3    H234020   0.220   6.327  13.151 -1.3314  0.9125  1.7040
 4177TIP3   OH234021   5.625   5.023   2.222  0.0160 -0.0498  0.3696
 4177TIP3    H134022   5.679   5.063   2.154 -0.9344  0.3208 -0.1889
 4177TIP3    H234023   5.613   5.092   2.287 -2.3583  0.9466 -1.0170
 4178TIP3   OH234024   5.481   4.924  16.571 -0.0132 -0.0452  0.4834
 4178TIP3    H134025   5.418   4.953  16.637  0.8184  0.3478  1.1290
 4178TIP3    H234026   5.503   5.003  16.522 -0.4427 -0.2906 -0.1086
 4179TIP3   OH234027   0.513   1.481   0.243  0.6506 -0.1093 -0.0829
 4179TIP3    H134028   0.422   1.490   0.216  0.4650 -0.0683  0.5304
 4179TIP3    H234029   0.561   1.463   0.162  0.3804  1.7991 -0.7199
 4180TIP3   OH234030   4.937   2.252  15.892 -0.1371  0.1526 -0.5913
 4180TIP3    H134031   5.005   2.218  15.835  0.7258  0.2446  0.3633
 4180TIP3    H234032   4.947   2.347  15.888 -0.0907  0.1608 -0.3138
 4181TIP3   OH234033   2.730   4.279  15.762 -0.4121  0.2776 -0.2277
 4181TIP3    H134034   2.725   4.374  15.751  1.6566  0.4050 -0.3016
 4181TIP3    H234035   2.811   4.254  15.719 -0.4796 -1.4179  0.5683
 4182TIP3   OH234036   5.077   5.052   2.565 -0.1733 -0.3291 -0.2715
 4182TIP3    H134037   5.107   4.967   2.532 -1.1229  0.1290 -2.4899
 4182TIP3    H234038   5.095   5.048   2.659  2.0898 -2.0158 -0.6652
 4183TIP3   OH234039   5.422   3.167  10.999 -0.1713 -0.3766 -0.0890
 4183TIP3    H134040   5.384   3.134  11.080 -1.2684  1.3421  0.1402
 4183TIP3    H234041   5.347   3.200  10.949  0.8170  1.7148 -0.2950
 4184TIP3   OH234042   4.247   0.201  16.527  0.2240  0.0228  0.1808
 4184TIP3    H134043   4.252   0.283  16.576  1.1265  0.1103 -0.0452
 4184TIP3    H234044   4.194   0.144  16.582  1.1874  0.1297  1.2454
 4185TIP3   OH234045   6.557   3.572   2.235 -0.4273  0.3861 -0.3680
 4185TIP3    H134046   6.588   3.523   2.158 -1.3584  0.2157 -0.6498
 4185TIP3    H234047   6.584   3.662   2.217  2.0138 -0.0780  0.5269
 4186TIP3   OH234048   6.288   5.708   3.058 -0.1416  0.6485 -0.5262
 4186TIP3    H134049   6.364   5.701   3.001 -0.3701  0.1068 -0.7812
 4186TIP3    H234050   6.323   5.727   3.144  0.3492 -0.3769 -0.4808
 4187TIP3   OH234051   2.966   4.478  12.307  0.7294 -0.3685  0.1482
 4187TIP3    H134052   2.988   4.403  12.251  0.9938 -0.1360 -0.0584
 4187TIP3    H234053   2.948   4.439  12.393  1.4781 -0.6089  0.2001
 4188TIP3   OH234054   1.865   6.642  13.624 -0.2036 -0.0180  0.2431
 4188TIP3    H134055   1.888   6.551  13.644 -0.4697  0.0318  0.8050
 4188TIP3    H234056   1.867   6.647  13.528  2.4445  0.0756  0.2274
 4189TIP3   OH234057   2.017   3.249  16.274  0.4616 -0.4439 -0.3320
 4189TIP3    H134058   2.028   3.344  16.266  1.1182 -0.3242  1.5612
 4189TIP3    H234059   1.923   3.236  16.287  0.4624  0.0287  0.1788
 4190TIP3   OH234060   4.858   5.906  15.136  0.3531 -0.3526  0.3685
 4190TIP3    H134061   4.771   5.886  15.099 -0.1901 -0.4070  1.6196
 4190TIP3    H234062   4.917   5.901  15.061 -0.6369 -0.9058 -0.4099
 4191TIP3   OH234063   2.301   5.364  11.176 -0.0009  0.2091  0.5366
 4191TIP3    H134064   2.225   5.363  11.117 -0.1524  0.0212  0.7330
 4191TIP3    H234065   2.286   5.291  11.236  2.0379 -2.1051 -1.5724
 4192TIP3   OH234066   4.943   4.226   3.149 -0.3727  0.1698 -0.4835
 4192TIP3    H134067   5.005   4.221   3.222 -0.8294 -0.0605 -0.1089
 4192TIP3    H234068   4.908   4.314   3.152  1.5250  1.0720 -2.0282
 4193TIP3   OH234069   5.807   4.806  11.745  0.6233  0.1177 -0.3182
 4193TIP3    H134070   5.749   4.880  11.761 -0.2443 -0.6081  0.0007
 4193TIP3    H234071   5.886   4.826  11.795  0.1706  0.5642  0.2350
 4194TIP3   OH234072   6.012   5.230   1.252  0.0473  0.4827 -0.2513
 4194TIP3    H134073   5.988   5.294   1.185 -0.1844  1.2887  0.5790
 4194TIP3    H234074   6.106   5.217   1.239 -0.0707  0.3201 -0.9877
 4195TIP3   OH234075   1.058   6.163  14.689  0.1949 -0.2867  0.1586
 4195TIP3    H134076   1.104   6.247  14.678 -0.1238 -0.0797  0.3733
 4195TIP3    H234077   0.965   6.187  14.687  0.0913 -0.7475 -0.6395
 4196TIP3   OH234078   4.832   0.017  12.126 -0.1785 -0.3212 -0.2125
 4196TIP3    H134079   4.816  -0.019  12.039 -0.5397 -0.2868 -0.1613
 4196TIP3    H234080   4.786  -0.043  12.186  0.2019 -0.4356 -0.0331
 4197TIP3   OH234081   3.719   0.816   4.952 -0.5722  0.0586 -0.5843
 4197TIP3    H134082   3.781   0.801   5.024 -1.7909  0.3510  0.5547
 4197TIP3    H234083   3.737   0.905   4.924 -1.2912  0.6059  0.6006
 4198TIP3   OH234084   6.167   3.289   6.440 -0.4832  0.2119 -0.0874
 4198TIP3    H134085   6.112   3.366   6.457 -1.2216 -0.2194 -0.4857
 4198TIP3    H234086   6.108   3.215   6.448  0.1689 -0.3055  0.0238
 4199TIP3   OH234087   0.378   5.611   0.355  0.1768  0.1956  0.2480
 4199TIP3    H134088   0.435   5.539   0.380  1.3604  1.8469  2.6684
 4199TIP3    H234089   0.355   5.653   0.437 -1.8232  1.6297 -0.9502
 4200TIP3   OH234090   1.024   5.491  12.768  0.0335  0.0101  0.4544
 4200TIP3    H134091   1.082   5.552  12.722  0.6272  0.1873  1.4162
 4200TIP3    H234092   0.947   5.543  12.791 -0.7635 -0.3301 -1.2068
 4201TIP3   OH234093   2.787   0.243  12.198 -0.0272 -0.2818 -0.2934
 4201TIP3    H134094   2.872   0.212  12.168  0.7294 -0.1384  1.5664
 4201TIP3    H234095   2.726   0.173  12.174  0.0275  0.7807 -4.1294
 4202TIP3   OH234096   3.448   0.291  13.417 -0.6738 -0.0394 -0.2109
 4202TIP3    H134097   3.379   0.252  13.471 -0.0711 -0.8896 -0.0430
 4202TIP3    H234098   3.529   0.252  13.449 -0.4356 -2.2227 -3.0312
 4203TIP3   OH234099   6.751   0.137  16.195  0.5667  0.2702 -0.1442
 4203TIP3    H134100   6.783   0.047  16.202 -3.0853 -1.2220 -0.4007
 4203TIP3    H234101   6.829   0.191  16.209  2.3222 -2.7736  4.1094
 4204TIP3   OH234102   1.509   6.828   5.551  0.3718  0.0406  0.1145
 4204TIP3    H134103   1.518   6.733   5.549  1.1993  0.1128  0.0696
 4204TIP3    H234104   1.575   6.857   5.614  0.9154  0.6606 -0.7163
 4205TIP3   OH234105   2.490   2.048   0.512  0.7346  0.3519 -0.0197
 4205TIP3    H134106   2.535   2.012   0.435  0.2498  1.1917 -0.7057
 4205TIP3    H234107   2.549   2.029   0.585  0.8395 -1.1491 -0.4680
 4206TIP3   OH234108   6.802   0.543  16.155 -0.0338  0.0578  0.2079
 4206TIP3    H134109   6.720   0.499  16.177 -0.0266  0.0640  0.2479
 4206TIP3    H234110   6.781   0.636  16.155  0.2171  0.1295  1.3098
 4207TIP3   OH234111   6.733   0.616   6.217 -0.4602  0.0559 -0.2168
 4207TIP3    H134112   6.747   0.601   6.311  3.6323 -1.2355 -0.8117
 4207TIP3    H234113   6.735   0.711   6.207  1.0858  0.1727  0.8504
 4208TIP3   OH234114   0.881   5.683  12.938 -0.1348 -0.1437 -0.2893
 4208TIP3    H134115   0.966   5.685  12.983  0.4002  1.3338 -1.2888
 4208TIP3    H234116   0.817   5.678  13.009  0.7525 -0.0055  0.5475
 4209TIP3   OH234117   5.293   2.956   3.279  0.1419 -0.7768  0.3361
 4209TIP3    H134118   5.360   3.025   3.275 -0.2185 -0.4228  0.3302
 4209TIP3    H234119   5.340   2.879   3.312  0.7407 -0.7584 -0.4164
 4210TIP3   OH234120   5.566   1.256   3.228 -0.4663  0.4374  0.0203
 4210TIP3    H134121   5.482   1.247   3.183 -0.0910 -0.2483 -0.5584
 4210TIP3    H234122   5.608   1.331   3.184  0.3380 -0.8664 -1.5221
 4211TIP3   OH234123   2.035   5.532   2.017  0.0234  0.1985 -0.3542
 4211TIP3    H134124   1.959   5.535   2.076  0.3146 -0.2177  0.0428
 4211TIP3    H234125   2.023   5.608   1.960  0.3474  1.2908  0.9848
 4212TIP3   OH234126   3.656   3.321  16.470  0.6184  0.1775  1.1254
 4212TIP3    H134127   3.607   3.374  16.533 -0.1618 -0.2724  0.9077
 4212TIP3    H234128   3.689   3.385  16.406 -0.5280  0.3987  0.7250
 4213TIP3   OH234129   2.903   1.562   4.685  0.3329 -0.5448 -0.3655
 4213TIP3    H134130   2.858   1.495   4.737 -1.8432 -1.0646 -2.6774
 4213TIP3    H234131   2.948   1.513   4.616  0.5602  0.2401 -0.7935
 4214TIP3   OH234132   4.076   0.861   5.743 -0.0067  0.1754 -0.5674
 4214TIP3    H134133   4.044   0.777   5.712 -0.6627  1.0154 -2.2953
 4214TIP3    H234134   4.102   0.845   5.833 -3.6785 -0.9901  0.4507
 4215TIP3   OH234135   0.811   5.221  15.368 -0.3745 -0.8191  0.4201
 4215TIP3    H134136   0.728   5.210  15.415  0.0230 -1.3448  1.0206
 4215TIP3    H234137   0.796   5.179  15.284 -1.8564  2.0824 -0.9211
 4216TIP3   OH234138   1.094   0.947   0.756  0.7274  0.4721 -0.0597
 4216TIP3    H134139   1.111   1.001   0.679  0.6497 -0.4418 -0.7397
 4216TIP3    H234140   1.124   0.859   0.730 -0.1327 -0.0359  0.6232
 4217TIP3   OH234141   5.530   5.056   1.463  0.1210  0.1546 -0.2140
 4217TIP3    H134142   5.537   5.146   1.496  1.2133 -0.3613  1.0543
 4217TIP3    H234143   5.619   5.021   1.472 -0.2415 -0.9721 -0.9284
 4218TIP3   OH234144   4.085   5.839  15.268  0.1866  0.2740  0.7038
 4218TIP3    H134145   4.091   5.821  15.174  1.3589  0.8917  0.6363
 4218TIP3    H234146   4.159   5.791  15.306  1.0325  1.7468  1.0063
 4219TIP3   OH234147   2.412   4.151   4.446  0.2234 -0.3107  0.1753
 4219TIP3    H134148   2.367   4.112   4.372  0.0281  1.1027 -0.4716
 4219TIP3    H234149   2.411   4.082   4.513  0.3714 -1.5955 -1.0913
 4220TIP3   OH234150   4.532   3.433  13.880  0.5644  0.0018 -0.5238
 4220TIP3    H134151   4.478   3.360  13.850 -1.8588  1.2569  0.5049
 4220TIP3    H234152   4.573   3.401  13.960 -1.3204  0.0349  0.5151
 4221TIP3   OH234153   6.297   2.408  14.018  0.0905  0.1763 -0.5659
 4221TIP3    H134154   6.310   2.418  14.112 -1.6698  2.9945 -0.5140
 4221TIP3    H234155   6.385   2.405  13.982  0.8527  2.3342  0.9299
 4222TIP3   OH234156   4.204   6.380   2.288 -0.8084  0.6888 -0.2531
 4222TIP3    H134157   4.272   6.405   2.351 -0.8910  0.2095  0.0331
 4222TIP3    H234158   4.146   6.456   2.285 -0.8272  0.7050  0.2844
 4223TIP3   OH234159   6.459   2.991   1.835 -0.1399 -0.0747 -0.1407
 4223TIP3    H134160   6.423   2.969   1.921  0.3935 -1.6004 -0.2734
 4223TIP3    H234161   6.448   2.911   1.784  0.2683  0.5638 -1.2621
 4224TIP3   OH234162   5.354   5.386   3.269  0.5983 -0.0635 -0.2706
 4224TIP3    H134163   5.434   5.334   3.267  0.0823 -1.1261  2.3226
 4224TIP3    H234164   5.296   5.345   3.205  1.1783 -1.0004 -0.2055
 4225TIP3   OH234165   4.863   3.444   2.180  0.1824 -0.1124 -0.1534
 4225TIP3    H134166   4.916   3.515   2.145  0.6679 -0.0361  0.7166
 4225TIP3    H234167   4.843   3.470   2.269  1.8329 -1.8468  0.7909
 4226TIP3   OH234168   4.073   4.973  14.911 -0.2780  0.3704  0.2672
 4226TIP3    H134169   4.111   4.885  14.917 -0.4058  0.3670  1.2163
 4226TIP3    H234170   4.125   5.026  14.972 -0.7650  0.7334  0.3723
 4227TIP3   OH234171   3.051   0.591  14.155  0.1376 -0.2153  0.1729
 4227TIP3    H134172   3.057   0.646  14.076 -1.2998  0.2529  0.3750
 4227TIP3    H234173   3.131   0.538  14.152 -0.1663 -0.6447 -1.9358
 4228TIP3   OH234174   1.659   4.830  12.416  0.2191  0.9917 -0.0568
 4228TIP3    H134175   1.704   4.887  12.479  0.4087 -0.4377  1.1454
 4228TIP3    H234176   1.693   4.743  12.434 -1.4013  0.2146 -0.6127
 4229TIP3   OH234177   4.868   3.542  15.184 -0.3213  0.0655 -0.2865
 4229TIP3    H134178   4.797   3.496  15.228  1.1135 -0.6343  1.4617
 4229TIP3    H234179   4.917   3.473  15.139  0.5517  0.1693  0.4728
 4230TIP3   OH234180   0.331   2.570  12.654  0.4116 -0.4790  0.2223
 4230TIP3    H134181   0.280   2.649  12.637 -0.5213  0.2435  4.9377
 4230TIP3    H234182   0.418   2.590  12.621 -0.4463  1.3954 -1.0770
 4231TIP3   OH234183   2.198   3.734   3.720  0.6440  0.3094  0.5970
 4231TIP3    H134184   2.106   3.757   3.704  0.4858  0.7109  1.9300
 4231TIP3    H234185   2.200   3.705   3.811  1.4364 -1.9962 -0.1046
 4232TIP3   OH234186   0.730   0.518  10.829 -0.9630  0.3606  0.5892
 4232TIP3    H134187   0.748   0.508  10.922  3.4921 -0.3428 -0.1544
 4232TIP3    H234188   0.643   0.480  10.817 -1.4560  0.0040  4.3081
 4233TIP3   OH234189   5.364   5.786  10.963  0.3568 -0.2976  0.5317
 4233TIP3    H134190   5.344   5.879  10.974 -1.1253 -0.1247 -2.5327
 4233TIP3    H234191   5.454   5.784  10.930  0.1641  0.1423 -0.0493
 4234TIP3   OH234192   5.181   3.595  15.618 -0.1511 -0.0759 -0.0073
 4234TIP3    H134193   5.110   3.656  15.597 -0.2934 -0.0309  0.5983
 4234TIP3    H234194   5.224   3.579  15.534 -1.9542 -1.4609 -0.7305
 4235TIP3   OH234195   6.243   4.477   4.511  0.6289  0.4756 -0.4231
 4235TIP3    H134196   6.187   4.529   4.453  2.3304  1.6262 -1.0892
 4235TIP3    H234197   6.210   4.496   4.599 -0.2028  0.9095 -0.8144
 4236TIP3   OH234198   0.605   1.803  12.921 -0.3261  0.9130 -0.2303
 4236TIP3    H134199   0.528   1.808  12.864 -0.1725  1.7787 -0.3710
 4236TIP3    H234200   0.660   1.736  12.881 -1.0201  0.2491 -0.1067
 4237TIP3   OH234201   0.389   5.964  12.751  0.2012 -0.3714  0.1945
 4237TIP3    H134202   0.307   6.010  12.769 -1.3355 -2.9103  0.2453
 4237TIP3    H234203   0.443   5.978  12.828 -0.6498  0.4309  0.6510
 4238TIP3   OH234204   0.393   0.749  10.897  0.2912 -0.0349  0.2165
 4238TIP3    H134205   0.447   0.766  10.819 -1.7877  0.0177 -1.3019
 4238TIP3    H234206   0.455   0.715  10.962  2.3910  1.5046 -0.8640
 4239TIP3   OH234207   4.195   1.979  12.485  0.6717  0.2930 -0.1081
 4239TIP3    H134208   4.182   2.070  12.458 -1.6022  0.5801  1.6716
 4239TIP3    H234209   4.142   1.928  12.423  0.3282  0.3689  0.1242
 4240TIP3   OH234210   0.212   1.834  14.549  0.6835 -0.4923 -0.1613
 4240TIP3    H134211   0.241   1.858  14.636  0.8566 -1.5620  0.0884
 4240TIP3    H234212   0.119   1.858  14.547  1.3568  2.5489 -0.8230
 4241TIP3   OH234213   0.134   4.518   3.264 -0.4486  0.2745  0.0887
 4241TIP3    H134214   0.224   4.491   3.245 -0.2636  0.6491  0.4065
 4241TIP3    H234215   0.086   4.436   3.274  0.0709  0.0510  0.8734
 4242TIP3   OH234216   2.870   4.720  16.390 -0.3212  0.4659 -0.3477
 4242TIP3    H134217   2.863   4.690  16.481 -0.6409 -0.9330 -0.8034
 4242TIP3    H234218   2.780   4.722  16.358 -0.3570  2.3496 -0.2432
 4243TIP3   OH234219   5.434   6.494  16.540 -0.6484  0.6195 -0.0125
 4243TIP3    H134220   5.473   6.486  16.627 -2.8741 -1.1962  0.9174
 4243TIP3    H234221   5.350   6.538  16.554  0.3301  3.3539 -1.7918
 4244TIP3   OH234222   2.215   4.187   2.752 -0.0287  0.3821  0.2086
 4244TIP3    H134223   2.233   4.104   2.708  0.6042  0.2896  0.6277
 4244TIP3    H234224   2.218   4.252   2.682 -1.9396 -0.0961 -0.3692
 4245TIP3   OH234225   2.107   4.262  16.848  0.4386  0.4757  0.6227
 4245TIP3    H134226   2.097   4.177  16.891 -0.6698  0.8955  1.2278
 4245TIP3    H234227   2.072   4.325  16.911 -0.9601  1.1311 -0.7637
 4246TIP3   OH234228   1.976   6.028  16.454  0.2783 -0.0272 -0.4077
 4246TIP3    H134229   2.061   6.070  16.443 -0.1237  1.7974  2.4400
 4246TIP3    H234230   1.962   5.979  16.372  3.4185  0.6705 -1.4850
 4247TIP3   OH234231   2.908   0.799  16.885  0.3079 -0.0666  0.5052
 4247TIP3    H134232   2.883   0.845  16.805  0.4325  0.8719  0.9972
 4247TIP3    H234233   2.827   0.759  16.917 -0.0666  0.9050  0.7773
 4248TIP3   OH234234   1.140   1.379  15.857  0.2958 -0.0665 -0.2627
 4248TIP3    H134235   1.171   1.465  15.830  1.4321 -0.4043 -0.0939
 4248TIP3    H234236   1.159   1.375  15.951 -2.5247  0.6397  0.4353
 4249TIP3   OH234237   6.259   0.508  14.095 -0.3712  0.0514  0.1299
 4249TIP3    H134238   6.320   0.439  14.070 -0.7101 -0.1020 -0.2756
 4249TIP3    H234239   6.297   0.545  14.175  0.6543  0.4563 -0.5275
 4250TIP3   OH234240   5.490   0.825   4.791 -0.4304  0.1197  0.1261
 4250TIP3    H134241   5.403   0.825   4.752  0.2617 -1.4105 -1.5788
 4250TIP3    H234242   5.488   0.755   4.856 -0.4717  0.0892  0.0918
 4251TIP3   OH234243   2.124   2.870  12.264 -0.1901  0.3210 -0.3430
 4251TIP3    H134244   2.213   2.837  12.250 -1.1440 -1.5337 -2.6251
 4251TIP3    H234245   2.129   2.963  12.240  0.7603 -0.1735 -2.2396
 4252TIP3   OH234246   6.725   3.601   2.793  0.5817 -0.1154  0.3017
 4252TIP3    H134247   6.671   3.678   2.812  0.3988 -0.1606 -0.0288
 4252TIP3    H234248   6.742   3.562   2.879  0.0556 -0.1197  0.4065
 4253TIP3   OH234249   2.488   4.262  15.011 -0.0704 -0.8284  0.1129
 4253TIP3    H134250   2.423   4.271  14.942  1.7055 -3.0851 -2.0507
 4253TIP3    H234251   2.479   4.171  15.042  0.0562 -0.2582  1.9497
 4254TIP3   OH234252   2.286   4.390   4.775 -0.0402 -0.0738  0.2701
 4254TIP3    H134253   2.290   4.294   4.775  1.4067 -0.0822  2.4574
 4254TIP3    H234254   2.236   4.412   4.853  2.2990  0.9264  1.6042
 4255TIP3   OH234255   1.949   5.478   3.658  0.1298 -0.2065 -0.1644
 4255TIP3    H134256   1.898   5.422   3.601  1.2296 -1.3129 -0.0906
 4255TIP3    H234257   1.929   5.567   3.628 -1.3352 -0.6323 -0.5250
 4256TIP3   OH234258   6.485   4.271  16.788 -0.4291  0.0179  0.0771
 4256TIP3    H134259   6.512   4.234  16.872 -0.3743 -0.3438 -0.0957
 4256TIP3    H234260   6.392   4.250  16.782 -0.1537 -1.1292 -0.5388
 4257TIP3   OH234261   0.282   3.447  16.098  0.5793 -0.5913  0.1094
 4257TIP3    H134262   0.342   3.463  16.170  0.9063 -1.5077  0.0458
 4257TIP3    H234263   0.221   3.382  16.131 -2.3851  2.4832  1.2932
 4258TIP3   OH234264   2.791   6.497  12.023 -0.4471 -0.1116 -0.1946
 4258TIP3    H134265   2.829   6.565  12.080  0.4363 -0.3441 -0.4884
 4258TIP3    H234266   2.867   6.450  11.988 -0.9436  0.2475 -1.8547
 4259TIP3   OH234267   6.095   1.993   2.727  0.0483 -0.0138  0.0198
 4259TIP3    H134268   6.059   2.055   2.790  0.0687 -0.0080  0.0259
 4259TIP3    H234269   6.150   2.047   2.669 -0.4308  0.0748 -0.3564
 4260TIP3   OH234270   3.102   1.399  15.153  0.7613 -0.3965  0.7207
 4260TIP3    H134271   3.103   1.371  15.244 -0.9609 -0.7184  0.6857
 4260TIP3    H234272   3.115   1.494  15.157 -1.3857 -0.0709  1.5302
 4261TIP3   OH234273   1.029   4.897  11.181 -0.2698  0.1850 -0.5715
 4261TIP3    H134274   1.047   4.810  11.145 -2.6254 -0.8955  0.6329
 4261TIP3    H234275   1.049   4.888  11.274  3.6689  2.3002 -1.0186
 4262TIP3   OH234276   2.004   4.575   5.968  0.1859  0.5972  0.4745
 4262TIP3    H134277   2.087   4.594   6.010  0.2028  0.3682  0.5463
 4262TIP3    H234278   2.001   4.480   5.962  0.8458  0.6480 -1.3571
 4263TIP3   OH234279   6.368   2.256  10.945 -0.3597 -0.5526  0.0617
 4263TIP3    H134280   6.398   2.341  10.912  0.7547 -0.7542  0.4885
 4263TIP3    H234281   6.338   2.209  10.868 -1.0612  0.2580 -0.1644
 4264TIP3   OH234282   1.402   3.378  12.997  0.0130  1.0152  0.2858
 4264TIP3    H134283   1.437   3.314  12.935 -0.4944  1.0392 -0.0324
 4264TIP3    H234284   1.443   3.461  12.970  1.0975  0.7447  1.0433
 4265TIP3   OH234285   3.872   5.970   3.863  0.8677  0.6324  0.1741
 4265TIP3    H134286   3.803   5.905   3.850  0.7593  0.7834 -0.0244
 4265TIP3    H234287   3.873   6.020   3.781  0.9067  0.9185  0.3470
 4266TIP3   OH234288   1.844   3.920   1.861 -0.6417  0.3731 -0.0554
 4266TIP3    H134289   1.829   3.906   1.955 -0.3661  0.2244 -0.0351
 4266TIP3    H234290   1.938   3.910   1.849 -0.8896 -1.5355 -0.6658
 4267TIP3   OH234291   5.121   2.504  11.389  0.2828  0.2214  1.0800
 4267TIP3    H134292   5.032   2.481  11.418 -0.0310  1.8369  1.5217
 4267TIP3    H234293   5.150   2.569  11.453  0.2957  2.5494 -1.1328
 4268TIP3   OH234294   6.348   5.291  13.093 -0.0403 -0.6354 -0.3808
 4268TIP3    H134295   6.384   5.377  13.073 -1.9337 -0.2289 -2.4976
 4268TIP3    H234296   6.380   5.235  13.023 -1.1910 -0.9243 -0.6931
 4269TIP3   OH234297   1.897   4.890  16.787 -0.4012  0.0543 -0.2341
 4269TIP3    H134298   1.959   4.911  16.857  0.1067  3.3405 -1.4779
 4269TIP3    H234299   1.815   4.870  16.834  0.7256 -1.0425  1.3424
 4270TIP3   OH234300   2.373   2.963  17.005 -0.4936  0.1801 -0.3074
 4270TIP3    H134301   2.296   3.013  16.979  0.0232 -0.0999 -2.6767
 4270TIP3    H234302   2.447   3.019  16.983  0.0142 -0.4280 -0.1805
 4271TIP3   OH234303   3.928   3.482  16.740  0.7310  0.5912  0.4637
 4271TIP3    H134304   3.875   3.560  16.722  0.1286  0.3019  0.9645
 4271TIP3    H234305   3.865   3.411  16.750  1.2868 -0.0401 -0.3284
 4272TIP3   OH234306   4.761   2.475   3.469  0.1387 -0.1536  0.2609
 4272TIP3    H134307   4.685   2.424   3.496 -1.2211  0.9439 -1.3194
 4272TIP3    H234308   4.823   2.465   3.541 -1.8685 -0.2881  2.0658
 4273TIP3   OH234309   2.454   0.340   5.929 -0.3839  0.0495 -0.0650
 4273TIP3    H134310   2.503   0.412   5.968 -0.1613 -0.2198  0.1583
 4273TIP3    H234311   2.426   0.287   6.003 -1.3219  0.3864 -0.1627
 4274TIP3   OH234312   1.445   1.407   0.457  0.2577 -0.2310 -0.0098
 4274TIP3    H134313   1.437   1.502   0.449 -2.6969 -0.4242 -0.2850
 4274TIP3    H234314   1.534   1.388   0.426  1.6081  2.5675  1.7228
 4275TIP3   OH234315   5.371   5.169  10.152 -0.0034  0.3372  0.5368
 4275TIP3    H134316   5.313   5.175  10.228 -1.4401  1.8463 -0.6077
 4275TIP3    H234317   5.352   5.084  10.114 -1.4089  0.7488  0.2606
 4276TIP3   OH234318   2.928   0.100  11.683  0.1451  0.0064  0.1888
 4276TIP3    H134319   3.005   0.156  11.694 -0.9805  1.6630 -0.0926
 4276TIP3    H234320   2.903   0.076  11.773 -0.6801  1.8372  0.4788
 4277TIP3   OH234321   0.201   1.233   1.158 -0.0337 -0.0131 -0.0436
 4277TIP3    H134322   0.124   1.248   1.212  0.8347  1.9594  0.7423
 4277TIP3    H234323   0.199   1.302   1.092  0.2198 -0.9186 -1.0284
 4278TIP3   OH234324   6.183   6.728  12.911 -0.1160  0.3161  1.3970
 4278TIP3    H134325   6.231   6.647  12.928 -0.6857  0.1713  2.3761
 4278TIP3    H234326   6.091   6.701  12.906 -0.0680  0.3413 -1.9542
 4279TIP3   OH234327   0.110   1.879  13.648 -0.3064  0.4638 -0.4552
 4279TIP3    H134328   0.059   1.798  13.651 -1.6296  1.2862  1.9882
 4279TIP3    H234329   0.189   1.855  13.599  0.1454 -2.7876  1.5087
 4280TIP3   OH234330   4.411   5.172   3.362  0.1752  0.2406  0.3474
 4280TIP3    H134331   4.340   5.189   3.423  0.7819  0.5262  0.9961
 4280TIP3    H234332   4.439   5.083   3.381 -0.9295 -0.3989 -0.8876
 4281TIP3   OH234333   4.750   5.752   4.305  0.1242  0.4742 -0.7478
 4281TIP3    H134334   4.772   5.756   4.212  2.8422  0.3533 -0.1872
 4281TIP3    H234335   4.826   5.790   4.350 -0.3388 -1.0771  1.5139
 4282TIP3   OH234336   6.478   4.517   4.143  0.2700  0.2302 -0.4870
 4282TIP3    H134337   6.424   4.442   4.170  0.0475 -0.2720 -2.1960
 4282TIP3    H234338   6.475   4.515   4.047 -0.9135  3.2630 -0.6369
 4283TIP3   OH234339   4.453   0.518  11.513  0.0995 -0.8137  0.3557
 4283TIP3    H134340   4.407   0.568  11.580 -0.7722  0.3046 -1.0165
 4283TIP3    H234341   4.529   0.573  11.491 -0.4835 -0.3765 -0.6616
 4284TIP3   OH234342   2.929   1.933  16.598  0.0462 -0.6266  0.2582
 4284TIP3    H134343   2.944   1.873  16.525  0.4366  2.2512 -2.2280
 4284TIP3    H234344   3.004   1.992  16.598 -1.2827  1.2022  1.1317
 4285TIP3   OH234345   3.611   4.770   4.384 -0.0732  0.2098  0.1342
 4285TIP3    H134346   3.646   4.770   4.295  0.5201  0.5143  0.3603
 4285TIP3    H234347   3.591   4.862   4.402 -0.4017  0.1197  0.2401
 4286TIP3   OH234348   0.502   6.269  14.854  0.3665  0.1375  0.3359
 4286TIP3    H134349   0.424   6.305  14.895 -0.4539 -1.4523  0.2406
 4286TIP3    H234350   0.476   6.182  14.825  2.8310 -1.5184  2.6045
 4287TIP3   OH234351   5.194   2.032  13.919  0.2192 -0.3376 -0.5223
 4287TIP3    H134352   5.224   1.941  13.926  0.1219 -0.3768 -0.6107
 4287TIP3    H234353   5.132   2.031  13.846  3.4611  0.6509 -3.5472
 4288TIP3   OH234354   3.419   6.158  11.403 -0.0283 -0.2944 -0.0225
 4288TIP3    H134355   3.425   6.131  11.495  0.5122 -1.3036 -0.3324
 4288TIP3    H234356   3.421   6.254  11.406  3.4387 -0.2608  0.8608
 4289TIP3   OH234357   0.958   6.468   0.095  0.3077  0.5339 -0.4212
 4289TIP3    H134358   0.904   6.505   0.165 -1.6397 -2.5529 -0.0914
 4289TIP3    H234359   0.972   6.541   0.034 -1.7049  2.2239  0.9916
 4290TIP3   OH234360   2.337   2.934   2.556 -0.5192  0.2428  0.5002
 4290TIP3    H134361   2.271   2.865   2.547 -0.0938 -0.5949  3.0866
 4290TIP3    H234362   2.306   3.004   2.499 -2.2255 -1.1558 -0.3837
 4291TIP3   OH234363   4.551   4.048  10.800  0.4421  0.2340  0.1151
 4291TIP3    H134364   4.580   4.138  10.786  2.5522 -0.2068  1.1909
 4291TIP3    H234365   4.632   3.996  10.799 -0.5155 -1.3957  1.3122
 4292TIP3   OH234366   6.277   2.554   3.775 -0.5800 -0.0200  0.1730
 4292TIP3    H134367   6.267   2.610   3.698 -1.7899 -1.1849 -0.5781
 4292TIP3    H234368   6.188   2.525   3.795 -0.4409  1.0554  2.6840
 4293TIP3   OH234369   1.541   1.383   5.910 -0.2326 -0.1963 -0.0306
 4293TIP3    H134370   1.593   1.304   5.927 -1.3474 -0.6769  1.2999
 4293TIP3    H234371   1.474   1.383   5.978 -0.1689  2.0038  0.0967
 4294TIP3   OH234372   0.147   3.878  10.661 -0.4674  0.1081 -0.4688
 4294TIP3    H134373   0.195   3.955  10.629 -0.5488  0.1685 -0.4471
 4294TIP3    H234374   0.213   3.810  10.670 -0.3289  0.2856 -0.1293
 4295TIP3   OH234375   5.041   3.415  15.017 -0.3504 -0.4099  0.2351
 4295TIP3    H134376   4.994   3.467  14.952  0.6177  1.5794  1.0678
 4295TIP3    H234377   5.133   3.421  14.991 -0.1662 -1.3024  0.6513
 4296TIP3   OH234378   4.798   6.385  17.143 -0.4049 -0.1635  0.2019
 4296TIP3    H134379   4.818   6.298  17.109 -0.4217  0.6545 -2.1228
 4296TIP3    H234380   4.851   6.393  17.222  0.7667 -1.6988 -0.3729
 4297TIP3   OH234381   0.987   5.891   3.885  0.1176 -0.5530 -0.2072
 4297TIP3    H134382   1.028   5.977   3.897 -1.2511  0.1271 -0.2142
 4297TIP3    H234383   0.957   5.866   3.973 -1.6438  0.1287 -0.5717
 4298TIP3   OH234384   1.516   4.462   0.729 -0.9946  0.9121 -0.0425
 4298TIP3    H134385   1.471   4.535   0.771 -1.1655  1.4673 -1.1535
 4298TIP3    H234386   1.470   4.384   0.759 -2.1326  1.4140 -0.4547
 4299TIP3   OH234387   3.428   1.218   3.632 -0.1508 -0.1351  0.3117
 4299TIP3    H134388   3.366   1.288   3.609 -1.8302 -0.9464  2.1057
 4299TIP3    H234389   3.489   1.260   3.692  1.4088  0.7670 -1.7483
 4300TIP3   OH234390   2.451   5.561  15.597 -0.5040  0.5457  0.6733
 4300TIP3    H134391   2.375   5.572  15.653  0.1847  0.7494  1.5903
 4300TIP3    H234392   2.434   5.620  15.523 -2.5717 -1.5474 -0.6615
 4301TIP3   OH234393   5.832   1.814  11.368  0.2332  0.0048  0.5183
 4301TIP3    H134394   5.889   1.891  11.367 -0.9817  0.9643 -1.6132
 4301TIP3    H234395   5.773   1.829  11.443  0.4706  0.8013  0.5602
 4302TIP3   OH234396   0.529   0.413  11.852  0.0653  0.2760  0.1379
 4302TIP3    H134397   0.565   0.382  11.935  0.0522 -0.2821 -0.0585
 4302TIP3    H234398   0.501   0.333  11.807 -0.1642  0.5951 -0.2930
 4303TIP3   OH234399   0.341   4.463   4.535  1.3850 -0.0518 -0.5643
 4303TIP3    H134400   0.383   4.497   4.614  1.7977  1.0779 -1.2352
 4303TIP3    H234401   0.395   4.388   4.510  1.7258  0.0668 -0.2059
 4304TIP3   OH234402   0.939   2.225  13.333 -0.7160 -0.9074 -0.0430
 4304TIP3    H134403   0.924   2.156  13.398  0.5445 -1.4115 -0.2681
 4304TIP3    H234404   0.966   2.301  13.384  1.6854 -1.7031 -0.0020
 4305TIP3   OH234405   5.219   3.503  12.542  0.2466 -0.5732  0.2695
 4305TIP3    H134406   5.201   3.527  12.633 -0.1194 -0.9480  0.2947
 4305TIP3    H234407   5.174   3.570  12.490  1.6639  0.5132  0.3662
 4306TIP3   OH234408   0.154   1.859  12.044  0.3820  0.2835 -0.2087
 4306TIP3    H134409   0.218   1.820  12.104 -0.2688  0.1707  0.4331
 4306TIP3    H234410   0.205   1.919  11.990  1.3990 -1.4160 -1.2066
 4307TIP3   OH234411   6.790   3.075   0.274  0.3093  0.2846  0.2236
 4307TIP3    H134412   6.786   3.153   0.218 -0.6412 -0.1463 -0.3245
 4307TIP3    H234413   6.884   3.057   0.284  0.6564  2.4379  1.7025
 4308TIP3   OH234414   0.599   4.991  12.219 -0.1150 -0.0284 -0.0245
 4308TIP3    H134415   0.625   4.923  12.282  1.3557  1.1304  0.6680
 4308TIP3    H234416   0.537   5.046  12.267  0.3843  0.3838  0.1554
 4309TIP3   OH234417   6.723   0.091  16.785  0.2982  0.5693  0.2669
 4309TIP3    H134418   6.794   0.028  16.778  0.4796  0.8223 -0.1970
 4309TIP3    H234419   6.765   0.176  16.769 -0.2544  0.6477 -0.8429
 4310TIP3   OH234420   3.455   1.639  14.679  0.2276  0.2533  0.1661
 4310TIP3    H134421   3.381   1.601  14.631 -1.3331  3.1717  0.0498
 4310TIP3    H234422   3.532   1.607  14.633 -1.0584 -0.5564 -1.5394
 4311TIP3   OH234423   1.444   6.672  13.602 -0.4467  0.2274 -0.6881
 4311TIP3    H134424   1.513   6.731  13.572  0.6498 -0.9169 -0.5159
 4311TIP3    H234425   1.478   6.636  13.684 -0.8844 -0.9530 -1.0055
 4312TIP3   OH234426   0.743   4.810   0.176 -0.3108 -0.0452 -0.0237
 4312TIP3    H134427   0.726   4.742   0.112  0.0147 -0.4497  0.3114
 4312TIP3    H234428   0.661   4.819   0.224 -0.1759 -0.6279  0.3244
 4313TIP3   OH234429   4.477   5.791  11.019  0.1397 -0.5317  0.1791
 4313TIP3    H134430   4.485   5.778  10.925  1.5516 -1.0612  0.3437
 4313TIP3    H234431   4.501   5.883  11.032 -0.2335 -0.4093  0.0034
 4314TIP3   OH234432   2.944   1.388  13.433 -0.5096  0.6791 -0.3095
 4314TIP3    H134433   2.975   1.342  13.355 -0.7469 -2.2738  1.2051
 4314TIP3    H234434   3.023   1.428  13.471  0.2370 -0.7312 -0.3078
 4315TIP3   OH234435   3.646   2.301   3.743 -0.1177 -0.0986 -0.9793
 4315TIP3    H134436   3.709   2.351   3.795 -0.0782 -2.3189  1.3249
 4315TIP3    H234437   3.596   2.367   3.695  0.8712  2.0082  0.7173
 4316TIP3   OH234438   0.028   3.426   4.678  0.5472  0.2951 -0.3052
 4316TIP3    H134439   0.012   3.518   4.698  0.3016  0.1802  0.0354
 4316TIP3    H234440  -0.040   3.379   4.726 -0.1488  0.0219 -1.5107
 4317TIP3   OH234441   2.906   1.326   5.514  0.4011 -0.4236 -0.6348
 4317TIP3    H134442   2.949   1.393   5.461 -0.6959  1.5774  0.8669
 4317TIP3    H234443   2.975   1.293   5.571  0.3651  1.6662  0.7152
 4318TIP3   OH234444   0.241   0.456   2.577  0.6435  0.0036  0.3294
 4318TIP3    H134445   0.260   0.393   2.507  0.4100  0.3233 -0.0232
 4318TIP3    H234446   0.325   0.496   2.597  0.5265  0.7228 -0.5557
 4319TIP3   OH234447   0.944   1.873   0.798 -0.2932 -0.2593  0.3834
 4319TIP3    H134448   0.932   1.959   0.839 -1.6342 -0.0805 -0.3347
 4319TIP3    H234449   1.029   1.879   0.754  0.3107  0.1778  1.5570
 4320TIP3   OH234450   1.804   3.003  11.595  0.3577 -0.1495 -0.4705
 4320TIP3    H134451   1.831   2.925  11.547 -0.0675 -0.3255 -0.4257
 4320TIP3    H234452   1.709   3.000  11.594  0.3382  0.4458 -0.5935
 4321TIP3   OH234453   2.166   6.473   1.016  0.0652 -0.0676  0.5504
 4321TIP3    H134454   2.213   6.501   1.095  0.4148 -1.3421  0.8204
 4321TIP3    H234455   2.126   6.389   1.041 -1.5263  0.4806  0.0006
 4322TIP3   OH234456   0.428   0.876   4.829  0.0545  0.2020 -0.1335
 4322TIP3    H134457   0.450   0.889   4.922 -1.5903 -0.7550  0.4474
 4322TIP3    H234458   0.340   0.915   4.821 -0.5344 -1.2227 -0.8526
 4323TIP3   OH234459   3.599   0.903   6.173  0.0901 -0.1332  0.6561
 4323TIP3    H134460   3.661   0.834   6.151  2.0842  1.4390  1.0610
 4323TIP3    H234461   3.606   0.911   6.268 -1.6382 -0.6892  0.8680
 4324TIP3   OH234462   0.723   5.170  13.274  0.7236 -0.0231  0.2933
 4324TIP3    H134463   0.774   5.237  13.229  1.0375 -0.4813 -0.0435
 4324TIP3    H234464   0.636   5.208  13.283  0.0069 -0.6979 -2.6354
 4325TIP3   OH234465   2.437   4.593  13.407 -0.4091  0.7548  0.6205
 4325TIP3    H134466   2.471   4.646  13.480 -0.9915  0.6778  0.9551
 4325TIP3    H234467   2.383   4.654  13.357 -0.0782  0.7855  0.3003
 4326TIP3   OH234468   6.313   3.896  16.177  0.0115 -0.1229  0.0908
 4326TIP3    H134469   6.285   3.806  16.193  0.4536 -0.2002  0.4637
 4326TIP3    H234470   6.398   3.902  16.221  0.7085  0.0207 -1.2295
 4327TIP3   OH234471   6.805   5.857  16.631  0.5043  1.0111  0.0535
 4327TIP3    H134472   6.710   5.846  16.636  0.1716  3.4020  0.5781
 4327TIP3    H234473   6.831   5.885  16.719  1.7110  0.3811 -0.0770
 4328TIP3   OH234474   5.532   1.518   4.098 -0.0138 -0.3832  0.1291
 4328TIP3    H134475   5.545   1.509   4.192  2.4677 -0.6768 -0.1559
 4328TIP3    H234476   5.621   1.528   4.063 -0.9571  1.3494 -2.0312
 4329TIP3   OH234477   2.464   3.318  15.088  0.3252 -0.3961 -0.1926
 4329TIP3    H134478   2.409   3.271  15.150 -0.2681  0.8418  0.2357
 4329TIP3    H234479   2.501   3.391  15.137  1.1623 -0.3356 -0.8706
 4330TIP3   OH234480   3.962   3.750  17.076 -0.1314  0.2750  0.5306
 4330TIP3    H134481   3.902   3.777  17.146 -0.0549  0.6008  0.4706
 4330TIP3    H234482   3.906   3.742  16.999 -0.3729 -0.9349  0.8171
 4331TIP3   OH234483   0.882   4.925   5.575 -1.0114  0.2038  0.1815
 4331TIP3    H134484   0.832   4.856   5.619 -0.7714  1.0279  1.8260
 4331TIP3    H234485   0.971   4.915   5.608 -0.8848  1.0246  0.1126
 4332TIP3   OH234486   0.946   6.509   5.317  0.0392  0.3823 -0.2577
 4332TIP3    H134487   0.876   6.529   5.379  0.9931  0.9477  0.6950
 4332TIP3    H234488   0.968   6.593   5.277  0.2676  0.2451 -0.4260
 4333TIP3   OH234489   1.082   5.417   6.165 -0.4993  0.2459  0.0744
 4333TIP3    H134490   0.995   5.401   6.129 -0.4794  2.2865 -1.0273
 4333TIP3    H234491   1.074   5.501   6.211  0.4905 -0.3695  1.4496
 4334TIP3   OH234492   4.816   2.814   3.947 -0.3638  0.0978  0.3362
 4334TIP3    H134493   4.727   2.827   3.979 -0.3626  1.0018  0.0096
 4334TIP3    H234494   4.805   2.793   3.855 -0.2019  1.8507 -0.1301
 4335TIP3   OH234495   4.713   2.480  11.741  0.1196 -0.0941  0.3363
 4335TIP3    H134496   4.716   2.433  11.825 -1.2381 -2.5719 -0.8968
 4335TIP3    H234497   4.625   2.517  11.738  0.6052  1.1274  0.5278
 4336TIP3   OH234498   1.337   4.918   2.251 -0.2678  0.1449  0.2150
 4336TIP3    H134499   1.420   4.887   2.216 -0.2085 -0.6309  1.0379
 4336TIP3    H234500   1.317   4.997   2.199  0.4523 -0.2543 -0.6840
 4337TIP3   OH234501   1.164   6.566  12.393  0.1073 -0.4311  0.0983
 4337TIP3    H134502   1.145   6.473  12.397  1.8544 -0.7885  0.8348
 4337TIP3    H234503   1.221   6.576  12.316  1.4490 -0.3037  1.0665
 4338TIP3   OH234504   4.239   5.215  16.848  0.7014  0.3479  0.3578
 4338TIP3    H134505   4.318   5.258  16.878  0.7676  0.2204  0.3666
 4338TIP3    H234506   4.171   5.282  16.855  1.1842  1.1447 -1.6407
 4339TIP3   OH234507   3.404   1.282   4.968 -0.4158 -0.0669  0.1223
 4339TIP3    H134508   3.464   1.235   4.909 -0.0858  0.8773 -0.3079
 4339TIP3    H234509   3.324   1.292   4.916 -0.8902 -1.1086  0.6090
 4340TIP3   OH234510   5.998   6.710  11.091  0.4190 -0.0637  0.3227
 4340TIP3    H134511   6.015   6.707  10.997 -0.6544 -0.7956  0.1343
 4340TIP3    H234512   6.073   6.758  11.127  1.0244 -0.0808 -0.8510
 4341TIP3   OH234513   0.143   1.529  12.497  0.5824 -0.2182 -0.5837
 4341TIP3    H134514   0.146   1.511  12.591 -0.6855  0.2395 -0.4456
 4341TIP3    H234515   0.087   1.605  12.488 -1.3306 -1.6741 -1.9010
 4342TIP3   OH234516   2.521   2.515   5.710 -0.4037  0.1416 -0.4212
 4342TIP3    H134517   2.559   2.580   5.651  0.6424  1.3402  1.4787
 4342TIP3    H234518   2.446   2.560   5.750  1.3776  0.9695  2.2577
 4343TIP3   OH234519   2.067   2.190   1.997 -0.2705 -0.4639 -0.1579
 4343TIP3    H134520   2.146   2.165   2.045 -0.5428 -1.3775 -0.1496
 4343TIP3    H234521   2.085   2.165   1.906  0.4096  1.6521 -0.6659
 4344TIP3   OH234522   5.098   2.613   0.753 -0.2191  0.2982 -0.3578
 4344TIP3    H134523   5.131   2.674   0.687 -0.1343  0.3678 -0.2510
 4344TIP3    H234524   5.129   2.648   0.837  1.5750 -0.9609 -0.4162
 4345TIP3   OH234525   3.036   6.243   6.149 -0.2069  0.7525  0.0312
 4345TIP3    H134526   3.028   6.164   6.095 -0.3657  0.1879  0.8566
 4345TIP3    H234527   2.945   6.267   6.170 -0.1222 -0.2261  1.7085
 4346TIP3   OH234528   1.414   4.912   4.049  0.2124 -0.0521 -0.0430
 4346TIP3    H134529   1.392   4.983   4.108  1.2092  0.3656 -0.1553
 4346TIP3    H234530   1.487   4.945   3.997  2.1741 -1.8767  1.3655
 4347TIP3   OH234531   2.557   3.188   2.286  0.1710 -0.3147  0.3006
 4347TIP3    H134532   2.515   3.251   2.345  2.2931  2.3349 -0.8007
 4347TIP3    H234533   2.485   3.146   2.239 -1.3539  1.9121  0.5326
 4348TIP3   OH234534   4.198   1.210   3.911 -0.6005 -0.3172 -0.4568
 4348TIP3    H134535   4.171   1.301   3.926 -1.6160 -0.8112  0.8896
 4348TIP3    H234536   4.122   1.158   3.933  0.8049 -1.6490  1.6327
 4349TIP3   OH234537   2.474   5.903   0.053  0.2518  0.0672 -0.4616
 4349TIP3    H134538   2.414   5.946   0.114  0.7547  1.2541 -0.7794
 4349TIP3    H234539   2.427   5.824   0.025 -0.7449  0.4642  0.0429
 4350TIP3   OH234540   1.751   3.106  13.121 -0.9916 -0.4519  0.3262
 4350TIP3    H134541   1.743   3.201  13.120 -0.5993 -0.4153  0.5941
 4350TIP3    H234542   1.732   3.081  13.211  0.2719 -0.5041  0.5947
 4351TIP3   OH234543   4.954   2.029  13.271  0.5702  0.0046 -0.0383
 4351TIP3    H134544   4.960   1.963  13.201  0.0648 -0.4734  0.3572
 4351TIP3    H234545   5.042   2.032  13.308  0.6468 -0.3199 -0.1787
 4352TIP3   OH234546   6.219   1.858  14.119 -0.4679  0.0154  0.4028
 4352TIP3    H134547   6.286   1.922  14.097  0.3394  0.0063  2.6141
 4352TIP3    H234548   6.136   1.902  14.099  0.1218  0.9758  0.0119
 4353TIP3   OH234549   1.852   2.378  10.583 -0.4278 -0.2085 -0.0889
 4353TIP3    H134550   1.830   2.427  10.504  0.8791  1.2981  0.4309
 4353TIP3    H234551   1.919   2.430  10.626  0.0503 -1.7991  1.2140
 4354TIP3   OH234552   0.574   4.086   0.689  0.4677 -0.4134  0.6468
 4354TIP3    H134553   0.510   4.081   0.618  0.1769  1.0950  0.7897
 4354TIP3    H234554   0.552   4.011   0.745 -1.5123  0.3460  0.9637
 4355TIP3   OH234555   5.812   2.805  12.232 -0.5839  0.0850 -0.3285
 4355TIP3    H134556   5.785   2.810  12.324 -1.4540  2.7191 -0.6409
 4355TIP3    H234557   5.732   2.822  12.183  0.0358 -0.4499 -1.5765
 4356TIP3   OH234558   6.756   1.740  13.959 -0.3272 -0.2697  0.3793
 4356TIP3    H134559   6.752   1.753  14.053 -2.9669 -0.2917  0.3458
 4356TIP3    H234560   6.676   1.691  13.938  0.9060 -1.5519 -1.6919
 4357TIP3   OH234561   4.842   5.588  15.190  0.0654  0.3487  0.3335
 4357TIP3    H134562   4.781   5.642  15.140  1.0957  0.0994 -1.2816
 4357TIP3    H234563   4.924   5.638  15.192  0.5750 -0.4492  0.1639
 4358TIP3   OH234564   6.834   2.048   1.966 -0.5715  0.3685 -0.3698
 4358TIP3    H134565   6.842   2.103   1.888 -2.8922  1.4215  0.0537
 4358TIP3    H234566   6.784   1.972   1.936  3.2001 -2.0857 -1.1260
 4359TIP3   OH234567   0.083   3.045  13.985 -0.1555  0.1100 -0.2933
 4359TIP3    H134568   0.157   3.104  13.968 -0.1062  1.1390  2.9189
 4359TIP3    H234569   0.123   2.962  14.010 -0.2342 -0.8430 -2.9251
 4360TIP3   OH234570   2.870   0.068   5.706 -0.2366  0.0080  0.4147
 4360TIP3    H134571   2.807   0.131   5.741 -2.6608 -1.1206 -1.5476
 4360TIP3    H234572   2.866  -0.006   5.767  0.7487  0.7137  1.3714
 4361TIP3   OH234573   2.430   3.431  11.100 -0.4238  0.6294  0.0553
 4361TIP3    H134574   2.443   3.348  11.054 -1.1789  0.7978 -0.4878
 4361TIP3    H234575   2.484   3.424  11.179  0.9097  0.3436 -0.8619
 4362TIP3   OH234576   5.211   0.039   2.958 -0.2860  0.1958 -0.5343
 4362TIP3    H134577   5.284  -0.003   2.912 -0.9081 -0.4384 -0.9532
 4362TIP3    H234578   5.176   0.102   2.894 -0.7129 -0.1908 -0.6850
 4363TIP3   OH234579   2.627   0.112   5.119  0.2307  0.4289 -0.4768
 4363TIP3    H134580   2.565   0.131   5.189  1.0715  2.0247 -0.1160
 4363TIP3    H234581   2.578   0.129   5.038 -0.8648 -1.8081 -0.3356
 4364TIP3   OH234582   2.726   1.370  15.822  0.1824  0.3294  0.4870
 4364TIP3    H134583   2.783   1.428  15.771  0.0356  0.3363  0.3278
 4364TIP3    H234584   2.642   1.416  15.826 -0.1132 -0.1383 -0.1558
 4365TIP3   OH234585   1.178   4.253  11.755 -0.3973 -0.0066 -0.2481
 4365TIP3    H134586   1.132   4.170  11.768 -0.0055 -0.4998 -1.7806
 4365TIP3    H234587   1.258   4.229  11.707  0.3368  1.1106  0.3706
 4366TIP3   OH234588   0.045   2.167   4.900  0.1127  0.3130  0.0739
 4366TIP3    H134589   0.084   2.133   4.980  1.4764  1.0834 -0.2329
 4366TIP3    H234590   0.039   2.262   4.914  1.3752  0.5932 -1.1281
 4367TIP3   OH234591   4.596   2.906  15.075  0.0085 -0.3780  0.1751
 4367TIP3    H134592   4.567   2.856  15.152  0.3616 -1.0413 -0.1203
 4367TIP3    H234593   4.622   2.991  15.111  2.8998 -1.6053  1.2432
 4368TIP3   OH234594   2.499   6.594  11.167  0.0354  0.7604 -0.3224
 4368TIP3    H134595   2.531   6.531  11.103  1.4017  0.8542  0.2521
 4368TIP3    H234596   2.405   6.601  11.149 -0.0639 -1.1073 -0.6661
 4369TIP3   OH234597   0.605   4.449  15.320 -0.3535 -0.4584  0.3578
 4369TIP3    H134598   0.693   4.444  15.356  0.0153  0.3395 -0.4154
 4369TIP3    H234599   0.604   4.385  15.249 -0.3106 -0.2592  0.1789
 4370TIP3   OH234600   6.512   0.456   2.776 -0.2841  0.1999  0.8137
 4370TIP3    H134601   6.464   0.529   2.814  0.1375  0.6689  0.4626
 4370TIP3    H234602   6.455   0.423   2.706  1.0146  2.5855 -1.5720
 4371TIP3   OH234603   1.389   3.989   5.346  0.5124  0.4751 -0.0317
 4371TIP3    H134604   1.301   4.002   5.312  0.0078 -0.4350  0.8609
 4371TIP3    H234605   1.432   4.074   5.335  0.2570  0.3593 -2.4664
 4372TIP3   OH234606   3.618   2.206   2.856 -0.1894  0.1922 -0.1827
 4372TIP3    H134607   3.692   2.147   2.844  0.3118  0.8916 -0.6191
 4372TIP3    H234608   3.601   2.205   2.951 -2.4523 -3.3242 -0.4203
 4373TIP3   OH234609   5.537   2.694  14.269  0.5504 -0.2274  0.3046
 4373TIP3    H134610   5.623   2.654  14.257  0.8558  0.4827  0.1254
 4373TIP3    H234611   5.488   2.669  14.191 -0.0463 -2.1920  1.2143
 4374TIP3   OH234612   1.136   4.674  11.611 -0.4980  0.0235 -0.3204
 4374TIP3    H134613   1.230   4.662  11.625 -0.2777  2.9538  1.3804
 4374TIP3    H234614   1.121   4.644  11.521  1.7402 -1.8247 -0.1584
 4375TIP3   OH234615   2.665   6.391  11.326 -0.2164 -0.0824 -0.2149
 4375TIP3    H134616   2.676   6.443  11.405  0.9559  0.0041 -0.4205
 4375TIP3    H234617   2.637   6.454  11.259 -0.6569 -0.0615 -0.0178
 4376TIP3   OH234618   3.149   3.719   3.229  0.2515  0.1015  0.6231
 4376TIP3    H134619   3.238   3.754   3.217  0.6044 -1.5631 -3.1741
 4376TIP3    H234620   3.163   3.629   3.259 -0.1451 -0.0758  0.2764
 4377TIP3   OH234621   1.109   5.995  14.462 -0.1472  0.1047  0.4403
 4377TIP3    H134622   1.091   6.024  14.552  0.4117 -0.5731  0.7891
 4377TIP3    H234623   1.095   5.900  14.465 -0.2898  0.1049 -0.2357
 4378TIP3   OH234624   6.475   0.189   3.223  0.8015 -0.2531  0.2830
 4378TIP3    H134625   6.407   0.238   3.176  0.7389 -0.6424 -0.0416
 4378TIP3    H234626   6.426   0.133   3.284  0.8621 -0.0554  0.5116
 4379TIP3   OH234627   3.605   5.945   3.192 -0.2470 -0.6478 -0.1368
 4379TIP3    H134628   3.673   5.907   3.136 -0.9835 -2.3636  0.0718
 4379TIP3    H234629   3.588   5.878   3.258 -1.4859  0.1250  0.3704
 4380TIP3   OH234630   5.791   3.958  12.491  0.0068  0.5585  0.1915
 4380TIP3    H134631   5.855   3.890  12.469 -0.9896 -0.2284 -0.3802
 4380TIP3    H234632   5.840   4.040  12.488  0.4150  0.3126 -3.0107
 4381TIP3   OH234633   4.234   4.882   3.411  0.1704  0.1355  0.5602
 4381TIP3    H134634   4.236   4.932   3.330 -0.3089  0.7195  0.8956
 4381TIP3    H234635   4.296   4.811   3.397  0.2630  0.3583 -0.2291
 4382TIP3   OH234636   3.751   4.520   4.408 -0.2076  0.6984  0.0683
 4382TIP3    H134637   3.701   4.596   4.436  0.0105  0.9080 -0.1017
 4382TIP3    H234638   3.833   4.556   4.373 -0.2756  0.4140 -0.4023
 4383TIP3   OH234639   5.653   4.626   1.101  0.5568  0.2719 -0.3307
 4383TIP3    H134640   5.608   4.704   1.131  0.6317  0.1808  0.0351
 4383TIP3    H234641   5.732   4.622   1.155  1.0399  0.4750 -1.0183
 4384TIP3   OH234642   3.423   1.280  15.703  0.3047 -0.3536 -0.9711
 4384TIP3    H134643   3.403   1.203  15.649  0.9852 -2.4002  1.5128
 4384TIP3    H234644   3.500   1.255  15.753 -0.4155  1.2957  1.1292
 4385TIP3   OH234645   2.300   4.514  14.851 -0.3387 -0.0919 -0.0229
 4385TIP3    H134646   2.296   4.563  14.770  0.4881 -0.2169 -0.1470
 4385TIP3    H234647   2.300   4.422  14.824  2.3405 -0.1719 -0.0771
 4386TIP3   OH234648   6.056   1.467  13.845 -0.6059  0.1008 -0.9756
 4386TIP3    H134649   5.997   1.542  13.841 -1.0881 -0.1692  0.4563
 4386TIP3    H234650   6.120   1.490  13.912 -0.5012 -0.5980 -0.8246
 4387TIP3   OH234651   3.000   3.068  16.064  0.2051  0.1437  0.0091
 4387TIP3    H134652   3.003   2.993  16.123 -2.3136  0.6900  0.9621
 4387TIP3    H234653   3.074   3.123  16.091  1.7447 -1.6440 -0.3416
 4388TIP3   OH234654   2.211   0.870  13.182  0.3715 -0.1676  0.1755
 4388TIP3    H134655   2.224   0.956  13.143 -2.5085  0.2340 -0.1393
 4388TIP3    H234656   2.235   0.808  13.113  1.3382  0.3745  0.0040
 4389TIP3   OH234657   5.923   1.362   2.482 -0.3519  0.0260  0.5264
 4389TIP3    H134658   5.882   1.436   2.436 -2.0289  1.5305  4.0372
 4389TIP3    H234659   6.016   1.382   2.482 -0.7944  2.4226  1.6657
 4390TIP3   OH234660   6.362   3.858   5.605  0.0886 -0.3325  0.0783
 4390TIP3    H134661   6.309   3.786   5.641 -0.3659  0.1198  0.3329
 4390TIP3    H234662   6.439   3.863   5.662 -0.6005  0.3418  0.9834
 4391TIP3   OH234663   5.032   2.845   6.180  0.1614 -0.1329  0.0058
 4391TIP3    H134664   5.099   2.819   6.117  0.0734  0.4412 -0.3340
 4391TIP3    H234665   5.056   2.935   6.205  0.4200 -0.4844  1.0858
 4392TIP3   OH234666   4.109   6.200  15.967  0.6559 -0.6127 -0.2207
 4392TIP3    H134667   4.030   6.152  15.945  0.7085 -0.4792 -0.7172
 4392TIP3    H234668   4.159   6.204  15.885 -0.7225  2.8782 -1.0894
 4393TIP3   OH234669   5.739   4.858   4.978  0.8385 -0.3402  0.1438
 4393TIP3    H134670   5.798   4.895   5.044 -0.6522  0.1439  1.2743
 4393TIP3    H234671   5.792   4.796   4.929  2.5754  0.9187  0.3504
 4394TIP3   OH234672   5.358   2.603  14.764 -0.2718 -0.2898 -0.4630
 4394TIP3    H134673   5.372   2.647  14.680 -1.2250 -0.6787 -0.8441
 4394TIP3    H234674   5.432   2.543  14.772  0.6604  0.8335 -0.2780
 4395TIP3   OH234675   2.595   1.973   0.022 -0.2358  0.0077 -0.7002
 4395TIP3    H134676   2.640   2.000  -0.058 -2.5781  2.3352 -1.3582
 4395TIP3    H234677   2.633   2.027   0.091 -0.1707  0.0362 -0.7592
 4396TIP3   OH234678   5.281   5.254  11.749 -0.2837 -0.4694 -0.0617
 4396TIP3    H134679   5.332   5.218  11.677  1.7597  0.1989  0.9833
 4396TIP3    H234680   5.304   5.201  11.825 -0.9498  0.0141  0.4951
 4397TIP3   OH234681   1.182   2.795   0.954  1.1053 -0.0873 -0.4547
 4397TIP3    H134682   1.109   2.744   0.989  0.4259  1.5077  0.6030
 4397TIP3    H234683   1.221   2.739   0.888 -1.8954 -0.5449 -2.0513
 4398TIP3   OH234684   6.402   6.470  15.666 -0.8618 -0.4074 -0.6680
 4398TIP3    H134685   6.441   6.548  15.705  0.7671 -0.7025 -1.6001
 4398TIP3    H234686   6.472   6.405  15.669 -0.9763 -0.7278 -3.1266
 4399TIP3   OH234687   1.946   6.737  13.381 -0.2260  0.0088 -0.1831
 4399TIP3    H134688   1.915   6.828  13.391 -1.2399 -0.5841  4.3256
 4399TIP3    H234689   2.015   6.743  13.316 -0.6196  3.9313 -0.5124
 4400TIP3   OH234690   4.079   1.448   4.583 -0.3058 -0.5106  0.1548
 4400TIP3    H134691   4.099   1.472   4.674 -0.6723  0.2975  0.0314
 4400TIP3    H234692   4.141   1.500   4.531 -1.3126  0.4476 -0.1339
 4401TIP3   OH234693   2.206   2.715  16.047  0.1103  0.4880  0.1446
 4401TIP3    H134694   2.137   2.767  16.006  1.1350  2.3830  0.7159
 4401TIP3    H234695   2.194   2.627  16.012 -2.7089  0.6981  0.3931
 4402TIP3   OH234696   1.577   5.545  16.677  0.8115  0.4900  0.5406
 4402TIP3    H134697   1.516   5.595  16.624 -0.1510 -1.8963 -0.7706
 4402TIP3    H234698   1.571   5.583  16.764 -0.8562  1.7455 -0.0946
 4403TIP3   OH234699   2.823   4.091   6.344 -0.0193  0.7472  0.0605
 4403TIP3    H134700   2.748   4.055   6.297 -0.0451  1.9457 -0.8695
 4403TIP3    H234701   2.784   4.136   6.419 -0.1205  0.2890  0.2853
 4404TIP3   OH234702   2.235   1.697  16.409 -0.4639  0.0007  0.3713
 4404TIP3    H134703   2.199   1.632  16.349 -0.2554  0.0435  0.1941
 4404TIP3    H234704   2.305   1.651  16.455  1.1356  0.6478 -1.2670
 4405TIP3   OH234705   0.439   1.474  13.962 -0.1600 -0.5093  0.7898
 4405TIP3    H134706   0.378   1.529  13.914 -0.8739 -1.0406  1.0764
 4405TIP3    H234707   0.415   1.486  14.054 -2.1388 -3.3138  0.7646
 4406TIP3   OH234708   4.903   2.803  13.096  0.2743  0.0455 -0.5713
 4406TIP3    H134709   4.971   2.743  13.127  0.5410  0.9476  0.6344
 4406TIP3    H234710   4.833   2.745  13.065  0.7703 -0.8859 -0.0024
 4407TIP3   OH234711   0.269   1.962   3.777  1.2335  0.8680  0.3091
 4407TIP3    H134712   0.261   2.057   3.790  0.4515  1.1473 -1.8806
 4407TIP3    H234713   0.182   1.935   3.746  1.6949 -0.4210  0.1049
 4408TIP3   OH234714   0.753   4.469  14.361 -0.4938  0.0110 -0.0338
 4408TIP3    H134715   0.745   4.451  14.455 -1.6265 -2.0417 -0.4550
 4408TIP3    H234716   0.667   4.500  14.336 -0.0305  1.0919 -0.3125
 4409TIP3   OH234717   2.871   0.516  16.117 -0.0181  0.1985 -0.2737
 4409TIP3    H134718   2.912   0.511  16.204 -0.2426  1.3863 -0.0859
 4409TIP3    H234719   2.895   0.433  16.075 -0.2865 -0.5969  1.0837
 4410TIP3   OH234720   5.998   5.846  16.946 -0.1167  0.1207  0.0047
 4410TIP3    H134721   6.032   5.796  17.020  0.6088  1.1652  0.4019
 4410TIP3    H234722   5.976   5.780  16.880  0.7560 -0.7151  0.5309
 4411TIP3   OH234723   0.974   6.257  13.828  0.4262 -0.3929  0.0196
 4411TIP3    H134724   1.053   6.243  13.881  0.0142  1.8696  1.3486
 4411TIP3    H234725   0.902   6.228  13.885  0.0118  1.6675  0.6089
 4412TIP3   OH234726   2.826   3.697   4.799 -0.2477 -0.5575 -0.4677
 4412TIP3    H134727   2.906   3.644   4.795  0.7666  0.9645 -1.7784
 4412TIP3    H234728   2.811   3.711   4.893  1.1276 -0.7502 -0.1918
 4413TIP3   OH234729   0.416   4.342  16.370 -0.2823  0.0252 -0.2159
 4413TIP3    H134730   0.499   4.312  16.333 -1.3675 -1.6590 -1.4467
 4413TIP3    H234731   0.388   4.413  16.311  0.2989  0.6813  0.2722
 4414TIP3   OH234732   2.748   4.463   4.514 -0.3582 -0.6641  0.0950
 4414TIP3    H134733   2.741   4.418   4.429 -0.8555 -2.4452  1.0196
 4414TIP3    H234734   2.659   4.490   4.535 -0.1341  0.3686 -0.2283
 4415TIP3   OH234735   1.987   1.265   3.583  0.7001  0.7202  0.6210
 4415TIP3    H134736   1.917   1.313   3.628  0.7420  0.3178  1.1349
 4415TIP3    H234737   2.000   1.187   3.637  0.3068 -0.1072 -0.4505
 4416TIP3   OH234738   3.966   2.871  12.887 -0.1424  0.1616  0.9394
 4416TIP3    H134739   3.953   2.965  12.878  1.8750  0.3045 -1.7962
 4416TIP3    H234740   3.894   2.832  12.836  0.8472  0.4104 -0.7366
 4417TIP3   OH234741   3.641   4.362  15.431  0.0349  0.1170 -0.0043
 4417TIP3    H134742   3.614   4.337  15.519 -1.6045 -2.1276 -1.0432
 4417TIP3    H234743   3.560   4.390  15.388  0.6632  0.4209 -1.0274
 4418TIP3   OH234744   6.507   0.462  15.496 -0.1993 -0.1831  0.5174
 4418TIP3    H134745   6.587   0.425  15.457 -1.3286 -0.6340 -1.4670
 4418TIP3    H234746   6.492   0.408  15.574 -0.1303 -2.0047 -0.6720
 4419TIP3   OH234747   5.608   2.588  16.363 -0.1859 -0.7248 -0.5690
 4419TIP3    H134748   5.540   2.648  16.333 -1.1481 -1.5076 -0.0103
 4419TIP3    H234749   5.649   2.632  16.437 -0.4682 -0.5027 -0.5439
 4420TIP3   OH234750   0.529   2.290  12.102 -0.8222 -0.0445 -0.3497
 4420TIP3    H134751   0.575   2.370  12.075 -0.8200  0.4510  1.0275
 4420TIP3    H234752   0.592   2.242  12.155 -0.9897 -0.7306 -0.7624
 4421TIP3   OH234753   3.703   2.557   0.016  0.2195 -0.7484 -0.0417
 4421TIP3    H134754   3.780   2.504   0.038 -0.3004 -1.4328  0.1798
 4421TIP3    H234755   3.629   2.506   0.049 -0.4662 -0.9848 -1.8365
 4422TIP3   OH234756   4.984   3.457  10.881 -0.1070  0.2032  0.2396
 4422TIP3    H134757   4.893   3.468  10.910 -0.4002 -1.6910  0.1590
 4422TIP3    H234758   4.977   3.413  10.796  0.8757  0.1974  0.1554
 4423TIP3   OH234759   3.368   3.853   4.898  0.5730  0.3157  0.2482
 4423TIP3    H134760   3.414   3.884   4.821  0.2952 -1.3087 -0.6172
 4423TIP3    H234761   3.285   3.819   4.864 -1.1218  2.7283  1.7029
 4424TIP3   OH234762   4.748   5.752   2.996  0.3827 -0.6276  0.2095
 4424TIP3    H134763   4.658   5.722   3.007  1.2777 -2.5025  3.8688
 4424TIP3    H234764   4.781   5.705   2.919 -1.1371 -1.4801  0.0618
 4425TIP3   OH234765   1.217   4.122   0.191  0.1532  0.2093 -0.4837
 4425TIP3    H134766   1.312   4.137   0.190  0.1863  0.3387 -3.4306
 4425TIP3    H234767   1.180   4.209   0.207  0.5478  0.5313 -1.2253
 4426TIP3   OH234768   1.378   1.793   1.932 -0.1570  0.0449  0.1965
 4426TIP3    H134769   1.360   1.831   1.846  4.7630 -1.2706 -1.7145
 4426TIP3    H234770   1.441   1.853   1.972  1.6598 -1.9568  0.5077
 4427TIP3   OH234771   4.403   3.163   5.247  0.2210  0.0164 -0.2945
 4427TIP3    H134772   4.336   3.219   5.285  0.7190  0.1724  0.3679
 4427TIP3    H234773   4.485   3.212   5.257  0.7899 -1.1175  0.9789
 4428TIP3   OH234774   3.115   3.166  11.590  0.3020 -0.0010 -0.2939
 4428TIP3    H134775   3.081   3.142  11.504 -0.9027  0.8007 -0.0704
 4428TIP3    H234776   3.210   3.171  11.578  0.3332 -1.7162 -1.1021
 4429TIP3   OH234777   4.261   2.492  14.605 -0.6023  0.2378  0.0266
 4429TIP3    H134778   4.352   2.473  14.629 -0.5933  1.2870  0.8788
 4429TIP3    H234779   4.265   2.571  14.552 -1.0207  0.2874  0.0607
 4430TIP3   OH234780   2.755   2.478   0.025 -0.4653 -0.3337  0.7970
 4430TIP3    H134781   2.736   2.562   0.066 -2.7457 -0.6950  0.5813
 4430TIP3    H234782   2.836   2.449   0.067 -0.8478  0.9216  2.5174
 4431TIP3   OH234783   2.642   2.093  16.929  0.3161  0.3753 -0.4288
 4431TIP3    H134784   2.582   2.152  16.974  0.9238  1.1038 -0.5595
 4431TIP3    H234785   2.586   2.039  16.874 -0.3294  0.2146  0.3712
 4432TIP3   OH234786   6.350   5.249   2.676 -0.2512 -0.3303  0.0522
 4432TIP3    H134787   6.351   5.168   2.625  0.8208 -0.5334  0.3822
 4432TIP3    H234788   6.356   5.221   2.767 -0.6885  0.0941  0.2181
 4433TIP3   OH234789   1.673   5.219   1.113  0.1518  0.2379  0.3251
 4433TIP3    H134790   1.587   5.228   1.155  0.3589  0.5471  0.6862
 4433TIP3    H234791   1.693   5.126   1.120  0.1551  0.2749  0.8629
 4434TIP3   OH234792   5.348   5.935  12.962  0.1476  0.4528 -0.3276
 4434TIP3    H134793   5.284   5.955  12.894 -1.0203 -1.0226  0.2831
 4434TIP3    H234794   5.432   5.961  12.924 -0.4966 -0.0102 -2.2089
 4435TIP3   OH234795   2.292   5.932   3.747 -0.7783  0.6708 -0.0161
 4435TIP3    H134796   2.318   5.907   3.836 -1.5118 -0.7395 -0.1636
 4435TIP3    H234797   2.222   5.996   3.759 -1.9361 -0.6343  0.4784
 4436TIP3   OH234798   3.399   6.268  13.978 -0.5429  0.4187 -0.6150
 4436TIP3    H134799   3.370   6.291  13.890  0.0051  0.6680 -0.7348
 4436TIP3    H234800   3.481   6.316  13.989 -0.5032  0.2204 -0.0491
 4437TIP3   OH234801   0.312   0.744   3.841 -0.4608 -0.0896 -0.0094
 4437TIP3    H134802   0.229   0.700   3.860 -0.1097 -0.2205  1.3309
 4437TIP3    H234803   0.353   0.756   3.927  0.9189 -0.0599 -0.6395
 4438TIP3   OH234804   5.640   2.252  14.375 -0.1767 -0.5407  0.4828
 4438TIP3    H134805   5.726   2.212  14.363  0.0942 -0.1968  1.1997
 4438TIP3    H234806   5.613   2.280  14.288  1.0786  0.6496  0.4487
 4439TIP3   OH234807   2.475   5.593   5.255  0.0140  0.0878 -0.2470
 4439TIP3    H134808   2.513   5.585   5.167 -0.7321  1.6998 -0.7461
 4439TIP3    H234809   2.381   5.579   5.241 -0.3037  1.7472  0.0285
 4440TIP3   OH234810   4.166   4.507   4.474  0.3827  0.0186  0.0869
 4440TIP3    H134811   4.169   4.521   4.569  0.2656 -0.1350  0.1132
 4440TIP3    H234812   4.157   4.412   4.464 -1.2108  0.1514 -0.0415
 4441TIP3   OH234813   0.729   0.768   0.746 -0.3548  0.4907  0.2843
 4441TIP3    H134814   0.771   0.720   0.818  0.7979 -0.3379 -0.8831
 4441TIP3    H234815   0.797   0.828   0.715  0.0257 -0.7949 -1.5661
 4442TIP3   OH234816   1.222   5.927  16.960  0.1907  0.2104  0.0335
 4442TIP3    H134817   1.225   5.981  17.039 -1.5397  1.5694 -0.7661
 4442TIP3    H234818   1.129   5.906  16.948  0.3091  0.5945 -1.9828
 4443TIP3   OH234819   1.796   6.493  11.832 -0.7971  0.1048  0.4488
 4443TIP3    H134820   1.846   6.447  11.900 -1.0142 -1.7509 -0.5771
 4443TIP3    H234821   1.803   6.436  11.755 -1.7413  1.4538 -0.6701
 4444TIP3   OH234822   4.562   4.612   5.421  0.3626  0.1005  0.6809
 4444TIP3    H134823   4.516   4.695   5.410  1.4490  0.7186  0.6371
 4444TIP3    H234824   4.636   4.617   5.361 -0.8655 -1.9471 -1.1663
 4445TIP3   OH234825   0.698   3.847   2.678 -0.7762 -0.4372 -0.0425
 4445TIP3    H134826   0.617   3.816   2.719 -1.5419 -0.2960 -1.3970
 4445TIP3    H234827   0.731   3.772   2.629  0.4709 -0.7931  1.2896
 4446TIP3   OH234828   2.711   6.003   2.475 -0.5819  0.2213 -0.2011
 4446TIP3    H134829   2.730   5.990   2.382 -0.4245  0.9811 -0.2772
 4446TIP3    H234830   2.715   6.097   2.488  2.0563  0.0376  1.1271
 4447TIP3   OH234831   2.048   1.663   2.449  0.0478  0.2492 -0.2835
 4447TIP3    H134832   1.957   1.650   2.477  0.1142  0.8796  0.2595
 4447TIP3    H234833   2.101   1.636   2.524  0.3604 -1.1280 -0.9798
 4448TIP3   OH234834   1.797   6.346  11.622 -0.2149 -0.0330  0.4385
 4448TIP3    H134835   1.803   6.251  11.615 -0.2154 -0.1254  1.6107
 4448TIP3    H234836   1.883   6.378  11.595 -0.8301 -0.2108 -2.0141
 4449TIP3   OH234837   4.182   5.539  15.786 -0.0707  0.3603 -0.0663
 4449TIP3    H134838   4.126   5.603  15.743  1.3416  1.7779  0.0915
 4449TIP3    H234839   4.271   5.572  15.772  0.7323 -1.7595 -0.2508
 4450TIP3   OH234840   6.378   3.293  15.971  0.1747 -0.0106 -0.2096
 4450TIP3    H134841   6.369   3.379  15.932 -1.2720  0.1866  0.5032
 4450TIP3    H234842   6.434   3.307  16.048  0.3781  0.1888 -0.3945
 4451TIP3   OH234843   5.214   2.063  11.013 -0.1455  0.2505  0.1352
 4451TIP3    H134844   5.255   1.979  10.991  2.3913  1.5447 -0.5285
 4451TIP3    H234845   5.149   2.042  11.079 -0.7106 -2.4296 -1.1346
 4452TIP3   OH234846   5.982   1.825   2.548  0.1681  0.6692 -0.2410
 4452TIP3    H134847   5.900   1.800   2.590 -0.5356  1.5706 -1.0593
 4452TIP3    H234848   6.010   1.904   2.594  0.7098  0.2306  0.1942
 4453TIP3   OH234849   0.059   3.903   6.074  0.3509 -0.7571 -0.1693
 4453TIP3    H134850   0.067   3.817   6.032 -1.4738 -1.2665  0.4287
 4453TIP3    H234851  -0.005   3.949   6.020 -0.3318 -0.5934  0.7691
 4454TIP3   OH234852   2.760   0.849  13.547  0.1403  0.8979  0.4270
 4454TIP3    H134853   2.695   0.918  13.559  0.1313  0.7526  1.2756
 4454TIP3    H234854   2.747   0.819  13.457 -0.1421  1.7027  0.1857
 4455TIP3   OH234855   4.611   1.604  16.918  0.3325 -0.7472 -0.0253
 4455TIP3    H134856   4.587   1.540  16.852 -2.6024 -0.6998  0.8817
 4455TIP3    H234857   4.626   1.685  16.869 -0.1659 -1.1046 -0.7769
 4456TIP3   OH234858   6.484   1.478  12.773  0.0250  0.3748 -0.1364
 4456TIP3    H134859   6.505   1.565  12.739  1.6638 -0.2399 -0.8075
 4456TIP3    H234860   6.507   1.418  12.702 -0.3319 -0.6716  0.5998
 4457TIP3   OH234861   1.900   6.775   2.147 -0.0625 -0.6994  0.0090
 4457TIP3    H134862   1.957   6.819   2.084 -0.3137 -0.7624 -0.2611
 4457TIP3    H234863   1.812   6.783   2.111 -0.3132 -0.0529  0.7413
 4458TIP3   OH234864   4.902   0.089   3.088  0.3439  0.2432  0.1389
 4458TIP3    H134865   4.986   0.097   3.132  0.5198 -3.7920  0.9484
 4458TIP3    H234866   4.837   0.084   3.158 -0.1631  0.1215 -0.3236
 4459TIP3   OH234867   0.148   4.064  10.281 -0.5690 -0.4580 -0.2839
 4459TIP3    H134868   0.139   4.045  10.374  0.0035  1.4561  0.2028
 4459TIP3    H234869   0.109   3.988  10.237 -0.5675 -1.5331  1.4924
 4460TIP3   OH234870   4.617   0.512   4.149 -0.5068  0.0176  0.3302
 4460TIP3    H134871   4.646   0.484   4.236 -0.5284 -0.6606  0.1243
 4460TIP3    H234872   4.534   0.556   4.164 -1.0431 -1.0231  0.5546
 4461TIP3   OH234873   4.043   5.256  13.298  0.1321 -0.0009  0.4560
 4461TIP3    H134874   4.121   5.307  13.276  0.1302  0.1476  0.7939
 4461TIP3    H234875   4.034   5.265  13.393  0.9895 -1.8378  0.7561
 4462TIP3   OH234876   3.660   1.699  11.952 -0.1355  0.1174  0.1196
 4462TIP3    H134877   3.634   1.743  12.033  0.8760  0.7454  0.1200
 4462TIP3    H234878   3.619   1.613  11.958  1.3010 -0.5098  2.1397
 4463TIP3   OH234879   3.401   3.111   5.028  0.2994  0.4278 -0.2820
 4463TIP3    H134880   3.307   3.106   5.012  0.3684 -1.7469 -0.2989
 4463TIP3    H234881   3.440   3.056   4.960  1.5651  1.0050 -0.0519
 4464TIP3   OH234882   3.226   4.324  13.547 -0.2215 -0.4316 -0.1370
 4464TIP3    H134883   3.319   4.340  13.564  0.1492 -0.5204 -1.9191
 4464TIP3    H234884   3.193   4.409  13.518 -0.5646 -0.5477 -0.0827
 4465TIP3   OH234885   4.458   0.625  16.254 -0.1179 -0.0195 -0.2350
 4465TIP3    H134886   4.494   0.582  16.332 -0.1705 -0.4583 -0.4459
 4465TIP3    H234887   4.463   0.718  16.273  2.2868  0.0320 -0.7449
 4466TIP3   OH234888   2.998   1.444  11.516  0.7608 -0.4772  0.2607
 4466TIP3    H134889   2.976   1.430  11.424 -1.2625  2.4556  0.1642
 4466TIP3    H234890   3.040   1.531  11.517 -3.1105  1.6336  2.4287
 4467TIP3   OH234891   6.555   6.670   2.166 -0.4473  0.0439  0.1204
 4467TIP3    H134892   6.484   6.607   2.171  0.0058 -0.4943 -0.1442
 4467TIP3    H234893   6.630   6.620   2.133  0.2390  0.4482  1.0198
 4468TIP3   OH234894   3.894   3.165   0.235 -0.3859  0.1407  0.3364
 4468TIP3    H134895   3.950   3.233   0.273 -0.8216 -0.0145  1.2963
 4468TIP3    H234896   3.841   3.134   0.308  0.5135 -1.9613  0.1811
 4469TIP3   OH234897   0.935   5.103   2.157 -0.1627  0.0137 -0.6508
 4469TIP3    H134898   0.933   5.144   2.071 -2.4668  1.3202 -0.0512
 4469TIP3    H234899   0.986   5.163   2.212  0.7859 -0.5189 -0.9192
 4470TIP3   OH234900   5.917   3.838   2.773 -0.4025 -0.1988 -0.1588
 4470TIP3    H134901   5.842   3.853   2.830  0.4152  2.2980  0.3783
 4470TIP3    H234902   5.917   3.912   2.712 -0.4286 -2.0535 -2.5694
 4471TIP3   OH234903   0.557   6.051  16.630  0.4870 -0.7855 -0.3000
 4471TIP3    H134904   0.598   6.134  16.606  0.0529 -0.8078 -1.1404
 4471TIP3    H234905   0.573   6.044  16.725 -0.1763  0.6491 -0.0508
 4472TIP3   OH234906   2.805   3.571  12.243 -0.3376  0.6358 -0.2761
 4472TIP3    H134907   2.872   3.520  12.197  0.0079 -1.1214  1.9619
 4472TIP3    H234908   2.842   3.658  12.252  0.7128  0.2797 -0.9747
 4473TIP3   OH234909   3.222   1.743  12.646  0.5323 -0.5291 -0.3389
 4473TIP3    H134910   3.149   1.682  12.659  0.3415 -0.0516  0.9926
 4473TIP3    H234911   3.287   1.717  12.712  0.1113  1.1691  0.8103
 4474TIP3   OH234912   5.541   2.832   1.143 -0.2275  0.4051  0.3188
 4474TIP3    H134913   5.520   2.844   1.050 -0.9387 -2.0174  0.1027
 4474TIP3    H234914   5.502   2.908   1.187 -1.7140  0.5256 -1.1165
 4475TIP3   OH234915   3.340   5.820   1.853 -0.2705 -0.3449 -0.0576
 4475TIP3    H134916   3.347   5.785   1.764 -0.9814  0.1321 -0.3121
 4475TIP3    H234917   3.247   5.839   1.863 -0.1025  0.1361  0.5874
 4476TIP3   OH234918   3.815   2.479  11.882  0.2646  0.1777  0.4395
 4476TIP3    H134919   3.848   2.390  11.891 -1.0142 -0.8101 -2.8712
 4476TIP3    H234920   3.721   2.468  11.867 -0.3492  2.3215  2.1811
 4477TIP3   OH234921   2.949   4.672  11.656 -0.6946  0.1356 -1.0172
 4477TIP3    H134922   2.925   4.580  11.668  0.4357 -0.0506  0.0607
 4477TIP3    H234923   3.040   4.678  11.687 -0.7943  1.6414 -0.9127
 4478TIP3   OH234924   0.687   2.175  13.235  0.3226  0.1511 -0.2184
 4478TIP3    H134925   0.615   2.233  13.261  0.5177  0.4462 -0.3391
 4478TIP3    H234926   0.759   2.197  13.293  0.1330 -0.5677  0.3115
 4479TIP3   OH234927   4.992   4.424   4.990 -0.1229 -0.4255 -1.0588
 4479TIP3    H134928   5.049   4.491   4.953  1.1847 -0.9361 -0.0239
 4479TIP3    H234929   4.932   4.473   5.047  0.7384 -0.0999 -0.4114
 4480TIP3   OH234930   1.595   1.938   2.615 -0.2092  0.1940 -0.3196
 4480TIP3    H134931   1.609   2.015   2.559 -1.9221  1.1576  0.5133
 4480TIP3    H234932   1.665   1.878   2.589  0.0576  1.2569 -2.3284
 4481TIP3   OH234933   5.643   5.647   4.345  0.6596 -0.6191 -0.5664
 4481TIP3    H134934   5.556   5.662   4.383  1.4882 -1.3659  1.7578
 4481TIP3    H234935   5.660   5.726   4.294 -0.4011  0.6214  0.8990
 4482TIP3   OH234936   0.278   0.145  10.610  0.7403  0.4472  0.2678
 4482TIP3    H134937   0.233   0.087  10.671  0.9676  0.7145  0.7023
 4482TIP3    H234938   0.239   0.231  10.625  0.3032  0.3841 -0.4746
 4483TIP3   OH234939   6.718   0.925   3.960  0.0591 -0.1035 -0.1374
 4483TIP3    H134940   6.628   0.890   3.957  0.6457 -1.6332 -0.7312
 4483TIP3    H234941   6.729   0.952   4.051 -1.2472  0.7913 -0.2174
 4484TIP3   OH234942   0.266   0.797   2.037  0.4592  0.0573 -1.0594
 4484TIP3    H134943   0.284   0.815   1.945  0.6186  1.6755 -0.7527
 4484TIP3    H234944   0.288   0.879   2.081 -1.7441  0.0561  0.1486
 4485TIP3   OH234945   1.779   4.835  11.075 -0.0977 -0.3744 -0.1811
 4485TIP3    H134946   1.847   4.775  11.104 -0.0114 -0.5527 -0.7336
 4485TIP3    H234947   1.706   4.821  11.135  0.5280  0.1760  0.7214
 4486TIP3   OH234948   5.283   2.188   1.738  0.1278 -0.1165  0.0290
 4486TIP3    H134949   5.217   2.124   1.711  0.4758 -0.2127 -0.5953
 4486TIP3    H234950   5.238   2.272   1.732 -0.5411 -0.3270  1.4843
 4487TIP3   OH234951   3.975   1.509   1.420 -0.0375  0.0294 -0.0085
 4487TIP3    H134952   4.004   1.569   1.352 -2.3046  0.2618 -0.8397
 4487TIP3    H234953   3.886   1.536   1.441  0.5192 -0.1240  3.0084
 4488TIP3   OH234954   5.945   2.418  14.409  0.3033 -0.0407 -0.0838
 4488TIP3    H134955   5.961   2.500  14.455 -1.9924  0.0933  0.6228
 4488TIP3    H234956   5.909   2.360  14.477  0.5342 -1.1457 -0.8822
 4489TIP3   OH234957   3.917   6.587  11.609  0.2027  0.4085 -0.4029
 4489TIP3    H134958   3.924   6.587  11.514  0.4346 -0.9163 -0.4002
 4489TIP3    H234959   3.831   6.549  11.627  1.3029 -2.0785 -0.0569
 4490TIP3   OH234960   1.406   1.285   0.971 -0.0244 -0.0605 -0.3253
 4490TIP3    H134961   1.395   1.191   0.955  3.9422 -1.0072  1.3266
 4490TIP3    H234962   1.462   1.316   0.899  1.2757  0.2401  0.7668
 4491TIP3   OH234963   4.972   1.531  11.415  0.3999 -0.2695 -0.2054
 4491TIP3    H134964   4.942   1.460  11.472  2.0704 -1.4682 -0.7566
 4491TIP3    H234965   5.002   1.599  11.475 -0.2321 -0.4455  0.3254
 4492TIP3   OH234966   5.204   2.730  13.005 -0.3074 -0.2111  0.3971
 4492TIP3    H134967   5.228   2.761  13.092  1.0925  0.8024 -0.3168
 4492TIP3    H234968   5.207   2.635  13.011 -1.6582 -0.2131  1.8126
 4493TIP3   OH234969   6.801   1.411   6.098 -0.6570 -0.4930  0.1983
 4493TIP3    H134970   6.741   1.486   6.103 -0.7201 -0.4796 -0.6959
 4493TIP3    H234971   6.820   1.391   6.190  0.1519  1.2551  0.4516
 4494TIP3   OH234972   4.402   2.808  11.380  0.3706 -0.2462  0.4763
 4494TIP3    H134973   4.344   2.879  11.407 -2.2929 -2.0611 -0.0902
 4494TIP3    H234974   4.453   2.845  11.308 -2.5118  0.5862 -1.3286
 4495TIP3   OH234975   6.214   5.375  11.402  0.5122  0.0854 -0.5940
 4495TIP3    H134976   6.128   5.333  11.395  0.7632 -1.2256  2.6342
 4495TIP3    H234977   6.269   5.308  11.443  2.0897  2.1128  0.7594
 4496TIP3   OH234978   1.308   3.774  10.776 -0.2442 -0.2817  0.0983
 4496TIP3    H134979   1.288   3.744  10.865 -0.2450 -1.7967 -0.4023
 4496TIP3    H234980   1.390   3.730  10.754 -0.0449  0.3910 -0.5221
 4497TIP3   OH234981   2.485   1.028  15.637 -0.0555 -0.1256  0.3887
 4497TIP3    H134982   2.430   1.103  15.615 -1.4489 -1.1767  0.1480
 4497TIP3    H234983   2.514   0.993  15.553 -0.6740 -0.7532  0.4285
 4498TIP3   OH234984   5.703   5.097  16.990  0.1049 -0.6221 -0.8171
 4498TIP3    H134985   5.700   5.057  17.077  1.5733 -0.2826 -0.5878
 4498TIP3    H234986   5.629   5.158  16.989  0.6747  0.1199  0.5834
 4499TIP3   OH234987   1.681   3.890  12.686  0.1144 -0.0677 -0.3489
 4499TIP3    H134988   1.689   3.961  12.749  2.3626  0.3636 -1.0261
 4499TIP3    H234989   1.733   3.919  12.611 -1.6083 -1.0213 -2.0000
 4500TIP3   OH234990   0.463   3.401  12.074  0.5607  0.3540 -0.0912
 4500TIP3    H134991   0.385   3.372  12.122 -0.1999  0.5712 -1.1513
 4500TIP3    H234992   0.522   3.327  12.078  0.3122  0.1832  0.7366
 4501TIP3   OH234993   5.458   4.422  10.582  0.1534  0.1557 -0.5274
 4501TIP3    H134994   5.407   4.483  10.529  0.9328  2.3238  1.0366
 4501TIP3    H234995   5.409   4.415  10.664 -0.1066 -1.6716 -0.8108
 4502TIP3   OH234996   0.301   0.040  14.205  0.2909  0.0662  0.5354
 4502TIP3    H134997   0.270   0.062  14.293  0.2426  2.7519 -0.0470
 4502TIP3    H234998   0.395   0.059  14.206  0.2603  0.2855 -0.0312
 4503TIP3   OH234999   0.836   2.107  13.958  0.5652  0.1935 -0.5892
 4503TIP3    H135000   0.822   2.027  13.908  0.9458 -0.4040  0.2236
 4503TIP3    H235001   0.909   2.150  13.915  0.2302  0.2116 -1.1518
 4504TIP3   OH235002   0.444   3.692   2.434 -0.0156  0.1928  0.6875
 4504TIP3    H135003   0.444   3.783   2.466 -0.5772  0.8002 -0.9638
 4504TIP3    H235004   0.527   3.683   2.388 -0.8491  0.5473 -0.9355
 4505TIP3   OH235005   0.593   4.869   5.120 -0.2776  0.1632  0.7544
 4505TIP3    H135006   0.638   4.935   5.173 -1.3437  0.1199  1.7570
 4505TIP3    H235007   0.551   4.811   5.184  0.5386 -1.4443 -0.1062
 4506TIP3   OH235008   5.890   0.105  13.649 -0.4495 -0.1650  0.0757
 4506TIP3    H135009   5.946   0.081  13.723  0.1691 -1.0005 -0.6426
 4506TIP3    H235010   5.826   0.166  13.686  1.4873  1.5856  0.7514
 4507TIP3   OH235011   2.237   5.494   1.791 -0.5894 -0.8835  0.2994
 4507TIP3    H135012   2.230   5.461   1.881 -0.2073  0.1568  0.7207
 4507TIP3    H235013   2.194   5.579   1.793  0.5965 -0.2580 -0.1868
 4508TIP3   OH235014   1.800   1.493  13.690  0.1009 -0.0152 -0.1638
 4508TIP3    H135015   1.887   1.505  13.652 -0.3350 -0.5703 -1.3861
 4508TIP3    H235016   1.741   1.492  13.615 -0.8122 -1.0099  0.5340
 4509TIP3   OH235017   0.246   1.572  13.785  0.3334  0.4569 -0.0300
 4509TIP3    H135018   0.162   1.554  13.742  0.0944 -0.4955  0.7768
 4509TIP3    H235019   0.236   1.660  13.821 -0.0727  0.6112 -0.5074
 4510TIP3   OH235020   3.259   4.192  15.034 -0.6972  0.4702  0.0059
 4510TIP3    H135021   3.218   4.278  15.045  1.3537  1.3972  0.8491
 4510TIP3    H235022   3.332   4.192  15.095  0.0136 -1.4696 -0.7711
 4511TIP3   OH235023   1.770   2.307   5.760  0.7391  0.2924 -0.5109
 4511TIP3    H135024   1.802   2.238   5.818 -1.7789 -1.8094 -1.4287
 4511TIP3    H235025   1.731   2.372   5.819  0.0159 -0.8140  0.2582
 4512TIP3   OH235026   1.912   2.052   1.076 -0.5744  0.3792 -0.2410
 4512TIP3    H135027   1.881   1.965   1.052  0.4248 -0.8828  2.6200
 4512TIP3    H235028   1.833   2.105   1.083 -1.5800 -1.1851  1.1104
 4513TIP3   OH235029   6.186   4.123  12.091 -0.0251  0.2561  0.2451
 4513TIP3    H135030   6.217   4.033  12.079  1.2959  0.7000  0.1237
 4513TIP3    H235031   6.266   4.175  12.094 -0.8118  1.7328 -1.9678
 4514TIP3   OH235032   4.359   0.768  17.099  0.5938  0.1044  0.1260
 4514TIP3    H135033   4.368   0.842  17.159 -0.4798 -1.6295  2.5906
 4514TIP3    H235034   4.266   0.766  17.077  0.8451  0.2452 -1.0060
 4515TIP3   OH235035   2.206   6.757  10.369  0.5364  0.3284  0.2591
 4515TIP3    H135036   2.133   6.700  10.391  0.1648  1.0969  1.0230
 4515TIP3    H235037   2.284   6.705  10.389  0.2212 -0.6298 -0.9092
 4516TIP3   OH235038   2.875   0.911   2.786 -0.1855  0.3180  0.3100
 4516TIP3    H135039   2.905   1.001   2.781  1.8357 -0.3801 -1.5155
 4516TIP3    H235040   2.795   0.908   2.733  1.1297  0.5780 -1.7903
 4517TIP3   OH235041   4.795   5.254   4.676  0.1059  0.5395  0.2467
 4517TIP3    H135042   4.770   5.184   4.616 -0.6792  0.6868  0.3910
 4517TIP3    H235043   4.848   5.211   4.743  0.2378  0.2200 -0.0604
 4518TIP3   OH235044   0.471   5.969   2.803 -0.9147 -0.0470  0.1404
 4518TIP3    H135045   0.531   6.015   2.862 -0.3005  1.5717 -1.6485
 4518TIP3    H235046   0.476   5.877   2.832  0.5869  0.4154  1.5442
 4519TIP3   OH235047   1.743   4.203   2.029  0.0699  0.1927  0.0591
 4519TIP3    H135048   1.673   4.144   1.999 -0.6614  0.7328  0.6766
 4519TIP3    H235049   1.772   4.165   2.112 -0.0853  0.4508  0.2308
 4520TIP3   OH235050   2.234   0.064   5.865 -0.0045  0.4074 -0.4420
 4520TIP3    H135051   2.242   0.099   5.777  1.4024 -0.3297 -0.6335
 4520TIP3    H235052   2.178  -0.013   5.856  0.9827 -0.2802 -0.9035
 4521TIP3   OH235053   4.096   0.575  13.663  0.5429 -0.3280  0.2052
 4521TIP3    H135054   4.094   0.571  13.759  0.7883 -0.7633  0.1989
 4521TIP3    H235055   4.004   0.583  13.637  0.5558  1.0411  0.5113
 4522TIP3   OH235056   0.652   4.076   4.300  0.3980  0.5174 -0.0461
 4522TIP3    H135057   0.714   4.099   4.232  1.8831  0.7043  1.3036
 4522TIP3    H235058   0.631   4.159   4.342  1.5231  0.1470  1.3390
 4523TIP3   OH235059   2.856   3.201  14.334 -0.5588 -0.6081  0.0173
 4523TIP3    H135060   2.906   3.141  14.278  0.0157 -0.4540  0.3646
 4523TIP3    H235061   2.765   3.188  14.307 -0.5371 -2.1788  0.5851
 4524TIP3   OH235062   0.460   0.429   0.794 -0.1363 -0.0775  0.7094
 4524TIP3    H135063   0.468   0.478   0.876 -0.8457 -0.8408  1.2617
 4524TIP3    H235064   0.480   0.492   0.726 -0.1657  0.7449  1.4398
 4525TIP3   OH235065   2.925   3.417  16.338 -0.0521  0.0909  0.1495
 4525TIP3    H135066   2.959   3.498  16.376 -1.5466  0.4763  0.7055
 4525TIP3    H235067   2.967   3.411  16.252  0.1560  1.3860  0.1531
 4526TIP3   OH235068   1.106   6.292   4.511  0.3765 -0.2933  0.6982
 4526TIP3    H135069   1.186   6.313   4.559 -0.8798  0.8669  2.3986
 4526TIP3    H235070   1.071   6.215   4.555  1.0807 -1.4763 -0.7429
 4527TIP3   OH235071   4.112   0.228   5.352 -0.1789 -0.1154  0.0890
 4527TIP3    H135072   4.057   0.192   5.283 -0.3566  1.6159 -0.7196
 4527TIP3    H235073   4.185   0.270   5.306  0.6840 -0.4943  1.0561
 4528TIP3   OH235074   4.192   4.181  13.779 -0.0371  0.0042  0.0763
 4528TIP3    H135075   4.113   4.127  13.769 -0.6684  1.0336 -0.6178
 4528TIP3    H235076   4.202   4.190  13.873 -1.9313  1.5073  0.2009
 4529TIP3   OH235077   1.903   6.006  10.847  0.0926  0.7480  0.0438
 4529TIP3    H135078   1.868   5.991  10.759 -1.6068  0.5983  0.7032
 4529TIP3    H235079   1.903   5.920  10.888  0.3721  0.8974  0.3621
 4530TIP3   OH235080   0.746   2.447   4.556 -0.2451  0.8375  0.5788
 4530TIP3    H135081   0.805   2.483   4.622  3.1470 -0.0029 -1.7326
 4530TIP3    H235082   0.727   2.358   4.585  2.9191 -0.2739 -0.3930
 4531TIP3   OH235083   4.380   5.853   4.799 -0.4460  0.3486 -0.0499
 4531TIP3    H135084   4.350   5.902   4.722  1.1080  1.8252  0.2204
 4531TIP3    H235085   4.463   5.814   4.772 -0.4018  0.0202  0.5455
 4532TIP3   OH235086   3.482   2.395   1.477 -0.1478 -0.0696  0.0896
 4532TIP3    H135087   3.572   2.420   1.500 -0.6031  1.0057  0.8176
 4532TIP3    H235088   3.478   2.301   1.491  0.7058 -0.0329  0.6337
 4533TIP3   OH235089   6.451   5.265  16.492 -0.3471 -0.0711  0.2192
 4533TIP3    H135090   6.501   5.346  16.487 -0.0573 -0.3109 -1.3997
 4533TIP3    H235091   6.411   5.266  16.579  2.5267  0.0978  1.6468
 4534TIP3   OH235092   5.171   5.049   0.399  0.3879 -0.1104 -0.2421
 4534TIP3    H135093   5.076   5.042   0.412  0.5410 -2.2943  0.0773
 4534TIP3    H235094   5.189   4.993   0.324  1.3042  1.1784 -1.0071
 4535TIP3   OH235095   6.260   5.863  11.950 -0.0531  0.0859 -0.3533
 4535TIP3    H135096   6.176   5.848  11.905  0.2829 -1.8179 -0.4427
 4535TIP3    H235097   6.312   5.786  11.927  1.0628  0.3505  1.2080
 4536TIP3   OH235098   4.319   5.332   1.505  0.5388  0.1041  0.1677
 4536TIP3    H135099   4.395   5.301   1.455  0.6364 -0.4000  0.6183
 4536TIP3    H235100   4.243   5.298   1.458  0.4103  3.1686 -2.0702
 4537TIP3   OH235101   6.333   3.352  16.938  0.0565  0.0933  0.0029
 4537TIP3    H135102   6.384   3.285  16.983 -1.0390 -0.3973  0.5411
 4537TIP3    H235103   6.398   3.401  16.887  0.9928 -0.8083  0.2938
 4538TIP3   OH235104   1.913   1.944   3.237 -0.1493 -0.2778  0.2697
 4538TIP3    H135105   1.863   1.915   3.161  0.1235 -1.3104  0.4648
 4538TIP3    H235106   1.852   1.935   3.311  0.5570 -2.4247  0.6501
 4539TIP3   OH235107   1.424   6.688   4.200 -0.2218  0.4649 -0.8290
 4539TIP3    H135108   1.497   6.705   4.140 -0.5352  1.2230 -1.0027
 4539TIP3    H235109   1.390   6.775   4.222 -0.1293  0.1984  0.4284
 4540TIP3   OH235110   5.287   6.526  11.179  0.2402 -0.5195 -0.6680
 4540TIP3    H135111   5.316   6.435  11.188  1.0603 -0.1763  0.2304
 4540TIP3    H235112   5.243   6.528  11.094 -1.1778 -2.1164 -0.0331
 4541TIP3   OH235113   1.356   6.229   3.232 -0.3495 -0.2807 -0.6352
 4541TIP3    H135114   1.310   6.245   3.150  0.1074  0.1552 -0.8138
 4541TIP3    H235115   1.297   6.260   3.300 -0.3202  0.2925 -0.8642
 4542TIP3   OH235116   6.382   3.720  13.520 -0.6142  0.4057 -0.5020
 4542TIP3    H135117   6.460   3.672  13.548 -0.2471 -0.1068 -2.2810
 4542TIP3    H235118   6.309   3.674  13.562 -0.0687  0.0979  0.1364
 4543TIP3   OH235119   0.960   2.071   1.757 -0.0691 -0.0170 -0.1600
 4543TIP3    H135120   0.882   2.097   1.807  0.1577 -0.7064  0.5717
 4543TIP3    H235121   0.925   2.039   1.674 -0.5866 -0.4130  0.2015
 4544TIP3   OH235122   6.795   2.410   2.917 -0.2655  0.0893 -0.2682
 4544TIP3    H135123   6.717   2.458   2.946 -0.0477  0.6477 -0.6065
 4544TIP3    H235124   6.827   2.459   2.842  0.3952 -0.1611 -0.1524
 4545TIP3   OH235125   2.299   1.343  16.003  0.2558 -0.0701  0.2842
 4545TIP3    H135126   2.365   1.302  16.058  1.1207 -0.5991 -1.1133
 4545TIP3    H235127   2.244   1.392  16.064 -0.3729 -2.6546  1.9555
 4546TIP3   OH235128   4.152   3.145   0.419  0.1038 -0.0423  0.5253
 4546TIP3    H135129   4.225   3.085   0.435 -2.6168 -3.9544 -0.4394
 4546TIP3    H235130   4.160   3.168   0.326 -0.2743 -1.0703  0.2305
 4547TIP3   OH235131   2.165   3.503   3.880 -0.8035  0.1920  0.0862
 4547TIP3    H135132   2.079   3.462   3.894 -1.4768  1.9147  1.3931
 4547TIP3    H235133   2.193   3.470   3.794 -1.6312 -2.2830  0.6699
 4548TIP3   OH235134   1.646   3.481   1.664  0.0068 -0.1124  0.0915
 4548TIP3    H135135   1.632   3.511   1.753 -1.2621 -0.0116 -0.1229
 4548TIP3    H235136   1.661   3.387   1.672 -0.6411 -0.1995  0.3869
 4549TIP3   OH235137   3.386   3.950   3.792  0.1652  0.5245 -0.1139
 4549TIP3    H135138   3.308   3.895   3.787  0.9924 -0.7512  0.5009
 4549TIP3    H235139   3.459   3.890   3.778  1.1092  1.4042  0.8277
 4550TIP3   OH235140   2.055   5.533  11.236  0.7872 -0.1872 -0.1446
 4550TIP3    H135141   2.027   5.462  11.294 -2.4273  1.3178  0.3311
 4550TIP3    H235142   2.031   5.503  11.148  0.1912 -0.0576 -0.0321
 4551TIP3   OH235143   2.914   2.782  11.791  0.1396  0.2009 -0.8829
 4551TIP3    H135144   2.876   2.709  11.742 -0.1707 -0.2481  0.0018
 4551TIP3    H235145   3.007   2.780  11.768  0.8085 -2.4784  1.4773
 4552TIP3   OH235146   4.864   5.288   3.367  0.3463  1.2034 -0.8251
 4552TIP3    H135147   4.769   5.299   3.361  0.3430  0.6483 -2.1119
 4552TIP3    H235148   4.876   5.195   3.386  0.6497  0.9615 -2.1159
 4553TIP3   OH235149   4.986   2.549   3.666  0.3275  0.8242 -0.1774
 4553TIP3    H135150   4.948   2.524   3.750  0.4106  0.7507 -0.1618
 4553TIP3    H235151   5.070   2.504   3.663  0.9427  1.8953  0.3030
 4554TIP3   OH235152   5.427   2.763   1.835 -0.4089  0.2273  0.8695
 4554TIP3    H135153   5.481   2.684   1.840 -1.6064 -0.6791  0.2146
 4554TIP3    H235154   5.449   2.812   1.914  0.5238 -0.6642  1.1869
 4555TIP3   OH235155   0.615   5.885  16.430  0.1024  0.2918 -0.1644
 4555TIP3    H135156   0.616   5.942  16.506 -0.4404  0.8237 -0.5544
 4555TIP3    H235157   0.607   5.944  16.355 -1.2737 -0.3208 -0.5297
 4556TIP3   OH235158   4.565   5.153  11.077 -0.0310  0.5543  0.1017
 4556TIP3    H135159   4.559   5.237  11.123 -1.2588 -0.2017  1.4337
 4556TIP3    H235160   4.639   5.163  11.017 -0.4310  2.7280 -0.1092
 4557TIP3   OH235161   1.600   0.638  15.040 -0.2613 -0.0463 -0.4246
 4557TIP3    H135162   1.567   0.555  15.005  0.5695 -0.4896 -0.1554
 4557TIP3    H235163   1.603   0.625  15.135  1.0393 -0.1396 -0.4727
 4558TIP3   OH235164   1.471   3.586   5.237  0.6214 -0.1696 -0.1498
 4558TIP3    H135165   1.378   3.608   5.235  0.5318 -0.5128  0.1363
 4558TIP3    H235166   1.514   3.662   5.197  0.3192  0.5409  0.8172
 4559TIP3   OH235167   3.883   0.567  11.175 -0.5897  0.0237  0.2305
 4559TIP3    H135168   3.952   0.581  11.239 -2.2735  0.0678  2.1283
 4559TIP3    H235169   3.926   0.581  11.090  1.8857 -0.7379  1.2687
 4560TIP3   OH235170   1.393   3.939  11.849  0.3684 -0.6286 -0.0507
 4560TIP3    H135171   1.428   3.881  11.917  0.4467  1.1766  1.5415
 4560TIP3    H235172   1.466   3.954  11.790  0.1801 -2.5751 -0.8663
 4561TIP3   OH235173   6.142   6.597  11.338  0.6404  0.4560 -0.3279
 4561TIP3    H135174   6.175   6.685  11.319  3.1218 -0.3926 -0.3002
 4561TIP3    H235175   6.123   6.598  11.432 -0.4142  1.2529 -0.5340
 4562TIP3   OH235176   5.506   6.787   3.496 -0.1135  0.2909 -0.3653
 4562TIP3    H135177   5.581   6.843   3.516  0.2286 -0.2422 -0.1174
 4562TIP3    H235178   5.513   6.714   3.558 -0.8430  0.2354 -0.3335
 4563TIP3   OH235179   1.124   5.562   3.737  0.2844 -0.2461 -0.3833
 4563TIP3    H135180   1.096   5.492   3.678 -0.2167 -0.1460 -0.2742
 4563TIP3    H235181   1.137   5.518   3.821 -2.8473  0.1897  0.4629
 4564TIP3   OH235182   5.240   5.157  15.168 -0.2538  0.0370 -0.7093
 4564TIP3    H135183   5.226   5.236  15.221 -0.1134 -1.2837  1.4210
 4564TIP3    H235184   5.334   5.156  15.151 -0.0785 -0.2346  0.2329
 4565TIP3   OH235185   1.791   4.143   0.183  0.9741  0.1274 -0.6269
 4565TIP3    H135186   1.828   4.225   0.215 -1.4476  1.3627 -0.7617
 4565TIP3    H235187   1.789   4.085   0.259 -0.3381  1.3869  0.3458
 4566TIP3   OH235188   5.409   0.522   5.916  0.2841  0.4078  0.2290
 4566TIP3    H135189   5.398   0.604   5.867  0.0483  0.3055  0.1122
 4566TIP3    H235190   5.499   0.495   5.895  0.1787  0.3568 -0.1578
 4567TIP3   OH235191   4.398   5.971  12.161  0.1989 -0.3926  0.0216
 4567TIP3    H135192   4.458   6.007  12.227  0.2191  0.4710 -0.4515
 4567TIP3    H235193   4.449   5.901  12.119 -0.4599 -2.2279  2.1348
 4568TIP3   OH235194   4.961   5.836   4.755 -0.8129 -0.9962  0.3565
 4568TIP3    H135195   4.981   5.918   4.708 -0.2815 -0.8039  0.9102
 4568TIP3    H235196   5.036   5.780   4.738  1.7640  0.6847  4.6685
 4569TIP3   OH235197   4.265   3.870  15.982  0.0297 -0.2249  0.2502
 4569TIP3    H135198   4.261   3.953  16.029  1.6116  0.6372 -1.0398
 4569TIP3    H235199   4.187   3.871  15.925 -1.0099 -0.5515  1.6121
 4570TIP3   OH235200   3.391   6.443  15.554  0.0731 -0.6514  0.6304
 4570TIP3    H135201   3.435   6.488  15.482 -1.9684 -1.0049 -0.9005
 4570TIP3    H235202   3.405   6.501  15.630  0.0820  1.0284 -0.6028
 4571TIP3   OH235203   2.034   1.983  14.119  0.0488 -0.5445 -0.1464
 4571TIP3    H135204   2.053   2.071  14.087  0.8027 -0.2936  0.9390
 4571TIP3    H235205   2.083   1.926  14.060  0.1991 -0.1957 -0.3641
 4572TIP3   OH235206   2.219   0.955  11.781  0.7150  0.0445 -0.1522
 4572TIP3    H135207   2.291   0.972  11.720 -0.7285 -1.1450 -2.2856
 4572TIP3    H235208   2.202   1.040  11.822  1.8655  0.8336 -1.2536
 4573TIP3   OH235209   1.973   5.236   5.214 -0.5457 -0.0203  0.5120
 4573TIP3    H135210   1.979   5.153   5.261  1.2678  0.2197  0.7525
 4573TIP3    H235211   2.035   5.294   5.258 -0.7727  1.0549 -0.5159
 4574TIP3   OH235212   4.882   1.414   2.210  0.2245  0.2593  0.5879
 4574TIP3    H135213   4.973   1.392   2.192  0.2006 -1.6450  2.3964
 4574TIP3    H235214   4.885   1.504   2.244  1.1031  1.0502 -1.4266
 4575TIP3   OH235215   0.631   4.132   3.625 -0.2787 -0.4799 -0.3657
 4575TIP3    H135216   0.677   4.049   3.615 -0.2927 -0.6059  0.4963
 4575TIP3    H235217   0.545   4.118   3.585 -0.9519 -1.4878  1.3349
 4576TIP3   OH235218   0.229   3.166  11.111  0.1485 -0.1654 -0.2997
 4576TIP3    H135219   0.141   3.128  11.111 -0.8140  1.9222 -0.5467
 4576TIP3    H235220   0.242   3.199  11.023 -0.2568  2.5217  0.5503
 4577TIP3   OH235221   4.672   5.803  12.576  0.0113  0.0817  0.0713
 4577TIP3    H135222   4.629   5.746  12.639  0.3284  0.5617  0.7365
 4577TIP3    H235223   4.675   5.752  12.495  0.0962 -0.7591  0.5925
 4578TIP3   OH235224   3.154   3.936   1.621 -0.1333 -0.1632  0.2652
 4578TIP3    H135225   3.111   3.874   1.561 -1.5750  0.1192  0.9433
 4578TIP3    H235226   3.132   3.903   1.708  4.0839 -2.0658  0.8047
 4579TIP3   OH235227   3.874   5.466  15.454 -0.0344  0.4282 -0.3530
 4579TIP3    H135228   3.783   5.478  15.481 -0.3563 -0.7523 -0.8409
 4579TIP3    H235229   3.906   5.554  15.437 -1.7000  0.7710 -2.0807
 4580TIP3   OH235230   1.271   5.063   3.256  0.4263 -0.7305 -0.0814
 4580TIP3    H135231   1.272   5.071   3.351 -1.4136  0.7021 -0.1380
 4580TIP3    H235232   1.363   5.067   3.231  0.8110  2.7361  1.3953
 4581TIP3   OH235233   6.545   1.965   3.555  0.4244 -0.4386  0.0875
 4581TIP3    H135234   6.516   2.024   3.486  2.1488 -0.0346 -0.3316
 4581TIP3    H235235   6.502   1.882   3.534 -0.1288  0.0288 -0.7041
 4582TIP3   OH235236   2.218   4.972  16.177  0.3898 -0.4029  0.1125
 4582TIP3    H135237   2.158   4.996  16.248  1.5534  0.1223  0.9403
 4582TIP3    H235238   2.300   4.949  16.221  1.4299  0.8063 -1.0780
 4583TIP3   OH235239   2.460   6.466   1.606 -0.0716 -1.3123 -0.3594
 4583TIP3    H135240   2.387   6.416   1.642 -0.2722 -1.4803 -0.9778
 4583TIP3    H235241   2.467   6.436   1.515  1.1527 -1.7265 -0.1443
 4584TIP3   OH235242   0.212   5.024  13.262  0.0579 -0.3966  0.0683
 4584TIP3    H135243   0.268   5.032  13.184 -0.4772 -2.3152 -0.5797
 4584TIP3    H235244   0.261   5.069  13.331  2.0829 -1.3780 -0.6346
 4585TIP3   OH235245   1.735   1.552  12.610 -0.1947 -0.3379 -0.0370
 4585TIP3    H135246   1.665   1.538  12.674  1.2054 -1.3643  1.3601
 4585TIP3    H235247   1.741   1.470  12.562  1.1859 -0.9460  1.0877
 4586TIP3   OH235248   5.007   2.126  14.990 -0.4571  0.2605 -0.2320
 4586TIP3    H135249   4.920   2.086  14.992 -0.1385 -0.4417 -0.0871
 4586TIP3    H235250   5.029   2.132  14.897 -1.0715  1.3837 -0.3266
 4587TIP3   OH235251   4.775   6.166   0.358 -0.1591  0.0222 -0.3721
 4587TIP3    H135252   4.864   6.133   0.368 -0.4034 -0.3112  1.0567
 4587TIP3    H235253   4.729   6.096   0.312 -0.4032 -1.2425  1.6703
 4588TIP3   OH235254   2.225   2.397  15.671  0.7885 -0.0506 -0.2623
 4588TIP3    H135255   2.299   2.440  15.628 -0.0055  2.1156  0.3885
 4588TIP3    H235256   2.148   2.430  15.626  0.0709  0.4742  1.2632
 4589TIP3   OH235257   6.092   5.037   3.221  0.3234 -0.1016 -0.0402
 4589TIP3    H135258   6.126   5.072   3.138  2.1629  0.8039  1.0168
 4589TIP3    H235259   6.167   4.991   3.260 -0.8979 -1.7006  0.5239
 4590TIP3   OH235260   6.025   5.845  10.158 -0.0380 -0.2319 -0.3295
 4590TIP3    H135261   5.946   5.798  10.184 -0.6741  1.1670  0.3813
 4590TIP3    H235262   5.993   5.927  10.122  1.0399 -0.3608 -1.6422
 4591TIP3   OH235263   5.798   5.626   2.146 -0.2434 -0.1257 -0.1632
 4591TIP3    H135264   5.846   5.643   2.227  0.1169  0.1364 -0.4319
 4591TIP3    H235265   5.865   5.600   2.083 -0.3816  0.7311 -0.6830
 4592TIP3   OH235266   5.162   6.725  13.563  0.3952  0.0655  0.1340
 4592TIP3    H135267   5.100   6.796  13.580  0.8717  0.2684  1.1445
 4592TIP3    H235268   5.241   6.770  13.533  0.7553 -0.0061  0.9419
 4593TIP3   OH235269   2.469   0.352  10.931 -0.0734 -0.3539 -0.6105
 4593TIP3    H135270   2.464   0.446  10.913  0.7571 -0.2716 -0.4864
 4593TIP3    H235271   2.503   0.314  10.850 -2.2479 -0.8345 -1.3712
 4594TIP3   OH235272   3.527   1.922   1.991 -0.0075 -0.2594  0.0542
 4594TIP3    H135273   3.524   1.826   1.994  1.1253 -0.2823  0.9989
 4594TIP3    H235274   3.526   1.949   2.083 -0.5115  0.6587 -0.2024
 4595TIP3   OH235275   4.148   6.003  11.401  0.3750 -0.6608 -0.4044
 4595TIP3    H135276   4.222   6.062  11.388  1.5840 -1.6224  1.5812
 4595TIP3    H235277   4.158   5.937  11.331  1.2937 -0.6691 -0.2846
 4596TIP3   OH235278   5.606   6.582  11.742  0.2133  0.6551  0.3553
 4596TIP3    H135279   5.697   6.553  11.749 -0.5742 -2.2592  0.0074
 4596TIP3    H235280   5.565   6.553  11.824 -0.9301 -0.4765 -0.5733
 4597TIP3   OH235281   0.313   3.672  13.788 -0.4527  0.7737  1.2107
 4597TIP3    H135282   0.299   3.654  13.695 -2.3448 -1.5236  1.8707
 4597TIP3    H235283   0.409   3.674  13.798 -0.2189  0.9376 -0.7216
 4598TIP3   OH235284   0.676   0.429   3.721 -0.3634 -0.0120 -0.2142
 4598TIP3    H135285   0.758   0.478   3.727  0.2366 -0.9495 -0.4889
 4598TIP3    H235286   0.693   0.347   3.767 -0.2756 -1.3227 -2.4038
 4599TIP3   OH235287   5.525   2.638   3.959 -0.6678 -0.3781  0.0164
 4599TIP3    H135288   5.438   2.599   3.952 -0.9752  0.4329 -0.9443
 4599TIP3    H235289   5.509   2.731   3.969  0.0836 -0.0614 -1.4028
 4600TIP3   OH235290   2.557   2.798  12.716  0.0959  0.3381  0.0818
 4600TIP3    H135291   2.592   2.755  12.638  0.5046  0.3363  0.2601
 4600TIP3    H235292   2.473   2.755  12.732  1.5731 -2.2367  1.7031
 4601TIP3   OH235293   1.878   5.002  11.342 -0.2064 -0.2067  0.1089
 4601TIP3    H135294   1.903   4.914  11.373 -0.1733 -0.5343 -0.8129
 4601TIP3    H235295   1.809   5.030  11.402  0.9478 -0.1456  1.4586
 4602TIP3   OH235296   2.342   3.419   3.613 -0.0232 -0.5136 -0.0472
 4602TIP3    H135297   2.319   3.393   3.524 -0.0652 -0.7683  0.0358
 4602TIP3    H235298   2.418   3.477   3.602 -1.3056  1.1677 -0.3991
 4603TIP3   OH235299   1.017   1.900   5.222  0.2841 -0.1386  0.1050
 4603TIP3    H135300   1.087   1.936   5.169  1.1494 -2.4439 -0.4375
 4603TIP3    H235301   0.942   1.894   5.163  0.2382  0.4178  0.1053
 4604TIP3   OH235302   4.459   6.464   5.886 -0.0994 -0.3836 -0.0740
 4604TIP3    H135303   4.526   6.406   5.922  1.2125  0.6642 -0.7319
 4604TIP3    H235304   4.467   6.544   5.937  2.3123  1.4309 -2.9564
 4605TIP3   OH235305   5.466   5.659  14.790 -0.0784 -0.3700  0.1693
 4605TIP3    H135306   5.508   5.688  14.870  0.5884  0.3260 -0.4161
 4605TIP3    H235307   5.396   5.723  14.775 -0.9865 -1.1872  0.8270
 4606TIP3   OH235308   6.638   5.551   0.132 -0.0641 -0.1514  0.2119
 4606TIP3    H135309   6.571   5.577   0.069 -0.1623  0.6220  0.6228
 4606TIP3    H235310   6.601   5.475   0.177 -0.0621 -0.6044 -0.5413
 4607TIP3   OH235311   2.975   1.749   5.559  0.4662 -0.1474 -0.3907
 4607TIP3    H135312   2.935   1.822   5.606 -0.4172 -0.8304 -0.0463
 4607TIP3    H235313   2.980   1.678   5.624 -0.3086 -0.9417 -1.1728
 4608TIP3   OH235314   0.954   6.612  15.668  0.0055  0.4795 -0.5383
 4608TIP3    H135315   0.996   6.656  15.594 -0.4702 -0.2578 -1.2586
 4608TIP3    H235316   0.982   6.663  15.744  0.8769  0.9775 -1.1643
 4609TIP3   OH235317   1.549   6.733  14.415 -0.4906 -0.1736 -0.1106
 4609TIP3    H135318   1.627   6.726  14.470 -0.2635 -3.2943 -0.6879
 4609TIP3    H235319   1.526   6.643  14.393 -4.2086  0.5901 -0.0951
 4610TIP3   OH235320   0.663   0.666   0.369 -0.2556 -0.6730 -0.3348
 4610TIP3    H135321   0.734   0.605   0.346 -1.5434 -2.3691 -0.0408
 4610TIP3    H235322   0.649   0.717   0.290  1.3379 -0.2282 -0.3735
 4611TIP3   OH235323   4.865   2.715   3.380 -0.5280  0.0227  0.2433
 4611TIP3    H135324   4.891   2.771   3.454 -1.1028  0.7961 -0.1254
 4611TIP3    H235325   4.825   2.638   3.421  1.3179 -0.6978  0.7892
 4612TIP3   OH235326   2.382   3.025   1.928  0.2339  0.3013 -0.1614
 4612TIP3    H135327   2.317   3.027   1.858 -1.0311 -1.6258  0.8555
 4612TIP3    H235328   2.454   3.080   1.896 -0.9455  0.7249 -2.2742
 4613TIP3   OH235329   3.630   5.740  13.845 -0.8353  0.0170 -0.3261
 4613TIP3    H135330   3.608   5.685  13.920 -1.6811 -0.6450 -1.0394
 4613TIP3    H235331   3.548   5.747  13.795  0.1515 -1.2494 -2.2537
 4614TIP3   OH235332   3.623   0.763   2.910 -0.1828 -0.0716  0.3232
 4614TIP3    H135333   3.528   0.747   2.913 -0.2375  0.1132 -0.2256
 4614TIP3    H235334   3.658   0.716   2.986 -0.6238 -0.7466  0.1161
 4615TIP3   OH235335   4.634   2.191   5.073  0.6268 -0.1118  0.6988
 4615TIP3    H135336   4.601   2.246   5.002 -0.0520  0.0410  1.1198
 4615TIP3    H235337   4.605   2.236   5.153  0.8948 -0.5807  1.0615
 4616TIP3   OH235338   3.928   5.739  15.460 -0.2081  0.0744  0.0534
 4616TIP3    H135339   3.985   5.770  15.390  0.5619 -1.6864 -0.1562
 4616TIP3    H235340   3.970   5.768  15.541 -0.3728  0.9389 -0.1617
 4617TIP3   OH235341   1.190   0.728  11.624  0.7439 -0.3254  0.0957
 4617TIP3    H135342   1.183   0.700  11.715 -0.9772  1.1937  0.4859
 4617TIP3    H235343   1.150   0.656  11.574 -2.8993  0.8365  1.0101
 4618TIP3   OH235344   0.611   5.209  15.799  0.5893 -0.4619 -0.1086
 4618TIP3    H135345   0.644   5.264  15.870 -1.6281 -0.2709  0.8736
 4618TIP3    H235346   0.524   5.182  15.829 -2.0578  2.4221 -4.1094
 4619TIP3   OH235347   3.539   0.093  12.608  0.4664 -0.0399  0.0375
 4619TIP3    H135348   3.590   0.118  12.686  0.7313 -0.4137 -0.0144
 4619TIP3    H235349   3.493   0.173  12.583 -0.7597 -0.2703  1.4295
 4620TIP3   OH235350   5.182   2.171   5.666 -0.5989  0.6062 -0.3796
 4620TIP3    H135351   5.158   2.263   5.673  0.1069  0.7427  0.5121
 4620TIP3    H235352   5.261   2.163   5.720  0.0616 -0.2602 -1.4305
 4621TIP3   OH235353   5.868   5.546  15.079 -0.2533 -0.7672 -0.2477
 4621TIP3    H135354   5.962   5.530  15.073 -0.0429  0.7294 -1.8149
 4621TIP3    H235355   5.848   5.600  15.002 -2.1304  0.1406  0.8035
 4622TIP3   OH235356   5.030   3.336   4.761  0.0913  0.0433 -0.6591
 4622TIP3    H135357   5.071   3.362   4.843 -0.4052 -1.9972  0.3119
 4622TIP3    H235358   4.951   3.390   4.755  0.1236  0.1992  0.2151
 4623TIP3   OH235359   6.621   5.359  15.623 -0.1625  0.3984  0.4090
 4623TIP3    H135360   6.706   5.378  15.583 -0.0922  0.9251  0.7973
 4623TIP3    H235361   6.599   5.438  15.672 -0.6205  0.0581  0.7668
 4624TIP3   OH235362   3.986   6.584  12.679 -0.0826 -0.6274  0.0568
 4624TIP3    H135363   3.960   6.524  12.748 -1.5499  0.2350  0.3078
 4624TIP3    H235364   3.980   6.533  12.598  0.2121 -1.2376  0.4182
 4625TIP3   OH235365   2.176   1.800  16.018  0.4812  0.1126  0.3110
 4625TIP3    H135366   2.150   1.827  16.107  0.9737 -1.1861  0.8751
 4625TIP3    H235367   2.269   1.777  16.027  0.7274  0.6582 -0.7217
 4626TIP3   OH235368   2.094   5.257   2.814  0.4752 -0.2943  0.2692
 4626TIP3    H135369   2.059   5.176   2.777  1.1026 -0.7497  0.6472
 4626TIP3    H235370   2.174   5.230   2.859  1.6767  0.8214 -1.0998
 4627TIP3   OH235371   0.720   4.663   5.511 -0.6190 -0.6285  0.7674
 4627TIP3    H135372   0.658   4.593   5.492  2.1953 -3.0246 -0.2300
 4627TIP3    H235373   0.772   4.631   5.585  1.5877 -0.2752 -0.5335
 4628TIP3   OH235374   0.802   1.098  14.506  0.3118 -0.3723  0.0670
 4628TIP3    H135375   0.713   1.122  14.531  0.3854 -0.8353  0.7889
 4628TIP3    H235376   0.839   1.056  14.583  1.4198  0.4905  0.0379
 4629TIP3   OH235377   5.449   5.153  15.933 -0.0570 -0.1560 -0.7623
 4629TIP3    H135378   5.376   5.094  15.950  1.2626 -1.6191  0.0854
 4629TIP3    H235379   5.408   5.234  15.903 -2.0247 -0.8078  0.0133
 4630TIP3   OH235380   1.169   4.396   3.109  0.0158 -0.4041 -0.4255
 4630TIP3    H135381   1.215   4.313   3.094  0.1223 -0.0922 -1.9530
 4630TIP3    H235382   1.213   4.459   3.053 -0.2970  0.6341  0.4521
 4631TIP3   OH235383   5.237   2.580   1.417 -0.0846 -0.0903 -0.2396
 4631TIP3    H135384   5.302   2.605   1.482  0.9178  0.8519 -1.5589
 4631TIP3    H235385   5.259   2.490   1.394 -0.2463 -0.3162  0.4691
 4632TIP3   OH235386   0.915   5.888   0.380  0.0615 -0.0299 -0.5169
 4632TIP3    H135387   1.006   5.874   0.354  0.2470 -0.6740  0.4354
 4632TIP3    H235388   0.919   5.959   0.444 -0.1951  0.3780 -0.9395
 4633TIP3   OH235389   0.644   6.036  11.670  0.6210 -0.0146 -0.3289
 4633TIP3    H135390   0.698   6.109  11.641  0.1615  0.0856 -0.9475
 4633TIP3    H235391   0.643   5.976  11.596  1.8490 -1.1622  0.5347
 4634TIP3   OH235392   4.953   1.755   1.895  0.7130  0.6238  0.6420
 4634TIP3    H135393   4.957   1.691   1.824  0.1449  0.7091  0.5300
 4634TIP3    H235394   4.977   1.838   1.854  0.1427  0.7171  0.4920
 4635TIP3   OH235395   6.106   5.136  13.529 -0.0682 -0.5311  0.1946
 4635TIP3    H135396   6.174   5.139  13.462  1.2635  1.1069  1.5481
 4635TIP3    H235397   6.024   5.131  13.479  0.8773  0.3386 -1.5443
 4636TIP3   OH235398   2.897   1.825   1.984 -0.4169  0.1343 -0.1046
 4636TIP3    H135399   2.871   1.883   2.055 -1.2408  1.8630 -1.7457
 4636TIP3    H235400   2.899   1.738   2.024  0.0532  1.1464  2.2337
 4637TIP3   OH235401   0.310   4.074   0.550  0.6372  0.3680  0.1369
 4637TIP3    H135402   0.234   4.062   0.607 -2.3383 -2.1480 -3.8157
 4637TIP3    H235403   0.294   4.157   0.506 -1.7572 -1.5075 -2.8913
 4638TIP3   OH235404   5.754   5.743   0.189 -0.5994  0.1258 -0.0107
 4638TIP3    H135405   5.793   5.675   0.133 -0.9964 -0.2149  0.1165
 4638TIP3    H235406   5.665   5.754   0.154 -1.4353 -1.2721  1.5248
 4639TIP3   OH235407   0.566   1.664  15.199 -0.3395 -0.6017 -0.3278
 4639TIP3    H135408   0.557   1.652  15.293  0.9263  1.5427  0.1450
 4639TIP3    H235409   0.479   1.690  15.169 -0.0426  2.3584  0.9777
 4640TIP3   OH235410   6.094   3.357  14.135  0.1554 -0.6962  0.1311
 4640TIP3    H135411   6.053   3.308  14.206 -0.1936  1.4924  1.5632
 4640TIP3    H235412   6.037   3.341  14.059 -0.8282 -1.2425  0.9590
 4641TIP3   OH235413   6.646   5.632  14.502 -0.7774 -0.3254  0.0837
 4641TIP3    H135414   6.573   5.615  14.443 -0.4904 -2.4800  0.2654
 4641TIP3    H235415   6.721   5.589  14.460 -0.5701 -1.9570  1.9448
 4642TIP3   OH235416   5.871   6.297  12.956  0.7006  0.6817 -0.1070
 4642TIP3    H135417   5.882   6.235  12.884  0.1515 -1.9170  1.8962
 4642TIP3    H235418   5.960   6.322  12.980  0.9407  0.5035 -0.7981
 4643TIP3   OH235419   3.980   0.785  15.315  0.1869 -0.1901 -0.3038
 4643TIP3    H135420   3.918   0.716  15.292  1.1997 -0.4412 -2.6194
 4643TIP3    H235421   4.025   0.752  15.393 -0.2724 -1.5467 -0.5858
 4644TIP3   OH235422   4.104   5.445  16.897 -0.1609 -0.4946  0.2713
 4644TIP3    H135423   4.126   5.538  16.889 -0.9221 -0.0964  2.3098
 4644TIP3    H235424   4.009   5.443  16.903 -0.2555 -1.5592 -1.0217
 4645TIP3   OH235425   6.559   3.199   1.266  0.4547 -0.1475 -0.4459
 4645TIP3    H135426   6.587   3.193   1.357 -0.3910 -0.8378 -0.2131
 4645TIP3    H235427   6.632   3.164   1.215  0.3554 -1.1687  0.0837
 4646TIP3   OH235428   3.413   4.806   1.912 -0.1244  0.4715 -0.2493
 4646TIP3    H135429   3.482   4.761   1.862 -0.1514 -0.6914  0.7125
 4646TIP3    H235430   3.334   4.757   1.894 -0.1185 -0.0294  0.9815
 4647TIP3   OH235431   2.094   4.681  10.639  0.2491  0.9873  0.6101
 4647TIP3    H135432   2.137   4.630  10.570 -0.4111  1.7970 -0.4421
 4647TIP3    H235433   2.125   4.770  10.625 -0.4502  1.2837  0.9084
 4648TIP3   OH235434   2.426   1.700   0.683 -0.1710 -0.4304 -0.2414
 4648TIP3    H135435   2.369   1.631   0.717 -0.0797 -0.8583 -0.9412
 4648TIP3    H235436   2.499   1.653   0.642 -0.9858  0.0104 -2.3084
 4649TIP3   OH235437   1.869   1.543   3.133  0.2764 -0.5705  0.1276
 4649TIP3    H135438   1.932   1.579   3.070  1.4148 -1.5430  0.6538
 4649TIP3    H235439   1.903   1.455   3.152  0.3684 -0.0534  2.6342
 4650TIP3   OH235440   3.380   0.830   0.887 -0.2184  0.2519 -0.0114
 4650TIP3    H135441   3.416   0.818   0.975 -0.8796 -2.7401 -0.0440
 4650TIP3    H235442   3.290   0.859   0.903 -0.5260 -0.8503  0.3598
 4651TIP3   OH235443   5.579   6.788  13.007 -0.0589 -0.3447  0.3520
 4651TIP3    H135444   5.527   6.755  13.080  0.7558  0.4537  1.3165
 4651TIP3    H235445   5.630   6.859  13.044  2.0632 -1.3774 -0.4397
 4652TIP3   OH235446   2.700   4.686   5.384 -0.1636 -0.4960  0.1247
 4652TIP3    H135447   2.650   4.717   5.459  1.6065 -1.5436  1.8260
 4652TIP3    H235448   2.677   4.594   5.376 -0.1131 -0.4658 -0.4373
 4653TIP3   OH235449   5.250   2.577  12.113 -0.7730  0.2843  0.1277
 4653TIP3    H135450   5.174   2.594  12.170 -1.2954  1.4564 -0.8694
 4653TIP3    H235451   5.211   2.549  12.030 -0.0354 -1.0089  0.2018
 4654TIP3   OH235452   0.768   5.589   3.623  0.0928 -0.1469 -0.0585
 4654TIP3    H135453   0.676   5.587   3.597 -0.2930 -1.1704  1.2873
 4654TIP3    H235454   0.807   5.512   3.583 -0.1374 -0.8414  0.9931
 4655TIP3   OH235455   3.931   4.955   6.377  0.2812 -0.6862 -0.0697
 4655TIP3    H135456   3.859   4.989   6.430  0.9767 -0.8057  0.9612
 4655TIP3    H235457   3.998   4.930   6.440  1.3372 -0.3483 -1.0318
 4656TIP3   OH235458   2.836   3.451  16.626 -0.4278 -0.1756  0.2646
 4656TIP3    H135459   2.855   3.511  16.554  1.4303  0.8511  1.5036
 4656TIP3    H235460   2.921   3.435  16.666 -1.3418 -1.0553  1.9526
 4657TIP3   OH235461   0.061   1.306  16.032  0.2764 -0.8016 -0.1122
 4657TIP3    H135462  -0.015   1.254  16.006  0.0957 -0.9683  0.7078
 4657TIP3    H235463   0.083   1.275  16.120  0.8829 -0.2926 -0.0736
 4658TIP3   OH235464   1.303   3.029  11.786 -0.1782 -0.5761  0.6613
 4658TIP3    H135465   1.224   3.073  11.754  1.4040 -0.0286 -2.9977
 4658TIP3    H235466   1.370   3.097  11.784  0.7375 -1.3822  2.2782
 4659TIP3   OH235467   3.300   4.129  16.332 -0.4222 -0.1798 -0.2877
 4659TIP3    H135468   3.375   4.174  16.369 -0.0353 -0.5703 -0.5912
 4659TIP3    H235469   3.224   4.181  16.360 -0.3052 -1.2808  2.3955
 4660TIP3   OH235470   6.094   6.232   0.681 -0.5242 -0.5299  0.0488
 4660TIP3    H135471   6.183   6.216   0.649  0.2226 -0.4353  1.9223
 4660TIP3    H235472   6.040   6.167   0.635  0.9574 -2.3886  0.7842
 4661TIP3   OH235473   1.841   5.824  10.511  0.3150  0.4897  0.2775
 4661TIP3    H135474   1.761   5.838  10.561 -0.7392 -0.1123 -1.1758
 4661TIP3    H235475   1.885   5.909  10.512 -0.9888  1.1855  0.0183
 4662TIP3   OH235476   2.548   0.412  14.464  0.2622  0.2195 -0.6186
 4662TIP3    H135477   2.581   0.325  14.442  0.4606  0.5219 -1.5562
 4662TIP3    H235478   2.597   0.437  14.543 -0.5870 -0.9567  0.3207
 4663TIP3   OH235479   4.258   3.579   3.102  0.1387  0.3581 -0.0785
 4663TIP3    H135480   4.259   3.673   3.117 -2.1665  0.5129 -0.5315
 4663TIP3    H235481   4.231   3.542   3.186  0.1280  0.1630 -0.1680
 4664TIP3   OH235482   2.154   5.076  15.601 -0.5419 -0.0187  0.2934
 4664TIP3    H135483   2.247   5.093  15.583 -0.5736  2.2471  1.7852
 4664TIP3    H235484   2.114   5.064  15.515  0.8596  0.7343 -0.5002
 4665TIP3   OH235485   0.264   3.939  14.854  0.3809  0.0546 -0.2853
 4665TIP3    H135486   0.238   3.957  14.764 -0.6782 -1.6026 -0.3473
 4665TIP3    H235487   0.279   3.845  14.856 -0.6871 -0.1171  1.5228
 4666TIP3   OH235488   4.083   4.022  10.876  0.1333  0.2939 -0.3522
 4666TIP3    H135489   4.177   4.009  10.889  0.2422  1.4111  0.1709
 4666TIP3    H235490   4.078   4.086  10.805 -0.2054  0.6535 -0.0120
 4667TIP3   OH235491   3.833   5.723  16.684  0.2601  0.4191 -0.1355
 4667TIP3    H135492   3.830   5.803  16.738 -0.9249  2.1030 -2.5061
 4667TIP3    H235493   3.890   5.747  16.611 -1.6590 -0.1849 -1.8874
 4668TIP3   OH235494   3.779   2.921  12.504 -0.0364 -0.7328  0.6740
 4668TIP3    H135495   3.814   2.859  12.568  1.7343  0.4978  0.9749
 4668TIP3    H235496   3.784   2.875  12.420  3.2366 -0.4075  0.5541
 4669TIP3   OH235497   4.263   5.087  11.346  0.7561 -0.1207  0.3546
 4669TIP3    H135498   4.175   5.089  11.383  0.4107  1.7232 -0.4407
 4669TIP3    H235499   4.274   5.173  11.304  2.0444 -1.1466 -1.6051
 4670TIP3   OH235500   6.611   4.857   1.073  0.6648 -0.0050  0.6514
 4670TIP3    H135501   6.656   4.825   1.151  2.0182  2.0347  0.7815
 4670TIP3    H235502   6.670   4.836   1.000  0.1919 -0.4044  0.3774
 4671TIP3   OH235503   4.210   5.161  15.069  0.3059  0.2392  0.3056
 4671TIP3    H135504   4.139   5.224  15.083 -1.8120 -2.0541  0.7220
 4671TIP3    H235505   4.235   5.134  15.157  0.1549 -0.5410  0.1143
 4672TIP3   OH235506   4.027   0.191  11.065  0.8779  0.4479  0.3654
 4672TIP3    H135507   4.054   0.102  11.045  0.3485  0.2147  0.6792
 4672TIP3    H235508   4.092   0.223  11.128  1.2933  0.4269 -0.0492
 4673TIP3   OH235509   2.310   4.165   0.967 -0.2470 -0.0631  0.1683
 4673TIP3    H135510   2.379   4.112   0.928  0.0043 -0.3107  0.9491
 4673TIP3    H235511   2.257   4.103   1.017 -2.4689 -0.3466 -2.2498
 4674TIP3   OH235512   2.154   2.876  12.707  0.0087  0.0419 -0.2929
 4674TIP3    H135513   2.186   2.955  12.663 -0.9670  0.4914 -0.2240
 4674TIP3    H235514   2.137   2.814  12.636 -2.2664  1.0167 -0.6926
 4675TIP3   OH235515   5.084   6.494   0.401 -0.3095  0.2678 -0.1194
 4675TIP3    H135516   5.024   6.541   0.344  0.6271 -0.0111 -1.3984
 4675TIP3    H235517   5.129   6.433   0.343  0.4885 -0.2270  0.9783
 4676TIP3   OH235518   4.745   5.402   6.142 -0.6070  0.2047  0.1567
 4676TIP3    H135519   4.807   5.473   6.126  0.3386 -0.0381  2.3278
 4676TIP3    H235520   4.777   5.360   6.222 -3.0015 -0.6154  0.7704
 4677TIP3   OH235521   0.273   0.640   3.587  0.1919 -0.0166 -0.6078
 4677TIP3    H135522   0.296   0.548   3.595 -2.7395 -0.8782 -0.7949
 4677TIP3    H235523   0.314   0.682   3.662  0.0323 -1.8272  0.5454
 4678TIP3   OH235524   5.799   3.334  16.362  0.0688 -0.5916 -0.3604
 4678TIP3    H135525   5.763   3.245  16.354  0.5606 -0.6558 -2.4423
 4678TIP3    H235526   5.877   3.333  16.307  0.9275  0.7469  0.7538
 4679TIP3   OH235527   2.269   2.270   5.798 -0.0845  0.0891  0.1177
 4679TIP3    H135528   2.217   2.221   5.862  1.6719  0.5293  1.9810
 4679TIP3    H235529   2.267   2.360   5.830  0.0005  0.5248 -1.0529
 4680TIP3   OH235530   3.716   2.158  14.438  0.1947  0.1414 -0.1532
 4680TIP3    H135531   3.658   2.088  14.465  1.2791 -0.7041  0.0619
 4680TIP3    H235532   3.708   2.224  14.507 -1.1185  0.4207 -0.5516
 4681TIP3   OH235533   5.708   2.160  13.733  0.5357 -0.0620 -0.2529
 4681TIP3    H135534   5.796   2.197  13.722  0.6712 -1.1330 -3.7922
 4681TIP3    H235535   5.713   2.073  13.694 -1.5266 -1.1841  1.7338
 4682TIP3   OH235536   1.933   1.405  13.158  0.1122  0.5537  0.0403
 4682TIP3    H135537   1.900   1.490  13.187 -1.2180 -0.4023  1.4938
 4682TIP3    H235538   2.028   1.417  13.156  0.0078  1.8526  0.9933
 4683TIP3   OH235539   2.333   6.429  14.452 -0.3537  0.2010  0.1340
 4683TIP3    H135540   2.330   6.348  14.401 -1.0988  0.6270 -0.5285
 4683TIP3    H235541   2.355   6.401  14.541 -1.8150 -0.8721  0.1881
 4684TIP3   OH235542   0.827   5.876  15.383 -0.3197  0.1395  0.4764
 4684TIP3    H135543   0.913   5.885  15.424 -0.3097  0.4392  0.3938
 4684TIP3    H235544   0.838   5.913  15.295 -0.0004 -1.6438 -0.2791
 4685TIP3   OH235545   2.651   1.497   0.878 -1.1210 -0.0342 -0.2124
 4685TIP3    H135546   2.730   1.548   0.897 -1.5275  0.3405  0.5173
 4685TIP3    H235547   2.633   1.514   0.785 -0.0540 -0.5369 -0.5239
 4686TIP3   OH235548   1.178   1.200  13.643 -0.1608  0.1709 -0.8150
 4686TIP3    H135549   1.247   1.141  13.612  1.9914  1.7233  0.7243
 4686TIP3    H235550   1.222   1.283  13.658 -2.3718  1.2317  0.3160
 4687TIP3   OH235551   2.400   3.642  11.861 -0.1843 -0.4034 -0.7595
 4687TIP3    H135552   2.337   3.587  11.907 -1.8057 -0.5728 -3.0147
 4687TIP3    H235553   2.482   3.629  11.908 -1.6060 -0.7681  1.8519
 4688TIP3   OH235554   3.214   0.518  16.014  0.1214  0.4356  0.0221
 4688TIP3    H135555   3.276   0.589  16.030  0.3466  0.7067 -1.8524
 4688TIP3    H235556   3.129   0.561  16.007 -0.1951  0.1652  1.6309
 4689TIP3   OH235557   0.177   3.996  14.582  0.8424 -0.1320  0.6598
 4689TIP3    H135558   0.233   3.939  14.528  0.0361 -0.1459 -0.1812
 4689TIP3    H235559   0.091   3.990  14.541  0.8796  2.2489  0.0905
 4690TIP3   OH235560   5.564   1.263   0.728  0.0019 -0.5263 -0.0414
 4690TIP3    H135561   5.558   1.327   0.657  1.6203  0.2926  0.5257
 4690TIP3    H235562   5.648   1.220   0.714 -0.6094 -1.8504  0.1817
 4691TIP3   OH235563   6.277   4.344   0.076  0.0330  0.2185 -0.5236
 4691TIP3    H135564   6.317   4.347  -0.011  1.5609 -0.4794  0.1040
 4691TIP3    H235565   6.239   4.430   0.088 -0.4924  0.2225 -2.0053
 4692TIP3   OH235566   1.773   0.761   1.344  0.0357  0.1645  0.0210
 4692TIP3    H135567   1.729   0.733   1.263  1.1562  0.0819 -0.5790
 4692TIP3    H235568   1.778   0.856   1.336 -1.0438  0.2952  0.6399
 4693TIP3   OH235569   6.424   0.610  11.426 -0.3047 -0.0645  0.1309
 4693TIP3    H135570   6.459   0.696  11.448 -0.3406 -0.4000  1.5788
 4693TIP3    H235571   6.362   0.590  11.496 -0.0570 -1.4117 -0.0027
 4694TIP3   OH235572   5.111   1.484  13.784 -0.5885 -0.1062 -0.2754
 4694TIP3    H135573   5.024   1.466  13.748 -0.2780 -0.2295 -0.9809
 4694TIP3    H235574   5.152   1.398  13.791 -0.0216  0.0751 -1.2605
 4695TIP3   OH235575   1.419   4.885  10.686 -0.1594 -0.2401 -0.2711
 4695TIP3    H135576   1.340   4.939  10.678 -1.5150 -1.8463  1.3521
 4695TIP3    H235577   1.477   4.936  10.742 -1.1499 -0.1376  0.7060
 4696TIP3   OH235578   1.601   6.356  16.584 -0.2630  0.0360 -0.5900
 4696TIP3    H135579   1.577   6.264  16.596 -0.6226  0.2909  0.8756
 4696TIP3    H235580   1.696   6.356  16.583 -0.1818 -0.1410  1.8273
 4697TIP3   OH235581   1.695   4.853  17.041 -0.2368  0.2746 -0.1628
 4697TIP3    H135582   1.770   4.879  17.094 -0.3256  0.7518 -0.2587
 4697TIP3    H235583   1.666   4.770  17.078  1.5987 -0.9833 -1.4138
 4698TIP3   OH235584   4.654   6.641  15.084 -0.4253  0.3906  0.7338
 4698TIP3    H135585   4.658   6.736  15.085 -1.0862  0.4495 -0.5900
 4698TIP3    H235586   4.577   6.620  15.137 -0.6335  0.6226  0.5254
 4699TIP3   OH235587   2.438   2.931  10.757  0.6502  0.5815 -0.1811
 4699TIP3    H135588   2.447   2.998  10.688 -0.0583 -1.2675 -2.1830
 4699TIP3    H235589   2.354   2.889  10.739  0.9189 -0.6371  1.2201
 4700TIP3   OH235590   5.845   0.317  14.268 -0.0085 -0.3386  0.1222
 4700TIP3    H135591   5.937   0.324  14.294  0.2411 -1.8978 -0.2259
 4700TIP3    H235592   5.804   0.269  14.340 -0.5786  0.3910  0.2962
 4701TIP3   OH235593   0.965   1.727  14.339 -0.1109  0.1305 -0.5030
 4701TIP3    H135594   1.060   1.731  14.354 -0.2642 -0.3466  0.6848
 4701TIP3    H235595   0.936   1.653  14.390 -1.1509  0.3033 -0.8229
 4702TIP3   OH235596   0.881   6.728  16.369 -0.7205  0.7316  0.0385
 4702TIP3    H135597   0.914   6.699  16.454 -1.3591 -0.7842 -0.2019
 4702TIP3    H235598   0.843   6.814  16.386 -1.8379 -0.0203  1.5456
 4703TIP3   OH235599   5.720   4.828  16.295 -0.4036 -0.6310  0.0310
 4703TIP3    H135600   5.792   4.772  16.323  0.6821  0.0017 -1.3703
 4703TIP3    H235601   5.733   4.909  16.343  0.6893 -0.0135 -1.2445
 4704TIP3   OH235602   2.069   1.819   3.749  0.1989 -0.2801  0.0477
 4704TIP3    H135603   2.118   1.764   3.687 -0.2465 -0.1583 -0.4153
 4704TIP3    H235604   2.134   1.880   3.783  0.3888 -0.1684 -0.5085
 4705TIP3   OH235605   3.394   3.199   2.633  1.0753 -0.4306 -0.3605
 4705TIP3    H135606   3.476   3.242   2.658  1.9974 -1.5418 -1.3467
 4705TIP3    H235607   3.414   3.157   2.549 -0.6986 -0.1975 -0.9370
 4706TIP3   OH235608   4.169   5.972   3.911 -0.2565 -0.4342  0.2080
 4706TIP3    H135609   4.184   5.894   3.964 -0.8227  0.7616  2.2266
 4706TIP3    H235610   4.075   5.970   3.891 -0.4980  0.2836  1.2205
 4707TIP3   OH235611   3.477   1.402   1.747 -0.2193  0.5779 -0.1624
 4707TIP3    H135612   3.429   1.409   1.829 -2.6812  1.7283 -1.5868
 4707TIP3    H235613   3.549   1.465   1.755 -1.5968  2.1431  0.4008
 4708TIP3   OH235614   5.257   0.086   4.578 -0.3549 -0.0977 -0.2479
 4708TIP3    H135615   5.349   0.078   4.604 -0.2644  2.9532  0.7706
 4708TIP3    H235616   5.247   0.178   4.553 -3.0636 -0.4148 -0.6068
 4709TIP3   OH235617   0.165   6.729  15.571  0.2281  0.2498  0.0850
 4709TIP3    H135618   0.083   6.692  15.539 -0.3612  2.6974 -1.5063
 4709TIP3    H235619   0.232   6.667  15.543 -0.8734 -0.6723 -0.5855
 4710TIP3   OH235620   5.750   6.396  10.202 -0.4185 -0.9362  0.4688
 4710TIP3    H135621   5.800   6.315  10.205 -0.5246 -1.0258 -0.0976
 4710TIP3    H235622   5.759   6.427  10.111 -0.6996 -0.5190  0.5777
 4711TIP3   OH235623   3.829   3.967  12.750  0.0231  0.1473 -0.0064
 4711TIP3    H135624   3.814   3.873  12.758 -2.7073  0.4072 -0.7679
 4711TIP3    H235625   3.824   4.001  12.839 -0.0581 -0.3240  0.1669
 4712TIP3   OH235626   2.621   2.001   3.214  0.2453 -0.0263 -0.0380
 4712TIP3    H135627   2.689   2.065   3.194 -0.2964  0.4685 -0.3522
 4712TIP3    H235628   2.539   2.046   3.192 -0.2063 -0.4634  0.6952
 4713TIP3   OH235629   2.091   6.534   4.387  0.5010  0.2607  0.2575
 4713TIP3    H135630   2.083   6.620   4.347  0.7049  0.6343  0.9971
 4713TIP3    H235631   2.135   6.550   4.471  2.3850 -0.8106 -0.4704
 4714TIP3   OH235632   3.320   1.130   4.535 -0.5144 -0.3134 -0.3161
 4714TIP3    H135633   3.231   1.163   4.520  0.4278  2.7329  0.0478
 4714TIP3    H235634   3.317   1.093   4.624 -1.4665 -0.4349 -0.3873
 4715TIP3   OH235635   3.418   2.780  15.783 -0.1016 -0.5782 -0.0819
 4715TIP3    H135636   3.459   2.780  15.697 -1.8579 -0.0884 -0.9626
 4715TIP3    H235637   3.364   2.702  15.784 -0.7582 -0.1282  0.2461
 4716TIP3   OH235638   1.910   2.066  16.253 -0.9166 -0.2737 -0.3305
 4716TIP3    H135639   1.875   1.977  16.251  1.6097 -1.3516 -0.7646
 4716TIP3    H235640   1.968   2.071  16.178  0.7484  0.9480  0.9448
 4717TIP3   OH235641   2.982   2.424  11.106  0.0251 -0.1087  0.1605
 4717TIP3    H135642   2.992   2.463  11.019  3.7882 -0.2057  0.3654
 4717TIP3    H235643   2.979   2.330  11.089  0.4274 -0.1124  0.0974
 4718TIP3   OH235644   1.101   3.044   1.496  0.4031 -0.7951  0.2158
 4718TIP3    H135645   1.068   2.956   1.477 -2.3439  0.3130 -0.6939
 4718TIP3    H235646   1.030   3.085   1.544  1.2056  1.2501 -0.2629
 4719TIP3   OH235647   6.572   1.447   5.072  0.0099  0.9072 -0.0041
 4719TIP3    H135648   6.499   1.433   5.132  0.6388 -0.7447  0.4341
 4719TIP3    H235649   6.535   1.498   5.000 -1.1485  1.5488  1.0161
 4720TIP3   OH235650   2.514   2.813  11.374 -0.1725  0.6642  0.0472
 4720TIP3    H135651   2.508   2.908  11.368 -1.5068  0.5218 -2.2065
 4720TIP3    H235652   2.552   2.787  11.290 -0.9053 -0.8381  0.1493
 4721TIP3   OH235653   0.596   4.294   2.915 -0.5321 -0.5356  0.6018
 4721TIP3    H135654   0.635   4.245   2.987  0.0381 -0.1510  0.5574
 4721TIP3    H235655   0.631   4.252   2.836 -1.4488 -1.2012  0.5248
 4722TIP3   OH235656   1.053   3.057  12.339 -0.1176  0.4994 -0.4716
 4722TIP3    H135657   1.100   2.976  12.323 -1.0729 -0.2393  0.3233
 4722TIP3    H235658   1.114   3.126  12.314  1.6920 -0.3821  1.2475
 4723TIP3   OH235659   3.303   4.650   1.189  0.0023 -0.7984  0.5949
 4723TIP3    H135660   3.270   4.623   1.274 -0.6938 -1.1401  0.2236
 4723TIP3    H235661   3.351   4.731   1.206 -0.9289 -0.3498  1.1689
 4724TIP3   OH235662   5.031   2.837   5.556 -0.2936  0.1249  0.2268
 4724TIP3    H135663   4.974   2.803   5.487 -0.0063 -0.8448  0.4489
 4724TIP3    H235664   5.099   2.770   5.566  2.0258  2.0367 -1.3218
 4725TIP3   OH235665   0.954   3.168   2.111 -0.4472  1.0153 -0.3687
 4725TIP3    H135666   0.953   3.262   2.126  0.9154  0.9857 -0.0087
 4725TIP3    H235667   1.022   3.135   2.169 -1.0664 -0.2311 -0.3200
 4726TIP3   OH235668   4.181   2.080   2.134 -0.3735  0.2072  0.2239
 4726TIP3    H135669   4.270   2.093   2.168 -0.1587  2.0124 -0.8936
 4726TIP3    H235670   4.187   2.106   2.042 -1.8484 -0.6678 -0.1504
 4727TIP3   OH235671   2.601   4.132   5.708 -0.1515 -0.4425  0.2194
 4727TIP3    H135672   2.690   4.165   5.722 -0.6874  1.1917 -0.0738
 4727TIP3    H235673   2.612   4.036   5.707  1.4391 -0.3162  1.1858
 4728TIP3   OH235674   5.348   5.258  11.264 -0.1506  0.1477 -0.2228
 4728TIP3    H135675   5.298   5.255  11.182 -0.5404  2.4046 -0.1272
 4728TIP3    H235676   5.437   5.232  11.239 -0.3451  0.4809 -1.3074
 4729TIP3   OH235677   2.119   4.922  10.249 -0.2670 -0.8189  0.1595
 4729TIP3    H135678   2.192   4.861  10.241  1.5145  1.4153 -2.4877
 4729TIP3    H235679   2.148   4.986  10.314 -0.5052 -0.6882  0.1391
 4730TIP3   OH235680   0.276   0.634   1.155 -0.1901 -0.0515  0.2746
 4730TIP3    H135681   0.183   0.613   1.158 -0.4154  0.6057 -1.3413
 4730TIP3    H235682   0.296   0.665   1.244 -1.2444 -1.1864  0.9425
 4731TIP3   OH235683   4.366   4.745   1.165  0.4742  0.2360  0.1619
 4731TIP3    H135684   4.396   4.654   1.170 -1.2216 -0.8545 -4.6483
 4731TIP3    H235685   4.285   4.746   1.216  0.2705 -1.0975 -0.0820
 4732TIP3   OH235686   4.466   4.852   5.399  0.1518 -0.0832  0.1344
 4732TIP3    H135687   4.484   4.937   5.439  1.2332 -0.5093  0.6073
 4732TIP3    H235688   4.372   4.854   5.379  0.3655  1.6482 -0.9348
 4733TIP3   OH235689   5.892   3.506   2.506 -0.3073  0.0515  0.1462
 4733TIP3    H135690   5.925   3.490   2.418 -0.6634  1.2807 -0.2426
 4733TIP3    H235691   5.844   3.427   2.530  1.5274 -1.1129  0.0796
 4734TIP3   OH235692   6.552   1.044   5.820 -0.2005 -0.8285 -0.3247
 4734TIP3    H135693   6.547   1.000   5.735 -1.8085 -1.4426  0.0429
 4734TIP3    H235694   6.510   1.128   5.807 -1.4071 -1.3419  0.0740
 4735TIP3   OH235695   2.068   0.389  12.736  0.4256 -0.0477 -0.6200
 4735TIP3    H135696   2.069   0.339  12.818  0.3406 -0.7852 -1.0557
 4735TIP3    H235697   2.054   0.323  12.668 -1.4830  0.7834 -1.0849
 4736TIP3   OH235698   0.557   0.451  15.311  0.1106  0.2773  0.0168
 4736TIP3    H135699   0.622   0.381  15.300 -0.5057 -0.2084 -0.6010
 4736TIP3    H235700   0.481   0.421  15.260 -0.6802  0.7268  0.9105
 4737TIP3   OH235701   3.067   4.922  13.399 -0.2547 -0.0432  0.1773
 4737TIP3    H135702   3.026   5.009  13.400 -0.4431 -0.0947 -1.4238
 4737TIP3    H235703   3.023   4.875  13.328  1.7102 -0.5274 -0.7779
 4738TIP3   OH235704   1.786   2.242  13.918 -0.6068  0.1771 -0.7531
 4738TIP3    H135705   1.749   2.329  13.936 -1.3390  0.1026 -1.8338
 4738TIP3    H235706   1.855   2.232  13.984 -0.9744  1.2839 -0.1655
 4739TIP3   OH235707   4.947   2.564  14.248  0.0590  0.8714 -0.2803
 4739TIP3    H135708   5.002   2.555  14.170  0.0993 -2.5368 -0.0270
 4739TIP3    H235709   5.009   2.559  14.321 -0.1486  2.3108  0.0242
 4740TIP3   OH235710   0.865   6.096   4.127 -0.6477  0.2130 -0.0264
 4740TIP3    H135711   0.795   6.087   4.063 -0.2027  0.6543 -0.5886
 4740TIP3    H235712   0.829   6.154   4.194 -0.8072  0.4762 -0.3390
 4741TIP3   OH235713   3.136   6.540  13.924  0.5842 -0.6972 -0.3511
 4741TIP3    H135714   3.066   6.569  13.982 -0.2284 -2.8001 -0.1919
 4741TIP3    H235715   3.098   6.546  13.836  1.7204  2.2218 -0.7401
 4742TIP3   OH235716   5.901   2.550   2.388  0.2589  0.4232  0.8679
 4742TIP3    H135717   5.915   2.621   2.325  0.6924 -0.7668 -0.4308
 4742TIP3    H235718   5.809   2.560   2.414 -0.3850  0.1014 -1.0895
 4743TIP3   OH235719   6.791   1.895  14.562  0.3737 -0.1240  0.3520
 4743TIP3    H135720   6.806   1.934  14.648  0.6761 -0.3719  0.4161
 4743TIP3    H235721   6.702   1.859  14.566 -0.1722  1.1511  0.0588
 4744TIP3   OH235722   5.724   1.499   0.280  0.5229 -0.0127  0.0031
 4744TIP3    H135723   5.687   1.527   0.196  1.8861  0.9180 -0.3193
 4744TIP3    H235724   5.782   1.571   0.306  0.7512 -0.6482  1.3417
 4745TIP3   OH235725   0.025   5.443  14.915 -0.1291 -0.2041 -0.1783
 4745TIP3    H135726  -0.064   5.467  14.891 -0.0893 -0.0015 -0.1276
 4745TIP3    H235727   0.017   5.356  14.954 -0.2600 -0.3219 -0.4656
 4746TIP3   OH235728   5.397   1.160   1.777 -0.4094 -0.1327  0.1159
 4746TIP3    H135729   5.367   1.156   1.686 -0.4405  1.2958  0.0378
 4746TIP3    H235730   5.412   1.253   1.793  0.8928 -0.4954  1.1705
 4747TIP3   OH235731   0.201   5.910  16.136 -0.2029 -0.1293 -0.2623
 4747TIP3    H135732   0.231   5.997  16.164 -0.0229 -0.7255  1.5181
 4747TIP3    H235733   0.243   5.849  16.196 -0.2882 -1.4817 -1.5141
 4748TIP3   OH235734   3.008   6.559   5.510  0.2833  0.2996  0.1409
 4748TIP3    H135735   2.922   6.589   5.541 -0.2289 -0.0898 -0.8624
 4748TIP3    H235736   2.997   6.550   5.416  0.9924 -1.1433  0.1785
 4749TIP3   OH235737   0.878   1.104  15.122  0.1930 -0.3220 -0.0976
 4749TIP3    H135738   0.822   1.168  15.165 -0.5008 -0.9135 -0.1041
 4749TIP3    H235739   0.887   1.138  15.033 -1.4149 -0.9796 -0.5477
 4750TIP3   OH235740   3.340   5.557  16.546 -0.2249  0.1736 -0.1562
 4750TIP3    H135741   3.370   5.640  16.584 -0.6870 -0.1548  0.9834
 4750TIP3    H235742   3.249   5.574  16.520 -0.0864  0.2353 -0.6020
 4751TIP3   OH235743   3.489   3.634  14.984 -0.0235 -0.1588  0.3881
 4751TIP3    H135744   3.517   3.724  14.969  0.1015 -0.1866  0.4599
 4751TIP3    H235745   3.501   3.591  14.899 -0.9696  0.1291  0.1003
 4752TIP3   OH235746   4.506   6.066  16.477 -0.4536 -0.2617 -0.2985
 4752TIP3    H135747   4.522   6.151  16.519 -0.3347 -0.6396  0.4489
 4752TIP3    H235748   4.417   6.072  16.444 -0.5633  0.0368  0.0430
 4753TIP3   OH235749   0.928   4.000   1.900 -0.7223 -0.1091  0.2447
 4753TIP3    H135750   0.870   3.927   1.924 -2.4240  1.0686 -0.1158
 4753TIP3    H235751   0.907   4.069   1.962  0.2235  0.4092  0.0109
 4754TIP3   OH235752   5.547   5.834  13.296  0.5605 -0.4514  0.6940
 4754TIP3    H135753   5.576   5.893  13.366 -0.0630 -0.9361  1.3790
 4754TIP3    H235754   5.626   5.785  13.272  1.3141  1.2712 -0.5349
 4755TIP3   OH235755   2.307   5.580   2.116 -0.1183 -0.0092 -0.0980
 4755TIP3    H135756   2.220   5.602   2.084 -0.9597 -2.7898  0.0350
 4755TIP3    H235757   2.313   5.622   2.202 -1.8332 -0.8067  0.4333
 4756TIP3   OH235758   3.155   1.467   0.767  0.1878  0.1906  0.0156
 4756TIP3    H135759   3.163   1.405   0.695 -0.9849 -0.2728  0.2607
 4756TIP3    H235760   3.062   1.462   0.793  0.1619  1.7430  0.3018
 4757TIP3   OH235761   2.024   4.544  11.750  0.0684 -0.0540 -0.7738
 4757TIP3    H135762   1.976   4.508  11.825 -0.0167 -0.6362 -1.0979
 4757TIP3    H235763   2.048   4.633  11.776  0.0891 -0.2760 -0.0367
 4758TIP3   OH235764   3.387   6.230  13.440 -0.6053 -0.0146  0.2575
 4758TIP3    H135765   3.460   6.169  13.441  0.4992  1.2314 -0.5022
 4758TIP3    H235766   3.412   6.296  13.375 -1.7608  1.2259  1.0198
 4759TIP3   OH235767   3.762   2.304   1.793 -0.3489  0.2682 -0.0920
 4759TIP3    H135768   3.840   2.299   1.848 -0.2955 -1.7322 -0.2984
 4759TIP3    H235769   3.709   2.228   1.818 -1.2093  0.3627 -1.4952
 4760TIP3   OH235770   5.185   3.682   0.490  0.2161 -0.2094  0.1224
 4760TIP3    H135771   5.149   3.682   0.579 -2.6240 -2.4504 -0.9073
 4760TIP3    H235772   5.173   3.772   0.460 -4.4144 -0.6291  0.0457
 4761TIP3   OH235773   2.940   1.510   1.872 -0.0870  0.4070  0.1475
 4761TIP3    H135774   2.976   1.536   1.788  0.7285  0.9921  0.6655
 4761TIP3    H235775   3.016   1.488   1.926 -0.5195  1.0456  1.0606
 4762TIP3   OH235776   1.067   1.874   1.892  0.6446  0.3119  0.7691
 4762TIP3    H135777   1.026   1.953   1.856  0.0427 -0.1317  0.4704
 4762TIP3    H235778   1.060   1.809   1.822  0.1204 -0.3453  1.4121
 4763TIP3   OH235779   2.455   6.430  14.178  0.6052 -0.8717 -0.0443
 4763TIP3    H135780   2.431   6.500  14.238  1.0789 -0.1681 -0.6727
 4763TIP3    H235781   2.474   6.355  14.236  0.3888 -0.4109  0.6383
 4764TIP3   OH235782   2.670   0.686   0.853 -0.1154 -0.2025 -0.3803
 4764TIP3    H135783   2.578   0.705   0.870 -0.1024 -0.0389 -0.4846
 4764TIP3    H235784   2.669   0.616   0.788 -0.1723  0.1849 -0.8097
 4765TIP3   OH235785   5.027   3.605   5.041 -0.0585  0.3449  0.2276
 4765TIP3    H135786   5.094   3.651   4.990  0.9422 -1.1567  0.1275
 4765TIP3    H235787   4.944   3.632   5.002  0.6792 -1.6739 -3.1382
 4766TIP3   OH235788   4.829   5.453  13.713  0.1504 -0.1951  0.3556
 4766TIP3    H135789   4.844   5.372  13.762 -0.5574 -0.5910 -0.0563
 4766TIP3    H235790   4.914   5.475  13.676  0.3050 -0.8862  0.2831
 4767TIP3   OH235791   0.875   2.809  12.723  0.3444  0.0204 -0.4529
 4767TIP3    H135792   0.836   2.862  12.793  0.7122 -1.8434  1.2649
 4767TIP3    H235793   0.932   2.870  12.676  1.2048  1.0681  1.7891
 4768TIP3   OH235794   4.866   6.823   1.819  0.6680  0.6022  0.2992
 4768TIP3    H135795   4.805   6.861   1.755 -1.3150 -0.3928  1.4871
 4768TIP3    H235796   4.929   6.775   1.766  0.0897  1.1882 -0.9715
 4769TIP3   OH235797   1.931   3.696   3.665  0.1405 -0.4633 -0.1111
 4769TIP3    H135798   1.866   3.730   3.727 -2.6535 -0.7904 -2.6522
 4769TIP3    H235799   1.953   3.771   3.611  1.0450 -0.6406  0.0002
 4770TIP3   OH235800   4.678   3.455   4.043 -0.3325 -0.9622  0.2304
 4770TIP3    H135801   4.618   3.482   4.113  0.3277 -0.7120  0.7085
 4770TIP3    H235802   4.756   3.508   4.057 -0.0150 -1.2481 -0.4211
 4771TIP3   OH235803   6.263   4.873   3.879  0.3067  0.1332 -0.3656
 4771TIP3    H135804   6.310   4.906   3.803 -0.0536  4.0460  0.9069
 4771TIP3    H235805   6.332   4.854   3.943  0.4183  1.6015 -0.0244
 4772TIP3   OH235806   0.151   5.035  15.241  0.1514 -0.3125  0.0107
 4772TIP3    H135807   0.088   5.059  15.309  0.3361 -2.5512  1.0678
 4772TIP3    H235808   0.236   5.041  15.283  0.3574 -0.6743 -0.3398
 4773TIP3   OH235809   3.815   3.041   3.771 -0.1565 -0.2034 -0.0089
 4773TIP3    H135810   3.857   3.076   3.692  2.4255  1.6154  2.0034
 4773TIP3    H235811   3.868   2.966   3.795 -1.3452 -1.1753 -0.2830
 4774TIP3   OH235812   3.990   1.073  14.031 -0.1797  0.2940 -0.0592
 4774TIP3    H135813   3.968   1.001  13.971 -0.0083  1.0269 -1.0373
 4774TIP3    H235814   3.970   1.152  13.981 -2.1818  0.9752  1.6605
 4775TIP3   OH235815   0.413   2.082   5.615  0.4324 -0.2002 -0.0277
 4775TIP3    H135816   0.372   2.066   5.700 -0.5221 -1.2718 -0.6625
 4775TIP3    H235817   0.466   2.160   5.628  1.7700 -1.3882  2.0590
 4776TIP3   OH235818   3.732   6.334   3.953  0.4189 -0.0073 -0.4548
 4776TIP3    H135819   3.683   6.340   3.870  0.5364 -1.8297 -0.6822
 4776TIP3    H235820   3.812   6.383   3.936 -0.0707  0.6297 -1.0219
 4777TIP3   OH235821   2.365   5.146  12.186 -0.1751 -0.5608  0.3597
 4777TIP3    H135822   2.457   5.161  12.164  0.5078  3.4960  4.3888
 4777TIP3    H235823   2.317   5.197  12.120  0.8634  1.0079  0.7390
 4778TIP3   OH235824   5.598   0.402  12.042 -0.2323  0.0833 -0.5581
 4778TIP3    H135825   5.542   0.400  12.120  0.0755  0.3194 -0.3263
 4778TIP3    H235826   5.685   0.420  12.076 -0.0875  0.1425 -0.9580
 4779TIP3   OH235827   0.589   2.000  12.685 -0.5375 -0.7252  0.1721
 4779TIP3    H135828   0.561   1.918  12.643  0.3287 -1.2912  0.6770
 4779TIP3    H235829   0.507   2.048  12.700 -1.2399 -2.1696  1.2565
 4780TIP3   OH235830   4.204   1.793   2.193  0.0139  0.3352 -0.2447
 4780TIP3    H135831   4.191   1.869   2.136  0.9246 -0.4362 -1.5600
 4780TIP3    H235832   4.233   1.830   2.276  0.9628  1.4271 -1.0283
 4781TIP3   OH235833   5.805   2.564  14.198 -0.1997  0.6520  0.2895
 4781TIP3    H135834   5.839   2.501  14.261  0.0066 -0.4677 -0.9003
 4781TIP3    H235835   5.834   2.531  14.113 -1.2407  1.6141 -0.4688
 4782TIP3   OH235836   6.432   2.407   0.694 -0.2070  0.0461 -0.5217
 4782TIP3    H135837   6.511   2.436   0.648 -0.7213 -0.7253 -1.9576
 4782TIP3    H235838   6.462   2.383   0.782  0.7254  2.0141 -0.2555
 4783TIP3   OH235839   5.586   3.703   1.239  0.2177 -0.4562 -0.2559
 4783TIP3    H135840   5.593   3.794   1.211 -0.0614 -0.9467 -2.0729
 4783TIP3    H235841   5.528   3.706   1.315  0.8892  0.9532  0.2415
 4784TIP3   OH235842   5.495   4.591   2.088  0.2017  0.2219  0.1058
 4784TIP3    H135843   5.488   4.523   2.020 -1.6265  1.0629 -0.6271
 4784TIP3    H235844   5.569   4.645   2.061 -0.1376  0.1941 -0.9357
 4785TIP3   OH235845   6.377   5.296   5.134  1.0286  0.5127 -0.0567
 4785TIP3    H135846   6.379   5.295   5.230 -0.9924  1.2775  0.0508
 4785TIP3    H235847   6.410   5.383   5.111  2.6558 -0.0927 -0.1600
 4786TIP3   OH235848   1.305   4.391   1.209 -0.5016 -0.3775  0.2492
 4786TIP3    H135849   1.224   4.348   1.234 -1.5432  0.1664 -1.9562
 4786TIP3    H235850   1.347   4.331   1.147 -0.9808  0.8275 -1.3001
 4787TIP3   OH235851   0.090   6.773  16.211 -0.5491 -0.0109  0.2013
 4787TIP3    H135852   0.140   6.769  16.129 -1.6600  1.2851 -0.5686
 4787TIP3    H235853   0.076   6.681  16.234 -1.4480 -0.4317 -1.8416
 4788TIP3   OH235854   0.075   0.349   4.043  0.5543  0.3130 -0.4140
 4788TIP3    H135855   0.033   0.263   4.055  0.1373  0.3212 -1.6691
 4788TIP3    H235856   0.067   0.391   4.128 -0.9295 -0.1707 -0.2856
 4789TIP3   OH235857   5.745   5.582   1.795  0.1496  0.0717  0.4786
 4789TIP3    H135858   5.696   5.641   1.852  0.8553  0.5820  0.5589
 4789TIP3    H235859   5.765   5.506   1.851 -1.5473 -0.6904  0.1207
 4790TIP3   OH235860   6.327   6.565  13.413  0.5093  0.9940  0.0905
 4790TIP3    H135861   6.278   6.535  13.489  0.9025 -0.2439 -0.1390
 4790TIP3    H235862   6.372   6.644  13.443  0.9487  0.3180  1.2332
 4791TIP3   OH235863   6.641   3.958   1.244 -0.4794 -0.2362 -0.4562
 4791TIP3    H135864   6.672   3.924   1.160 -1.3130  0.3192 -1.0097
 4791TIP3    H235865   6.635   3.881   1.300  1.7103 -0.3840 -0.3577
 4792TIP3   OH235866   2.827   2.566   4.641 -0.2553  0.1477  0.1177
 4792TIP3    H135867   2.851   2.492   4.586 -1.3149 -0.0108 -0.1589
 4792TIP3    H235868   2.909   2.595   4.680  0.2845 -0.6865 -0.3730
 4793TIP3   OH235869   6.431   4.912   4.821 -0.1261  0.3621 -0.2831
 4793TIP3    H135870   6.486   4.933   4.897 -0.2602 -1.0396  0.2373
 4793TIP3    H235871   6.491   4.911   4.747  0.5371 -0.9237  0.2462
 4794TIP3   OH235872   6.496   1.676   1.585 -0.3342 -0.1357  0.8296
 4794TIP3    H135873   6.496   1.613   1.657  0.0238 -0.9518  0.1351
 4794TIP3    H235874   6.461   1.757   1.623  0.7074 -0.2789  2.1544
 4795TIP3   OH235875   5.992   1.105   0.978  0.1080  0.3500  0.4659
 4795TIP3    H135876   6.051   1.109   1.053  0.2361 -1.8488  0.5512
 4795TIP3    H235877   6.050   1.090   0.903 -0.2698 -2.9000  0.6809
 4796TIP3   OH235878   3.975   1.561   5.201  0.0852 -0.3345  0.6544
 4796TIP3    H135879   4.021   1.610   5.269 -1.5206 -0.4181  1.8527
 4796TIP3    H235880   3.963   1.474   5.239 -3.2833  0.3805  1.5178
 4797TIP3   OH235881   4.847   0.663   3.334 -0.1234  0.6810 -0.1579
 4797TIP3    H135882   4.817   0.652   3.424 -1.3273  1.4517 -0.4409
 4797TIP3    H235883   4.938   0.691   3.343  0.7862 -2.1511  0.7134
 4798TIP3   OH235884   1.307   6.388  16.572  0.1619  0.1313  0.3290
 4798TIP3    H135885   1.389   6.344  16.597  0.3866  0.3290 -0.0385
 4798TIP3    H235886   1.238   6.326  16.596  0.5220 -0.8275 -0.9903
 4799TIP3   OH235887   4.479   0.054   4.196  0.2521 -0.1002 -0.0107
 4799TIP3    H135888   4.490   0.025   4.287 -0.7751  0.1864  0.2234
 4799TIP3    H235889   4.484  -0.026   4.144 -1.9899 -0.6969  0.5751
 4800TIP3   OH235890   6.294   0.595   4.251  0.0034 -0.0993 -0.1267
 4800TIP3    H135891   6.365   0.594   4.316 -0.4458 -0.0567  0.3663
 4800TIP3    H235892   6.319   0.665   4.190  0.0949  0.3011  0.3674
 4801TIP3   OH235893   1.409   4.943  10.248 -0.6078 -0.5923  0.3672
 4801TIP3    H135894   1.369   4.928  10.163  0.2347  0.3154 -0.2092
 4801TIP3    H235895   1.454   4.861  10.269  0.9809 -0.1595 -1.0847
 4802TIP3   OH235896   4.503   6.331   1.844  0.1767 -0.1912  0.0390
 4802TIP3    H135897   4.550   6.280   1.910 -0.9956 -1.7095 -0.2141
 4802TIP3    H235898   4.435   6.377   1.894  0.4402  0.1057  0.1202
 4803TIP3   OH235899   5.952   2.422   4.143 -0.2495 -0.1216 -0.5527
 4803TIP3    H135900   5.916   2.498   4.191  1.5971  0.1935  0.4093
 4803TIP3    H235901   5.883   2.399   4.081 -1.0277  2.1190 -0.6148
 4804TIP3   OH235902   3.625   0.599  16.953 -0.4311  0.7805  0.6233
 4804TIP3    H135903   3.547   0.619  17.004 -1.4836  2.2796 -1.3867
 4804TIP3    H235904   3.606   0.516  16.910 -0.1580  0.2656  1.4740
 4805TIP3   OH235905   6.353   1.638  12.123  0.6043  0.5698  0.5294
 4805TIP3    H135906   6.449   1.648  12.123  0.5762  0.9593 -0.5381
 4805TIP3    H235907   6.338   1.562  12.179  1.6579 -0.3527 -0.3663
 4806TIP3   OH235908   2.917   5.585   3.023 -0.6170  0.1129 -0.1193
 4806TIP3    H135909   2.941   5.494   3.041 -0.0595  0.2081 -0.3827
 4806TIP3    H235910   2.976   5.637   3.078  1.2059  0.4202 -2.2597
 4807TIP3   OH235911   3.435   3.926   1.060 -0.2453 -0.5925 -0.1643
 4807TIP3    H135912   3.394   3.864   1.001  0.4443 -0.2347 -1.0428
 4807TIP3    H235913   3.428   4.011   1.016 -1.6519  0.0827  1.2541
 4808TIP3   OH235914   5.151   2.137  16.183 -0.5428 -0.1551 -0.1611
 4808TIP3    H135915   5.076   2.173  16.136 -0.0298 -1.9609 -2.5719
 4808TIP3    H235916   5.226   2.185  16.148 -0.0671 -2.0617 -1.9656
 4809TIP3   OH235917   4.677   1.105   0.265 -0.1047 -0.3900 -0.1552
 4809TIP3    H135918   4.753   1.162   0.276  0.4707 -1.0879 -0.3995
 4809TIP3    H235919   4.711   1.017   0.284 -0.8063 -0.7281 -0.4436
 4810TIP3   OH235920   1.742   6.839   2.460  0.9783  0.0109  0.0705
 4810TIP3    H135921   1.778   6.888   2.386  3.0195 -0.4995  0.6551
 4810TIP3    H235922   1.693   6.768   2.419  1.5380  0.1058 -0.7995
 4811TIP3   OH235923   2.068   5.994   4.548  0.1338  0.1586 -0.6195
 4811TIP3    H135924   2.060   6.083   4.515  0.2677  0.1680 -0.6249
 4811TIP3    H235925   2.161   5.972   4.538  0.3456  0.4760  0.5854
 4812TIP3   OH235926   3.794   0.089  16.242  0.5262  0.1290 -0.4546
 4812TIP3    H135927   3.782   0.042  16.324 -2.5895  0.3484 -0.6564
 4812TIP3    H235928   3.889   0.095  16.231  1.0515 -0.3958  2.8175
 4813TIP3   OH235929   0.856   0.360   0.798  0.1224  0.1830 -0.2715
 4813TIP3    H135930   0.804   0.432   0.834 -1.5813 -1.0157 -0.2208
 4813TIP3    H235931   0.841   0.287   0.857 -0.0427 -0.8727 -1.5584
 4814TIP3   OH235932   4.512   0.013   0.169 -0.3439  0.2820  0.2491
 4814TIP3    H135933   4.534   0.106   0.160  0.1879  0.1344  0.0181
 4814TIP3    H235934   4.448  -0.003   0.099  0.2607  0.2572 -0.3046
 4815TIP3   OH235935   4.649   2.211   2.330 -0.2295  0.1146 -0.1166
 4815TIP3    H135936   4.667   2.261   2.410  0.5036 -0.0247 -0.1921
 4815TIP3    H235937   4.598   2.271   2.276 -0.7085  0.2198  0.4430
 4816TIP3   OH235938   3.365   0.388   2.768  0.2932  0.0282  0.4319
 4816TIP3    H135939   3.303   0.317   2.786 -1.1779  1.2264  0.2601
 4816TIP3    H235940   3.383   0.426   2.854 -0.5899  0.7861  0.2869
 4817TIP3   OH235941   1.175   2.521   4.608  0.2418  0.5511 -0.5056
 4817TIP3    H135942   1.226   2.500   4.686  0.9147 -0.0573 -1.1008
 4817TIP3    H235943   1.137   2.607   4.627  0.8572  0.6644  0.2586
 4818TIP3   OH235944   6.367   3.617  12.987  0.0012 -0.4318  0.4042
 4818TIP3    H135945   6.356   3.641  12.895 -0.8105  0.6130  0.7511
 4818TIP3    H235946   6.387   3.700  13.032  2.5640 -1.2067  0.8951
 4819TIP3   OH235947   6.325   2.121  14.357  0.6898 -0.9275 -0.4183
 4819TIP3    H135948   6.264   2.066  14.407 -1.3508 -0.6789 -2.4809
 4819TIP3    H235949   6.394   2.061  14.328  0.8184 -1.4678  0.9571
 4820TIP3   OH235950   6.447   4.617  15.794  0.0345  0.0520 -0.0563
 4820TIP3    H135951   6.405   4.583  15.873 -1.2147  1.1296 -0.2293
 4820TIP3    H235952   6.505   4.546  15.765 -0.3194 -0.7768  1.1987
 4821TIP3   OH235953   5.912   3.164  11.063  0.1931  0.0297  0.3199
 4821TIP3    H135954   5.982   3.107  11.093  0.2640  0.6405  1.3376
 4821TIP3    H235955   5.860   3.108  11.004  0.1241 -1.1687  1.4724
 4822TIP3   OH235956   2.317   3.597  13.449  0.4452 -0.5872 -0.2846
 4822TIP3    H135957   2.265   3.621  13.372  0.8724 -1.0972 -0.7379
 4822TIP3    H235958   2.377   3.671  13.462  0.8181 -0.7905 -0.8409
 4823TIP3   OH235959   6.661   5.067  16.575 -0.5652 -0.2355 -1.0904
 4823TIP3    H135960   6.741   5.119  16.587 -1.5977  0.9848  1.3348
 4823TIP3    H235961   6.612   5.112  16.506  0.8869 -1.1572 -2.8019
 4824TIP3   OH235962   3.173   2.826  13.733 -0.3296 -0.0016 -0.0304
 4824TIP3    H135963   3.175   2.731  13.723  2.2388 -0.1000  0.6176
 4824TIP3    H235964   3.128   2.858  13.655 -0.1567 -1.7067 -0.8564
 4825TIP3   OH235965   4.101   0.827   3.805 -0.0347  0.1395  0.0880
 4825TIP3    H135966   4.011   0.855   3.787  0.4069  0.5765 -1.6146
 4825TIP3    H235967   4.124   0.772   3.731  0.8095 -0.7133  0.9653
 4826TIP3   OH235968   3.796   5.200   5.044  0.0463  0.4681 -0.2822
 4826TIP3    H135969   3.825   5.189   5.135 -0.9373  0.4096  0.0415
 4826TIP3    H235970   3.856   5.147   4.993  0.8481  0.8042  0.2937
 4827TIP3   OH235971   3.679   2.246  14.735  0.4746 -0.1332 -0.4314
 4827TIP3    H135972   3.673   2.335  14.701  0.7636 -0.0494 -0.2755
 4827TIP3    H235973   3.591   2.225  14.764  0.5945  0.4640  0.4091
 4828TIP3   OH235974   1.544   2.988  14.842 -0.1366  0.2159 -0.1737
 4828TIP3    H135975   1.484   3.046  14.794  0.4358  1.5784  0.6934
 4828TIP3    H235976   1.510   2.989  14.932  0.5884  0.1770  0.1015
 4829TIP3   OH235977   2.757   4.811  10.641 -0.3066  0.0090  0.3937
 4829TIP3    H135978   2.766   4.721  10.610 -3.8076  0.7121 -3.6678
 4829TIP3    H235979   2.831   4.857  10.603 -1.9988 -0.1238 -3.5936
 4830TIP3   OH235980   2.740   4.496   5.680  0.2126 -0.5892  0.1374
 4830TIP3    H135981   2.667   4.441   5.711  0.8744 -1.7662 -0.3054
 4830TIP3    H235982   2.722   4.582   5.716 -0.5834 -1.2193  1.3356
 4831TIP3   OH235983   5.342   5.048   1.721 -0.4400  0.0257 -0.0966
 4831TIP3    H135984   5.387   5.034   1.805  0.0334 -0.1862 -0.3791
 4831TIP3    H235985   5.250   5.061   1.745 -0.3198 -0.0955  0.4505
 4832TIP3   OH235986   6.277   4.625   3.211  0.2668 -0.0126 -0.4374
 4832TIP3    H135987   6.236   4.664   3.133  0.1051  0.5102 -0.1000
 4832TIP3    H235988   6.210   4.634   3.279  0.1715 -1.0284 -0.3855
 4833TIP3   OH235989   5.195   5.102  16.497 -0.3142  0.0050 -0.1177
 4833TIP3    H135990   5.124   5.138  16.443 -0.0473  1.5835  0.5272
 4833TIP3    H235991   5.236   5.036  16.442 -1.4022  0.0516 -1.0244
 4834TIP3   OH235992   2.143   4.060  12.649 -0.0653 -0.1210 -0.1613
 4834TIP3    H135993   2.237   4.063  12.633  0.1230  0.0463  0.9161
 4834TIP3    H235994   2.135   4.026  12.738 -0.9800  1.0278  0.2137
 4835TIP3   OH235995   2.528   2.373  11.538 -0.0984  0.1474 -0.3201
 4835TIP3    H135996   2.600   2.358  11.477 -1.9923  0.3958 -2.7569
 4835TIP3    H235997   2.517   2.468  11.541  0.5834  0.2124  1.2436
 4836TIP3   OH235998   6.635   0.191  14.179 -0.0751  0.4887  0.0184
 4836TIP3    H135999   6.576   0.258  14.143  0.4175 -0.2694 -2.4006
 4836TIP3    H236000   6.579   0.139  14.237 -1.0910  1.4573 -0.0535
 4837TIP3   OH236001   3.211   2.288  15.563  0.0480  0.2691 -1.1242
 4837TIP3    H136002   3.239   2.228  15.633 -2.4436 -1.0935 -1.1839
 4837TIP3    H236003   3.116   2.280  15.561 -0.0447  0.9526 -4.0873
 4838TIP3   OH236004   6.724   2.923  13.340  0.6841 -0.4648  0.1558
 4838TIP3    H136005   6.669   2.850  13.370 -3.1755  1.4336 -1.5954
 4838TIP3    H236006   6.767   2.890  13.261 -0.6354 -1.0653 -0.3408
 4839TIP3   OH236007   5.334   0.621  15.552  0.5330 -0.2980  0.0013
 4839TIP3    H136008   5.418   0.664  15.568  0.5081 -0.5280  0.8173
 4839TIP3    H236009   5.272   0.670  15.606  0.7734 -2.2858  2.2659
 4840TIP3   OH236010   0.805   2.061   2.478  0.0520  0.8139  0.1831
 4840TIP3    H136011   0.858   2.044   2.400 -0.9231  2.1954 -0.8313
 4840TIP3    H236012   0.818   2.155   2.495 -0.4591  0.7197  1.1503
 4841TIP3   OH236013   5.270   6.146   5.730  0.5752  0.4887 -0.5461
 4841TIP3    H136014   5.304   6.069   5.775  1.5101  0.9009 -0.5095
 4841TIP3    H236015   5.205   6.112   5.669 -0.6176 -0.0948  0.9942
 4842TIP3   OH236016   4.046   3.101  16.591 -0.0101  0.0566 -0.3469
 4842TIP3    H136017   4.084   3.181  16.556  1.4228 -0.1065  0.7566
 4842TIP3    H236018   4.074   3.032  16.530 -0.7899  0.2977 -0.9933
 4843TIP3   OH236019   2.380   4.221  16.802  0.3563  0.1475  0.3728
 4843TIP3    H136020   2.286   4.236  16.812  0.5736  1.5037  0.4941
 4843TIP3    H236021   2.403   4.167  16.878 -0.0408  1.1814  1.2561
 4844TIP3   OH236022   2.178   4.928  11.134  0.2382  0.2433  0.0897
 4844TIP3    H136023   2.264   4.937  11.092  0.7759  0.1315  1.1220
 4844TIP3    H236024   2.192   4.861  11.201 -1.7842 -3.1879 -2.5760
 4845TIP3   OH236025   1.519   0.314  15.683 -0.3242 -0.2427 -0.5399
 4845TIP3    H136026   1.472   0.330  15.765  1.4145 -0.8045  0.6222
 4845TIP3    H236027   1.547   0.223  15.689  0.6248 -0.0177 -1.3137
 4846TIP3   OH236028   6.158   3.192   2.713 -0.2863  0.5738 -0.3514
 4846TIP3    H136029   6.186   3.269   2.664 -0.5017  1.1250  0.3748
 4846TIP3    H236030   6.147   3.223   2.803  2.6877 -0.9754  0.6866
 4847TIP3   OH236031   4.448   5.557  14.170 -0.0641  0.1216  0.0648
 4847TIP3    H136032   4.516   5.588  14.110  0.4596 -0.8530  0.1445
 4847TIP3    H236033   4.434   5.631  14.230 -0.9055  1.2810 -1.4718
 4848TIP3   OH236034   2.464   5.212   3.828 -0.2853 -0.0242  0.6041
 4848TIP3    H136035   2.503   5.269   3.893 -0.4811  0.7957  0.0164
 4848TIP3    H236036   2.520   5.134   3.828  0.0968  0.2418  1.2680
 4849TIP3   OH236037   4.530   1.828  13.757  0.2722  0.0233 -0.3215
 4849TIP3    H136038   4.570   1.915  13.750  1.4632 -0.5958 -2.1022
 4849TIP3    H236039   4.494   1.811  13.670 -3.2127  0.1384  0.9320
 4850TIP3   OH236040   0.731   1.102  10.333 -0.1045 -0.3075  0.7545
 4850TIP3    H136041   0.801   1.086  10.396  0.2816  0.0256  0.4209
 4850TIP3    H236042   0.693   1.016  10.316 -1.8716 -0.1126  3.3175
 4851TIP3   OH236043   2.643   0.424  15.391 -0.1042  0.1176  0.0763
 4851TIP3    H136044   2.685   0.340  15.413  0.5171  0.3668 -0.1503
 4851TIP3    H236045   2.680   0.448  15.306  0.0680  0.8502  0.3527
 4852TIP3   OH236046   3.695   1.919   4.961  0.0504 -0.0117  0.3332
 4852TIP3    H136047   3.722   2.009   4.978 -0.6702  0.1234  0.7846
 4852TIP3    H236048   3.604   1.915   4.989 -0.2606 -0.5971 -0.7252
 4853TIP3   OH236049   6.760   4.992   5.141 -0.5180  0.3707  0.0858
 4853TIP3    H136050   6.819   5.030   5.205  0.6723 -0.8650 -0.2341
 4853TIP3    H236051   6.678   4.980   5.189  0.2261 -0.1470  1.2722
 4854TIP3   OH236052   6.148   1.611   2.673 -0.2385  0.3671  0.4059
 4854TIP3    H136053   6.089   1.677   2.638  1.1353  2.3924  1.6981
 4854TIP3    H236054   6.230   1.624   2.626 -0.8913 -3.0661 -2.0972
 4855TIP3   OH236055   0.071   5.626  13.701  0.3994 -0.3021  0.1493
 4855TIP3    H136056   0.010   5.559  13.732 -0.7409  0.9016  0.6091
 4855TIP3    H236057   0.070   5.693  13.770  2.2154 -0.2166  0.1343
 4856TIP3   OH236058   4.365   2.075   4.451  0.1022  0.2588 -0.3736
 4856TIP3    H136059   4.359   2.136   4.377 -0.3263  1.1594  0.4001
 4856TIP3    H236060   4.391   2.129   4.525 -0.8083 -0.3994  0.4413
 4857TIP3   OH236061   0.078   3.624  16.145  0.0099  0.8269 -0.3371
 4857TIP3    H136062   0.105   3.585  16.229  2.8670  1.1859 -1.0010
 4857TIP3    H236063   0.148   3.601  16.084 -1.2499  1.8702 -2.2827
 4858TIP3   OH236064   1.159   5.602   0.176 -0.6380 -0.3344  0.3719
 4858TIP3    H136065   1.225   5.555   0.227  0.5389  0.6777 -0.1742
 4858TIP3    H236066   1.077   5.586   0.223  0.2276 -0.3501  1.9404
 4859TIP3   OH236067   0.351   6.400   3.225 -0.8134 -0.5025 -0.4481
 4859TIP3    H136068   0.312   6.343   3.158 -1.7855 -0.5672  0.1549
 4859TIP3    H236069   0.440   6.365   3.237  0.5001  1.2510 -3.7380
 4860TIP3   OH236070   1.304   2.666   0.074  0.3080  0.5554  0.0227
 4860TIP3    H136071   1.229   2.726   0.075 -0.2654 -0.1225 -0.6775
 4860TIP3    H236072   1.357   2.695  -0.001  1.1615  1.4988  0.9574
 4861TIP3   OH236073   6.770   1.683  10.949 -0.4127  0.6061  0.4690
 4861TIP3    H136074   6.830   1.717  11.016 -1.3696  4.3615 -0.3603
 4861TIP3    H236075   6.828   1.637  10.888  0.9590  0.1515  2.0229
 4862TIP3   OH236076   1.210   0.223   1.051  0.3765  0.2411  0.4651
 4862TIP3    H136077   1.150   0.150   1.038 -1.1129  1.1779  1.7129
 4862TIP3    H236078   1.249   0.208   1.137 -0.8548  1.4636  1.2906
 4863TIP3   OH236079   6.407   5.192   2.942  0.2737 -0.9133 -0.0729
 4863TIP3    H136080   6.484   5.208   2.997  1.5237 -0.9185 -1.7439
 4863TIP3    H236081   6.378   5.104   2.966  0.6162 -0.8135  0.7528
 4864TIP3   OH236082   5.162   1.430  14.876  0.0993 -1.1925 -0.2079
 4864TIP3    H136083   5.215   1.504  14.904  0.3798 -1.1532 -0.8247
 4864TIP3    H236084   5.225   1.359  14.862 -0.2873 -1.9308  1.5670
 4865TIP3   OH236085   5.069   3.281   0.270  0.4766 -0.5631 -0.1536
 4865TIP3    H136086   5.096   3.363   0.227  0.2542 -1.7447 -2.7359
 4865TIP3    H236087   5.151   3.241   0.299  0.5270  0.9860  2.1533
 4866TIP3   OH236088   1.017   4.536  12.898 -0.4661 -0.4615 -0.1629
 4866TIP3    H136089   0.975   4.588  12.829 -2.0801  0.9816  1.7780
 4866TIP3    H236090   1.021   4.596  12.973 -0.6611 -2.5760  1.6205
 4867TIP3   OH236091   0.415   3.892  11.387  0.0393  0.2417 -0.0339
 4867TIP3    H136092   0.493   3.916  11.338  0.3663 -2.4989 -1.0138
 4867TIP3    H236093   0.432   3.922  11.476  0.8878  2.2959 -0.8327
 4868TIP3   OH236094   2.284   6.629  16.497  0.4604 -0.0161  0.1521
 4868TIP3    H136095   2.219   6.562  16.477 -0.4839  1.0585 -0.5073
 4868TIP3    H236096   2.283   6.635  16.593 -2.1358  1.5565  0.1198
 4869TIP3   OH236097   0.653   4.777   3.878 -0.5430 -0.4088 -0.1386
 4869TIP3    H136098   0.701   4.813   3.804 -0.5461  1.4019  0.6860
 4869TIP3    H236099   0.595   4.711   3.839  1.4413 -1.5426 -1.3346
 4870TIP3   OH236100   1.854   0.313   2.756  0.2462  0.0703 -0.4465
 4870TIP3    H136101   1.888   0.372   2.688  1.6145 -0.3266 -0.1505
 4870TIP3    H236102   1.828   0.235   2.708  3.6136 -1.2688 -0.3979
 4871TIP3   OH236103   0.877   6.584  10.734  0.1410 -0.2013  0.0759
 4871TIP3    H136104   0.938   6.514  10.711 -1.5630 -1.6148 -0.4705
 4871TIP3    H236105   0.849   6.619  10.649  0.2104  0.4372  0.3152
 4872TIP3   OH236106   1.109   0.443   2.222  0.4587 -0.2409 -0.2304
 4872TIP3    H136107   1.132   0.523   2.175  0.8691 -0.4837 -0.4455
 4872TIP3    H236108   1.094   0.378   2.154 -1.7330  0.1170 -0.1459
 4873TIP3   OH236109   4.407   2.455  11.898 -0.5985  0.4147 -0.4137
 4873TIP3    H136110   4.312   2.466  11.885 -0.5804  0.6542 -0.3587
 4873TIP3    H236111   4.444   2.538  11.868 -0.5869  1.1773  1.5701
 4874TIP3   OH236112   2.255   5.339  12.352  0.5150 -0.3015  0.2902
 4874TIP3    H136113   2.284   5.403  12.287  0.0754 -0.0390  0.3491
 4874TIP3    H236114   2.291   5.256  12.321 -0.8710 -0.4273 -1.0689
 4875TIP3   OH236115   1.987   4.372  12.821  0.3719 -0.1096  0.2310
 4875TIP3    H136116   1.953   4.317  12.750  1.1013 -1.2392  0.7185
 4875TIP3    H236117   1.985   4.315  12.898  2.3282  0.1223  0.5039
 4876TIP3   OH236118   5.727   3.886   2.949  0.1125 -0.0844 -0.3753
 4876TIP3    H136119   5.646   3.936   2.942  0.1966  0.1754  0.3947
 4876TIP3    H236120   5.699   3.796   2.960 -0.0991  0.0709  0.4623
 4877TIP3   OH236121   3.991   5.886   2.981  0.0022  0.0076 -0.0893
 4877TIP3    H136122   3.992   5.980   2.967  1.7213 -0.0610 -0.6679
 4877TIP3    H236123   4.008   5.849   2.894  1.0582 -0.7663  0.4310
 4878TIP3   OH236124   5.324   4.723  15.047  0.5440 -0.3349 -0.0429
 4878TIP3    H136125   5.378   4.644  15.045  0.6419 -0.2550 -1.6617
 4878TIP3    H236126   5.386   4.795  15.030  0.1271 -0.1399 -0.8090
 4879TIP3   OH236127   5.037   0.714   6.441  0.0346  0.4386  0.2871
 4879TIP3    H136128   5.093   0.657   6.494 -0.3476  0.8179  1.1236
 4879TIP3    H236129   5.035   0.796   6.490 -0.1963  0.8519 -0.4146
 4880TIP3   OH236130   4.231   4.549  16.174 -0.0837  0.4559 -1.1132
 4880TIP3    H136131   4.275   4.631  16.151  0.5141  0.6815  0.6581
 4880TIP3    H236132   4.267   4.484  16.114  1.3975  0.9906 -0.8320
 4881TIP3   OH236133   1.709   3.741  13.130  1.5170 -0.5012 -0.1078
 4881TIP3    H136134   1.715   3.712  13.039  1.4990  1.5130 -0.7906
 4881TIP3    H236135   1.723   3.661  13.181  1.7656 -1.6363 -1.8574
 4882TIP3   OH236136   5.264   2.011   3.297  0.0585 -0.6378  0.1004
 4882TIP3    H136137   5.305   1.927   3.276  1.0440 -0.2824  0.5683
 4882TIP3    H236138   5.327   2.055   3.354 -1.1082 -0.2196  1.1261
 4883TIP3   OH236139   0.331   1.573  16.778 -0.1139  0.0186  0.1980
 4883TIP3    H136140   0.268   1.645  16.771  0.7155  0.7544  0.0927
 4883TIP3    H236141   0.303   1.524  16.855 -1.6910 -0.5519 -0.6823
 4884TIP3   OH236142   4.799   5.551   4.650 -0.6079 -0.0687  0.5213
 4884TIP3    H136143   4.808   5.456   4.646 -0.5647 -0.0237 -1.2559
 4884TIP3    H236144   4.878   5.585   4.608 -0.8715  0.7428  0.6519
 4885TIP3   OH236145   0.718   4.959   0.686 -0.5012  0.0485 -0.0864
 4885TIP3    H136146   0.637   4.910   0.673 -0.7259  0.0928  1.0922
 4885TIP3    H236147   0.785   4.892   0.701 -0.6156  0.0624  0.4963
 4886TIP3   OH236148   3.514   4.497  13.325  0.0589 -0.0490  0.5656
 4886TIP3    H136149   3.488   4.485  13.416 -1.2700 -0.4056  0.1560
 4886TIP3    H236150   3.432   4.499  13.276  0.7792 -3.7098 -1.1082
 4887TIP3   OH236151   6.270   4.378   5.350 -0.9388  0.0482  0.0010
 4887TIP3    H136152   6.295   4.347   5.263 -2.8902  1.4041 -1.0929
 4887TIP3    H236153   6.176   4.392   5.345 -1.2656 -0.6844  2.6332
 4888TIP3   OH236154   2.561   3.165  16.949 -0.3031 -0.0068 -0.3266
 4888TIP3    H136155   2.554   3.243  16.895 -0.3647  0.3636  0.2075
 4888TIP3    H236156   2.612   3.193  17.025 -0.5118 -0.4258 -0.0265
 4889TIP3   OH236157   1.095   4.788  11.892 -0.0156  0.6479  0.3863
 4889TIP3    H136158   1.119   4.776  11.800 -0.5749 -0.2224  0.3396
 4889TIP3    H236159   1.013   4.740  11.902  0.6951 -0.3944  1.6287
 4890TIP3   OH236160   3.616   6.580  13.597  0.2296 -0.1299 -0.2312
 4890TIP3    H136161   3.602   6.582  13.502 -2.4089  0.0282  0.0774
 4890TIP3    H236162   3.527   6.581  13.634  1.1923  0.2054  2.2531
 4891TIP3   OH236163   5.325   3.554  14.290  0.4661 -0.0490 -0.5240
 4891TIP3    H136164   5.263   3.482  14.301  1.8624 -1.4371 -1.2454
 4891TIP3    H236165   5.290   3.605  14.218 -1.1477  0.6923  0.7455
 4892TIP3   OH236166   4.035   1.983  15.796  0.0127 -0.2606  0.4890
 4892TIP3    H136167   4.089   1.909  15.824 -2.2554 -1.8854  0.8015
 4892TIP3    H236168   4.062   1.999  15.706  0.1508 -1.9037  0.1974
 4893TIP3   OH236169   4.396   6.707  13.024  0.0564  0.0403  0.2509
 4893TIP3    H136170   4.322   6.685  12.968 -0.7087  1.4192  0.6725
 4893TIP3    H236171   4.369   6.681  13.112  0.6837 -0.7957  0.2150
 4894TIP3   OH236172   4.325   2.394   0.027  0.0393  0.6069  0.0479
 4894TIP3    H136173   4.282   2.397   0.113 -0.1359 -1.5356  0.0884
 4894TIP3    H236174   4.392   2.463   0.032 -0.8612  1.4379  1.3785
 4895TIP3   OH236175   0.755   5.598   5.651 -0.4398 -0.1930  0.1237
 4895TIP3    H136176   0.691   5.543   5.696 -1.2596 -1.9865 -2.9016
 4895TIP3    H236177   0.702   5.664   5.606  0.0160 -0.2812 -0.5705
 4896TIP3   OH236178   0.684   2.343   1.884  0.3482  0.0116 -0.1268
 4896TIP3    H136179   0.659   2.340   1.976 -0.3976 -2.3712 -0.3507
 4896TIP3    H236180   0.689   2.251   1.857 -1.2037  0.6326 -2.9358
 4897TIP3   OH236181   4.482   5.285   5.249  0.3669 -0.4202  0.3456
 4897TIP3    H136182   4.515   5.232   5.176  0.5325  0.3640 -0.1660
 4897TIP3    H236183   4.399   5.320   5.217  2.2433  3.2518 -1.1848
 4898TIP3   OH236184   0.563   3.816   4.223  0.1830  0.1616  0.0352
 4898TIP3    H136185   0.550   3.906   4.252 -2.4692 -0.2341  0.3113
 4898TIP3    H236186   0.521   3.812   4.137  1.5048 -0.5059 -0.6136
 4899TIP3   OH236187   0.860   2.555  11.799 -0.1257 -0.5569  0.5558
 4899TIP3    H136188   0.910   2.484  11.761  2.3861  0.7860  1.0953
 4899TIP3    H236189   0.801   2.584  11.730  1.5931 -0.6632 -1.0235
 4900TIP3   OH236190   3.017   0.316  11.910  0.2587  0.0467 -0.3719
 4900TIP3    H136191   3.059   0.395  11.875 -1.0613 -0.2402 -2.8943
 4900TIP3    H236192   2.944   0.349  11.963  1.1302  0.5001  0.5685
 4901TIP3   OH236193   6.579   5.127   9.618 -0.3041  0.1463  0.6524
 4901TIP3    H136194   6.599   5.034   9.606  1.5557  0.2409  2.5820
 4901TIP3    H236195   6.505   5.128   9.679 -2.0471 -0.0439 -1.3293
 4902TIP3   OH236196   1.175   5.753  16.030  0.3901  0.7695 -0.1414
 4902TIP3    H136197   1.253   5.803  16.005  0.2774  0.4544 -1.2104
 4902TIP3    H236198   1.102   5.799  15.988  0.0335  0.8721  0.5742
 4903TIP3   OH236199   3.695   0.244  17.057 -0.1242 -0.2557  0.1431
 4903TIP3    H136200   3.715   0.319  17.114 -0.1705  1.3574 -1.8236
 4903TIP3    H236201   3.600   0.236  17.061 -0.1092 -0.2858  0.4565
 4904TIP3   OH236202   3.284   0.774  13.684 -0.0038 -0.1854  0.3650
 4904TIP3    H136203   3.254   0.787  13.594 -0.0156 -0.3735  0.3404
 4904TIP3    H236204   3.361   0.717  13.675  0.7595  0.8251  0.3694
 4905TIP3   OH236205   1.248   2.814  14.051  0.5724  0.8876 -0.4206
 4905TIP3    H136206   1.242   2.777  13.963 -2.1983  1.9008 -0.7486
 4905TIP3    H236207   1.236   2.740  14.110 -0.9516  0.6622 -0.9921
 4906TIP3   OH236208   2.530   6.630  12.013 -0.2303  0.4320 -0.4569
 4906TIP3    H136209   2.603   6.580  12.050  0.0545  0.3693 -1.1076
 4906TIP3    H236210   2.456   6.569  12.014 -0.1258  0.3068 -0.3496
 4907TIP3   OH236211   5.472   2.129  11.660 -0.6422 -0.1321  0.0494
 4907TIP3    H136212   5.475   2.074  11.739 -1.3607 -1.3268 -0.7198
 4907TIP3    H236213   5.482   2.218  11.693 -0.0075 -0.6653  1.4010
 4908TIP3   OH236214   1.064   6.809  12.434 -0.0183 -0.4327 -0.8104
 4908TIP3    H136215   0.973   6.794  12.406  0.0508  1.1820 -2.0182
 4908TIP3    H236216   1.107   6.725  12.418 -1.7330 -2.0289  1.9649
 4909TIP3   OH236217   6.612   5.560  16.513  0.3045 -0.0301  0.6693
 4909TIP3    H136218   6.631   5.550  16.420 -0.6561 -1.3209  0.5787
 4909TIP3    H236219   6.598   5.653  16.525  3.3558  0.6108  0.1456
 4910TIP3   OH236220   0.400   2.923  17.036  0.1511  0.1658 -0.2952
 4910TIP3    H136221   0.407   2.831  17.013  1.0396  0.4412 -1.2139
 4910TIP3    H236222   0.391   2.924  17.131  0.2356 -0.8611 -0.2707
 4911TIP3   OH236223   3.500   0.529   4.627  0.2244 -0.5339 -0.3365
 4911TIP3    H136224   3.510   0.606   4.683  0.5631 -0.3680 -0.6205
 4911TIP3    H236225   3.573   0.472   4.651  0.0655 -0.6980 -0.2393
 4912TIP3   OH236226   1.723   2.090   5.359 -0.0966 -0.0455  0.2512
 4912TIP3    H136227   1.719   2.062   5.450  0.8180 -1.4591 -0.1124
 4912TIP3    H236228   1.715   2.010   5.308 -1.5933  0.8215 -0.9682
 4913TIP3   OH236229   1.134   5.390   4.540 -0.0869  0.1040 -0.6465
 4913TIP3    H136230   1.145   5.373   4.634  1.3176 -1.1997 -0.9887
 4913TIP3    H236231   1.044   5.419   4.530 -1.9987 -4.5167  0.5285
 4914TIP3   OH236232   3.925   4.290  12.774 -0.3077 -0.0418 -0.7356
 4914TIP3    H136233   3.843   4.336  12.793  1.2086  1.9932  1.4030
 4914TIP3    H236234   3.919   4.209  12.826 -0.7929  0.2884 -0.2559
 4915TIP3   OH236235   3.495   0.770   4.773  0.5353 -0.6349  0.2340
 4915TIP3    H136236   3.450   0.845   4.813  1.6464 -0.4556  1.2223
 4915TIP3    H236237   3.585   0.776   4.806  0.7447 -2.1838  0.0144
 4916TIP3   OH236238   3.139   0.053   5.534 -0.6138  0.1303 -0.6938
 4916TIP3    H136239   3.162   0.143   5.559  0.1695 -0.1818 -0.2653
 4916TIP3    H236240   3.067   0.030   5.594  1.3566 -0.6732  1.5092
 4917TIP3   OH236241   1.898   3.997   6.018 -0.4602  0.1902  0.1772
 4917TIP3    H136242   1.918   3.904   6.025 -0.4058  0.1933  0.0711
 4917TIP3    H236243   1.971   4.033   5.967 -1.1924  0.0369 -1.0199
 4918TIP3   OH236244   6.114   3.421  17.116 -0.1557  0.4723  0.8039
 4918TIP3    H136245   6.187   3.412  17.054 -1.2414  0.4307 -0.5184
 4918TIP3    H236246   6.115   3.339  17.166  0.9358  0.6410  1.0909
 4919TIP3   OH236247   6.614   2.090  13.825  0.1996 -0.5887 -0.4352
 4919TIP3    H136248   6.703   2.067  13.851  0.2937 -0.0442 -0.2530
 4919TIP3    H236249   6.562   2.012  13.845  0.1443 -0.0045  2.0274
 4920TIP3   OH236250   3.978   1.066   4.026 -0.1296 -0.5685 -0.0893
 4920TIP3    H136251   3.924   1.000   4.071 -0.2920 -0.3741  0.0056
 4920TIP3    H236252   3.983   1.138   4.089 -2.3608  0.7283 -1.2607
 4921TIP3   OH236253   4.843   2.902   4.278 -0.2330 -0.4363  0.5961
 4921TIP3    H136254   4.840   2.832   4.213  2.5951 -1.7247  1.6757
 4921TIP3    H236255   4.898   2.867   4.348  0.3972  2.4702  1.6983
 4922TIP3   OH236256   4.531   3.072  12.274  0.0895 -0.0882 -0.1414
 4922TIP3    H136257   4.542   2.999  12.334 -0.1391  0.3432  0.4423
 4922TIP3    H236258   4.438   3.071  12.251  0.0466  0.1337  0.0190
 4923TIP3   OH236259   5.892   5.058  14.578 -0.2078  0.1526  0.1100
 4923TIP3    H136260   5.881   5.021  14.491 -1.4360  1.2440 -0.2315
 4923TIP3    H236261   5.907   5.151  14.562  1.6782  0.0402  0.9874
 4924TIP3   OH236262   4.175   1.761  11.562  0.5857 -0.2130  0.0341
 4924TIP3    H136263   4.151   1.674  11.594  0.7777 -0.4808 -0.5474
 4924TIP3    H236264   4.211   1.746  11.475  0.1815  0.4993 -0.2660
 4925TIP3   OH236265   3.757   6.829   1.014 -0.0344  0.2904 -0.6051
 4925TIP3    H136266   3.689   6.835   1.081  2.5154 -1.0917  2.3436
 4925TIP3    H236267   3.779   6.920   0.994  1.0886  0.8546  2.6828
 4926TIP3   OH236268   1.278   2.433   2.619  0.7476 -0.1540  0.2140
 4926TIP3    H136269   1.307   2.523   2.600 -1.5262  0.5956 -0.0857
 4926TIP3    H236270   1.218   2.443   2.693  2.4731 -1.8434  1.9493
 4927TIP3   OH236271   2.522   1.420   2.880 -0.4168 -0.0097  0.2647
 4927TIP3    H136272   2.460   1.435   2.952 -1.6292  0.3032 -0.8218
 4927TIP3    H236273   2.547   1.508   2.853  0.2961 -0.1336  0.5006
 4928TIP3   OH236274   5.628   1.249  11.391  0.0614 -0.6668  0.0036
 4928TIP3    H136275   5.637   1.221  11.482 -1.0825 -0.2508  0.2566
 4928TIP3    H236276   5.700   1.206  11.345  0.7032 -0.8140  1.1178
 4929TIP3   OH236277   0.214   4.399   2.511 -0.3939 -0.0552 -0.3393
 4929TIP3    H136278   0.147   4.411   2.443  0.1452  0.1191 -0.8495
 4929TIP3    H236279   0.174   4.431   2.591 -0.1094  2.2475 -1.0581
 4930TIP3   OH236280   2.910   0.679   0.941  0.3845  0.2029 -0.2955
 4930TIP3    H136281   2.823   0.678   0.901 -0.3185 -0.1100  1.1795
 4930TIP3    H236282   2.958   0.610   0.894 -0.9120 -1.2657  0.4122
 4931TIP3   OH236283   0.696   2.617  16.052  0.2262 -0.0533 -0.9101
 4931TIP3    H136284   0.697   2.527  16.086 -0.7679  0.2093 -0.1219
 4931TIP3    H236285   0.696   2.607  15.957 -1.3727 -0.9517 -0.8555
 4932TIP3   OH236286   3.602   5.283   4.489 -0.0857 -0.3115 -0.1683
 4932TIP3    H136287   3.637   5.371   4.505  0.6834 -0.6260 -0.0899
 4932TIP3    H236288   3.625   5.233   4.568 -1.2711 -0.3714  0.1697
 4933TIP3   OH236289   4.890   0.590  11.971  0.2102  0.6140  0.2160
 4933TIP3    H136290   4.807   0.544  11.974  0.2417  0.5557  0.1897
 4933TIP3    H236291   4.941   0.545  11.903  0.6031  0.0701  0.8581
 4934TIP3   OH236292   1.927   5.711   3.452  0.4196  0.1541 -0.2597
 4934TIP3    H136293   1.992   5.774   3.483  1.1243 -0.3591 -0.6466
 4934TIP3    H236294   1.929   5.718   3.357  1.6885 -1.5424 -0.4167
 4935TIP3   OH236295   1.283   2.782   4.798  0.3130  0.1105  0.1016
 4935TIP3    H136296   1.342   2.807   4.727  0.2175  0.0189 -0.0112
 4935TIP3    H236297   1.208   2.841   4.789  0.7125  0.7442  0.7068
 4936TIP3   OH236298   5.152   1.890  15.803  0.1267  0.2015 -0.5199
 4936TIP3    H136299   5.160   1.983  15.782  1.6755  0.3741  0.6255
 4936TIP3    H236300   5.078   1.885  15.863  0.3478  0.7836 -0.1911
 4937TIP3   OH236301   4.219   0.007   2.488  0.2962 -0.5908  0.1130
 4937TIP3    H136302   4.260   0.032   2.570  0.9699 -2.2687  0.3322
 4937TIP3    H236303   4.176  -0.077   2.507 -2.3523  0.5385 -0.3980
 4938TIP3   OH236304   3.774   1.196   3.890  0.2755  0.7219 -0.1285
 4938TIP3    H136305   3.728   1.206   3.973 -0.5444  2.8168 -0.7712
 4938TIP3    H236306   3.846   1.136   3.910 -1.3971 -0.9325  1.4320
 4939TIP3   OH236307   3.207   6.620   2.278 -0.5254  1.0634 -1.1043
 4939TIP3    H136308   3.248   6.559   2.339 -2.3033  0.2450 -0.6639
 4939TIP3    H236309   3.227   6.706   2.315 -0.2858  0.6413 -0.2042
 4940TIP3   OH236310   2.558   5.336   1.324  0.1398  0.1699  0.0070
 4940TIP3    H136311   2.512   5.326   1.241 -0.7113 -0.6561  0.5530
 4940TIP3    H236312   2.571   5.247   1.356 -0.8836  0.4910  1.4490
 4941TIP3   OH236313   4.293   2.733  14.426 -0.2160  0.6316  0.4983
 4941TIP3    H136314   4.293   2.753  14.332  0.6352  0.1730  0.3916
 4941TIP3    H236315   4.211   2.770  14.458 -1.4339 -0.8436 -0.7657
 4942TIP3   OH236316   1.390   1.347   1.327 -0.4913 -0.6687 -0.2662
 4942TIP3    H136317   1.352   1.288   1.262  1.5667 -1.3028 -0.9585
 4942TIP3    H236318   1.348   1.321   1.409 -2.8681 -0.0871 -1.2164
 4943TIP3   OH236319   1.712   6.048  15.832 -0.6820  0.1108 -0.9932
 4943TIP3    H136320   1.695   6.113  15.764  2.2049 -0.6095 -2.5428
 4943TIP3    H236321   1.680   5.966  15.796  0.6646 -0.2371 -1.4340
 4944TIP3   OH236322   0.116   6.645   1.346 -0.0153 -0.4065 -0.4455
 4944TIP3    H136323   0.182   6.709   1.318  0.9854 -1.3374 -0.2630
 4944TIP3    H236324   0.086   6.604   1.265  0.0267 -0.3701 -0.4800
 4945TIP3   OH236325   4.813   0.866  16.444 -0.9734  0.5825 -0.2172
 4945TIP3    H136326   4.764   0.894  16.521  0.8715  1.7512  0.5962
 4945TIP3    H236327   4.902   0.851  16.477 -0.7446 -1.5326 -1.6106
 4946TIP3   OH236328   5.801   3.173  11.700  0.1635 -0.0658 -0.1679
 4946TIP3    H136329   5.736   3.223  11.750 -0.8129 -1.1000 -0.3616
 4946TIP3    H236330   5.885   3.197  11.739 -0.3439  1.1287  0.2397
 4947TIP3   OH236331   1.570   0.861   3.147 -0.1922  0.0062  0.3014
 4947TIP3    H136332   1.536   0.913   3.220 -0.2407 -0.1854  0.4162
 4947TIP3    H236333   1.647   0.816   3.183 -0.4761 -0.4362  0.3629
 4948TIP3   OH236334   2.456   2.196  16.311  0.2711  0.7251  0.0182
 4948TIP3    H136335   2.464   2.135  16.237  0.0496 -0.6314  1.0561
 4948TIP3    H236336   2.378   2.247  16.292 -0.0432  0.0774 -0.4720
 4949TIP3   OH236337   1.751   0.635  12.284 -0.2649  0.1142 -0.3062
 4949TIP3    H136338   1.804   0.652  12.362  0.4037 -0.9996 -0.4908
 4949TIP3    H236339   1.666   0.673  12.305 -0.6273 -1.5411  1.6916
 4950TIP3   OH236340   1.980   3.241   3.948 -0.3642 -0.3077  0.3842
 4950TIP3    H136341   2.017   3.259   4.034 -0.5071 -2.0398  0.8400
 4950TIP3    H236342   2.030   3.166   3.915 -1.7580 -1.0951 -0.0519
 4951TIP3   OH236343   0.430   5.750  14.317  0.1449  0.1747 -0.1761
 4951TIP3    H136344   0.423   5.829  14.372 -0.9399  0.4059 -0.6261
 4951TIP3    H236345   0.408   5.678  14.376 -1.0172  0.4225 -0.2791
 4952TIP3   OH236346   6.538   3.419   0.943 -0.5962  0.0544 -0.0099
 4952TIP3    H136347   6.503   3.390   1.028 -0.8405 -0.3147 -0.2322
 4952TIP3    H236348   6.592   3.495   0.964  0.1845 -0.6580  0.6113
 4953TIP3   OH236349   2.359   6.747   2.217  0.6628 -0.1941 -0.2117
 4953TIP3    H136350   2.400   6.712   2.296  1.5440 -0.9261 -0.9649
 4953TIP3    H236351   2.401   6.831   2.203 -0.5042  0.5942  0.8632
 4954TIP3   OH236352   4.636   0.975   0.561 -0.6088  0.4846  0.0110
 4954TIP3    H136353   4.667   0.916   0.492 -1.3619  1.6524 -1.3838
 4954TIP3    H236354   4.714   0.995   0.613 -0.0959 -0.6898 -0.2819
 4955TIP3   OH236355   5.746   6.615  15.486  0.5558 -0.1146 -0.2138
 4955TIP3    H136356   5.741   6.689  15.426  1.6795  1.2758  1.3084
 4955TIP3    H236357   5.655   6.600  15.514 -0.0832 -1.2156 -2.6539
 4956TIP3   OH236358   0.878   0.168   2.230 -0.3076  0.3617 -0.1270
 4956TIP3    H136359   0.839   0.253   2.252 -1.8419 -0.4205  0.2803
 4956TIP3    H236360   0.804   0.113   2.205  0.7255 -0.7150 -0.9001
 4957TIP3   OH236361   4.876   5.141   5.898 -0.2098  0.0783  0.6176
 4957TIP3    H136362   4.891   5.046   5.891 -1.6782 -0.0738 -1.2277
 4957TIP3    H236363   4.913   5.177   5.817  2.5663  1.4903  2.3530
 4958TIP3   OH236364   5.831   4.458  11.220  0.0162 -0.2354 -0.4408
 4958TIP3    H136365   5.828   4.514  11.297 -1.2591 -0.9842  0.0993
 4958TIP3    H236366   5.851   4.371  11.254 -1.6701 -0.7984 -0.7593
 4959TIP3   OH236367   1.777   1.024  15.956 -0.2153  0.0999 -0.8614
 4959TIP3    H136368   1.817   1.106  15.984 -0.6879  0.3874 -1.0163
 4959TIP3    H236369   1.839   0.987  15.892  0.7062 -0.3910  0.2745
 4960TIP3   OH236370   0.289   0.468  11.364 -0.0600 -0.1054  0.0634
 4960TIP3    H136371   0.308   0.389  11.314  1.0779 -0.2130  0.6445
 4960TIP3    H236372   0.266   0.534  11.298 -1.9083 -1.1132 -0.3827
 4961TIP3   OH236373   0.726   2.246  13.581 -0.1049 -0.2192  0.1775
 4961TIP3    H136374   0.685   2.276  13.663  0.4653 -1.2874  0.8786
 4961TIP3    H236375   0.819   2.260  13.594  0.1430 -1.8592  0.3710
 4962TIP3   OH236376   4.222   6.810  15.530  0.5685  0.4378  0.1700
 4962TIP3    H136377   4.178   6.827  15.446  0.5007 -0.3120  0.0515
 4962TIP3    H236378   4.229   6.896  15.571 -1.7095  0.5003  0.5450
 4963TIP3   OH236379   2.442   4.629   4.706 -0.0291 -0.3746 -0.4081
 4963TIP3    H136380   2.374   4.565   4.724 -1.5518  1.1373 -0.5247
 4963TIP3    H236381   2.421   4.663   4.619 -0.3818  1.5462  0.3629
 4964TIP3   OH236382   4.639   0.991  12.157  0.4829  0.2059  0.0972
 4964TIP3    H136383   4.554   0.975  12.197  0.7501 -0.2172  0.5160
 4964TIP3    H236384   4.701   0.948  12.215  0.8776 -0.5151 -0.8224
 4965TIP3   OH236385   3.960   5.285  10.254 -0.2410  0.1562 -0.3681
 4965TIP3    H136386   3.893   5.325  10.198 -0.7435  0.9834  0.7810
 4965TIP3    H236387   3.940   5.192  10.252 -0.0203  0.1167 -1.8326
 4966TIP3   OH236388   6.521   4.816   2.034 -0.5163 -0.0811 -0.5446
 4966TIP3    H136389   6.599   4.864   2.007 -0.7082 -0.1203 -1.1843
 4966TIP3    H236390   6.542   4.783   2.121  0.5286 -0.8371 -1.0579
 4967TIP3   OH236391   5.174   1.360  11.676  0.5794 -0.1982  0.7123
 4967TIP3    H136392   5.153   1.339  11.767 -0.5148 -0.8125  0.3408
 4967TIP3    H236393   5.205   1.277  11.640 -1.1763 -0.5592 -0.0561
 4968TIP3   OH236394   0.284   0.261  16.557  0.5110 -0.6069  0.5157
 4968TIP3    H136395   0.261   0.178  16.516  0.7745  0.4906 -2.0415
 4968TIP3    H236396   0.202   0.294  16.593 -0.6430 -0.0133 -2.3429
 4969TIP3   OH236397   0.591   1.527  11.461  0.0539  0.0866  0.0691
 4969TIP3    H136398   0.526   1.457  11.452  0.2609  0.0681 -1.7592
 4969TIP3    H236399   0.675   1.481  11.469  0.0286  0.1233  0.5686
 4970TIP3   OH236400   1.052   3.017  12.629 -0.2047 -0.7147 -0.0360
 4970TIP3    H136401   1.057   3.110  12.651  1.6944 -0.7168 -0.2940
 4970TIP3    H236402   1.020   3.016  12.539  0.2509 -0.2819 -0.2067
 4971TIP3   OH236403   2.987   6.057  14.495 -0.0959  0.4285  0.1657
 4971TIP3    H136404   3.031   6.083  14.414  0.6754  0.0320  0.4476
 4971TIP3    H236405   3.047   5.994  14.535 -0.1157  1.1664  1.4036
 4972TIP3   OH236406   1.895   5.092   5.435 -0.0690 -0.0542 -0.3421
 4972TIP3    H136407   1.879   5.180   5.470  1.5006 -0.4973  1.7185
 4972TIP3    H236408   1.819   5.041   5.462  0.4321 -0.0208  1.2991
 4973TIP3   OH236409   0.149   5.582   4.569 -0.1509 -0.3422 -0.1929
 4973TIP3    H136410   0.068   5.536   4.544  0.3325  0.2270 -3.1882
 4973TIP3    H236411   0.214   5.513   4.579 -0.8794 -0.7863  2.0405
 4974TIP3   OH236412   4.269   2.877  12.400  0.2744 -0.3936  0.1814
 4974TIP3    H136413   4.248   2.970  12.389 -0.2404 -0.4105  0.8984
 4974TIP3    H236414   4.365   2.874  12.400  0.3269 -0.1668 -2.0360
 4975TIP3   OH236415   2.196   1.547   2.972  0.7753  0.3872  0.0968
 4975TIP3    H136416   2.166   1.625   3.019 -1.3633 -0.1304 -0.3022
 4975TIP3    H236417   2.250   1.500   3.035 -0.2118  0.8064  1.2962
 4976TIP3   OH236418   6.821   4.864   2.249  0.0388  0.0590  0.2441
 4976TIP3    H136419   6.841   4.829   2.162  0.3969 -0.4191  0.5123
 4976TIP3    H236420   6.794   4.954   2.233 -2.0160 -0.6440 -0.5842
 4977TIP3   OH236421   4.960   5.068  11.785  0.4907  0.1045  0.2998
 4977TIP3    H136422   5.015   5.143  11.809 -0.8228  1.1033  0.3088
 4977TIP3    H236423   4.908   5.050  11.863 -1.2018  1.0268 -0.5599
 4978TIP3   OH236424   5.334   4.180  15.382 -0.2021  0.0440 -0.3516
 4978TIP3    H136425   5.395   4.238  15.426 -0.2188 -0.0943 -0.1466
 4978TIP3    H236426   5.272   4.239  15.339 -0.6756  0.1877  0.4915
 4979TIP3   OH236427   0.313   4.959   3.061  0.2809  0.3370 -0.2735
 4979TIP3    H136428   0.302   4.867   3.035 -0.9531  0.7778 -1.4556
 4979TIP3    H236429   0.382   4.992   3.003 -0.7840  0.6904 -1.3788
 4980TIP3   OH236430   0.116   2.740   1.338  0.4862 -0.1408  0.3835
 4980TIP3    H136431   0.121   2.835   1.336  2.0425 -0.1829  0.8758
 4980TIP3    H236432   0.024   2.720   1.320  0.3526  1.4031 -0.9020
 4981TIP3   OH236433   1.703   5.962   4.063  0.0037  0.1498  0.4623
 4981TIP3    H136434   1.620   5.964   4.111 -0.8014  1.1106 -0.9165
 4981TIP3    H236435   1.704   5.876   4.021  0.0199 -0.1122  0.9839
 4982TIP3   OH236436   4.166   1.480  16.812  0.3125  0.4115 -0.3708
 4982TIP3    H136437   4.214   1.510  16.735  0.3370  0.4090 -0.3572
 4982TIP3    H236438   4.235   1.453  16.874  0.2954  0.5351 -0.3001
 4983TIP3   OH236439   5.186   4.571  15.405  0.3705  0.3555 -0.3198
 4983TIP3    H136440   5.158   4.621  15.328 -2.9408  1.0720  1.1681
 4983TIP3    H236441   5.269   4.530  15.378 -0.7352  0.3003 -4.3505
 4984TIP3   OH236442   1.655   1.216   3.500 -0.1946  0.0756 -0.9448
 4984TIP3    H136443   1.612   1.276   3.561 -0.7090 -1.2149 -0.0144
 4984TIP3    H236444   1.637   1.129   3.535  2.2549 -0.5708 -1.1388
 4985TIP3   OH236445   2.246   2.386  11.531  0.3830  0.3976 -0.4050
 4985TIP3    H136446   2.293   2.438  11.466 -0.3031 -0.3633 -1.5578
 4985TIP3    H236447   2.310   2.321  11.561  0.0338 -0.9098 -2.2835
 4986TIP3   OH236448   0.635   6.583  11.394  0.2471  0.6478  0.4402
 4986TIP3    H136449   0.704   6.519  11.380  1.1696  1.9656 -1.4333
 4986TIP3    H236450   0.676   6.652  11.445 -0.8592 -0.3358  2.8299
 4987TIP3   OH236451   1.524   4.209   5.792  0.5486 -0.5715 -0.5981
 4987TIP3    H136452   1.525   4.304   5.776 -1.3034 -0.3694  0.2542
 4987TIP3    H236453   1.580   4.197   5.868 -0.2656  0.0493  0.1275
 4988TIP3   OH236454   2.028   2.317  10.845  0.1988  0.3915  0.2112
 4988TIP3    H136455   2.093   2.334  10.913 -0.4230  1.2006  0.6205
 4988TIP3    H236456   2.079   2.289  10.769  0.9561  0.1933  0.7874
 4989TIP3   OH236457   0.490   6.303  12.011  0.1288 -0.3173  0.2876
 4989TIP3    H136458   0.579   6.337  12.019  0.4078 -1.2709  1.6379
 4989TIP3    H236459   0.483   6.278  11.918  0.5831  1.4950 -0.2792
 4990TIP3   OH236460   3.122   3.930  16.430  0.0895 -0.1988 -0.1212
 4990TIP3    H136461   3.120   4.007  16.488  0.3078 -0.1871 -0.1284
 4990TIP3    H236462   3.186   3.954  16.362 -0.0543 -0.2728 -0.2816
 4991TIP3   OH236463   2.640   0.730   3.869  0.3703  0.6024 -0.4294
 4991TIP3    H136464   2.734   0.714   3.869  0.1537 -1.2892  2.2374
 4991TIP3    H236465   2.624   0.776   3.952 -1.2475 -0.6822  0.0124
 4992TIP3   OH236466   4.202   6.733  11.911 -0.2765 -0.2501 -0.0173
 4992TIP3    H136467   4.289   6.765  11.890  0.1223 -1.2478  0.0239
 4992TIP3    H236468   4.201   6.728  12.007 -0.8478  0.9761  0.0574
 4993TIP3   OH236469   3.307   2.776  10.029 -0.0980 -0.3996 -0.3850
 4993TIP3    H136470   3.260   2.859  10.022 -0.1777 -0.4953 -1.0924
 4993TIP3    H236471   3.285   2.743  10.115 -1.1664 -0.3425 -0.6232
 4994TIP3   OH236472   1.533   1.569   1.681  0.1198  0.1303  0.0510
 4994TIP3    H136473   1.559   1.657   1.655 -0.9813  0.4760  0.1057
 4994TIP3    H236474   1.530   1.572   1.777  1.3263 -0.3352  0.1209
 4995TIP3   OH236475   5.884   0.160   5.840 -0.3383  0.2546  0.0392
 4995TIP3    H136476   5.850   0.203   5.919 -0.0445  0.2671  0.1593
 4995TIP3    H236477   5.960   0.111   5.870 -0.1953  0.2986 -0.2497
 4996TIP3   OH236478   2.835   4.416   1.869 -0.1774  0.4321 -0.0888
 4996TIP3    H136479   2.763   4.370   1.912  0.0799  0.8693  0.8259
 4996TIP3    H236480   2.820   4.508   1.889  0.6224  0.5256  0.0900
 4997TIP3   OH236481   6.348   2.601   4.202 -0.2993 -0.2866  0.3729
 4997TIP3    H136482   6.300   2.576   4.280  2.0132  0.1640  2.0532
 4997TIP3    H236483   6.426   2.545   4.203 -0.9410 -1.4043 -2.5401
 4998TIP3   OH236484   1.347   6.112   4.501  0.2214 -0.2427  0.3997
 4998TIP3    H136485   1.423   6.109   4.444 -0.7811  0.4875 -1.0360
 4998TIP3    H236486   1.349   6.199   4.540 -0.6304  0.3355 -0.7768
 4999TIP3   OH236487   3.437   4.426  14.892 -0.3010 -0.1600  0.5352
 4999TIP3    H136488   3.522   4.414  14.849 -0.0215  1.9019  0.3937
 4999TIP3    H236489   3.427   4.350  14.948 -0.2826 -2.5677 -2.4934
 5000TIP3   OH236490   1.120   0.269   5.783  0.4936 -0.0307 -0.6636
 5000TIP3    H136491   1.167   0.353   5.791  2.1154 -0.9897  0.5510
 5000TIP3    H236492   1.110   0.239   5.873 -1.6639 -0.3471 -0.9711
 5001TIP3   OH236493   0.845   1.869  15.565 -0.4428  0.4816  0.1744
 5001TIP3    H136494   0.817   1.780  15.588 -1.1750  0.4093 -0.9072
 5001TIP3    H236495   0.852   1.915  15.649 -2.4093  0.0714  0.6225
 5002TIP3   OH236496   3.219   3.944  13.679  0.6756  0.6469  0.3926
 5002TIP3    H136497   3.247   3.920  13.768  0.5036  2.1141  0.8740
 5002TIP3    H236498   3.296   3.983  13.639  0.6234  0.4010  0.0440
 5003TIP3   OH236499   5.864   2.687  14.756  0.4279  0.4349 -0.4802
 5003TIP3    H136500   5.868   2.752  14.686 -0.0076  0.4740 -0.4717
 5003TIP3    H236501   5.774   2.691  14.788  0.2510 -0.5228 -0.8147
 5004TIP3   OH236502   0.137   6.637  11.834  0.0998  0.5499  0.1353
 5004TIP3    H136503   0.141   6.571  11.765  0.9904 -0.7646  1.3802
 5004TIP3    H236504   0.061   6.612  11.887  1.0329 -0.1048  1.1950
 5005TIP3   OH236505   2.921   3.868  16.740  0.4855 -0.0751  0.4876
 5005TIP3    H136506   2.842   3.916  16.715  0.1668  0.0450  1.6693
 5005TIP3    H236507   2.918   3.788  16.688 -0.8237 -0.4303  1.0634
 5006TIP3   OH236508   1.377   2.939  15.553 -0.1386 -0.4756  0.1356
 5006TIP3    H136509   1.343   2.869  15.497  1.2044 -1.9028  1.0456
 5006TIP3    H236510   1.321   3.015  15.532 -1.1072 -1.5633 -1.4665
 5007TIP3   OH236511   0.310   4.340  15.102 -0.4514 -0.0720  0.5723
 5007TIP3    H136512   0.281   4.322  15.013  1.4599  0.0198 -0.1090
 5007TIP3    H236513   0.402   4.365  15.093 -0.5273  1.0623  2.4601
 5008TIP3   OH236514   1.108   3.004  16.764  0.0380  0.0035  0.5915
 5008TIP3    H136515   1.164   2.975  16.692 -1.3309 -1.5617  0.0864
 5008TIP3    H236516   1.098   3.098  16.749  0.0857 -0.2176 -1.0773
 5009TIP3   OH236517   5.385   6.527   5.231  0.0565  0.1566  0.3817
 5009TIP3    H136518   5.397   6.489   5.144  2.4138 -2.6236  1.7297
 5009TIP3    H236519   5.443   6.604   5.232 -0.6534  0.7344 -0.7052
 5010TIP3   OH236520   1.334   1.756  14.150 -0.2994 -0.4121  0.0101
 5010TIP3    H136521   1.263   1.795  14.099 -0.9214 -0.3385  0.9007
 5010TIP3    H236522   1.375   1.693  14.091 -0.9527 -0.2736 -0.5986
 5011TIP3   OH236523   4.963   0.870   1.711 -0.6064 -0.0009 -0.2403
 5011TIP3    H136524   4.903   0.801   1.683 -0.2827 -1.2406  1.8690
 5011TIP3    H236525   4.984   0.918   1.631 -1.2808 -2.0167 -1.7049
 5012TIP3   OH236526   1.834   1.801   1.008 -0.1519 -0.4802  1.0460
 5012TIP3    H136527   1.753   1.764   0.973  0.0329  0.6056 -0.6446
 5012TIP3    H236528   1.894   1.726   1.014 -0.2743 -0.7739 -0.7945
 5013TIP3   OH236529   1.824   3.316   4.567 -0.4942 -0.2825  0.2229
 5013TIP3    H136530   1.800   3.386   4.628 -0.0272 -0.2644  0.3890
 5013TIP3    H236531   1.918   3.328   4.552 -0.8456  0.5512 -1.5689
 5014TIP3   OH236532   5.095   5.996   5.576 -0.2128 -0.1048  0.2062
 5014TIP3    H136533   5.002   5.974   5.580 -0.3674  0.5015  0.0480
 5014TIP3    H236534   5.123   5.969   5.488 -0.7039  1.4573 -0.4546
 5015TIP3   OH236535   6.568   5.918   4.064  0.1872  0.5898 -0.2088
 5015TIP3    H136536   6.570   5.993   4.123 -0.2015  0.5564 -0.1482
 5015TIP3    H236537   6.635   5.937   3.998 -1.2605  1.9499 -1.3567
 5016TIP3   OH236538   3.059   5.111   0.194 -0.5816  0.2931  0.4267
 5016TIP3    H136539   3.039   5.110   0.100  0.7388  0.2847  0.1273
 5016TIP3    H236540   3.000   5.046   0.232 -0.2584 -0.6343 -0.5952
 5017TIP3   OH236541   1.233   1.840  10.616 -0.6266  0.1455 -0.2842
 5017TIP3    H136542   1.192   1.814  10.533 -1.7538 -1.8922  0.8610
 5017TIP3    H236543   1.172   1.904  10.653 -0.4910  0.5042 -0.6678
 5018TIP3   OH236544   1.723   0.383  12.757 -0.6355  0.1108  0.1366
 5018TIP3    H136545   1.713   0.464  12.707  0.2832 -0.2615 -0.6743
 5018TIP3    H236546   1.665   0.394  12.833 -1.8706  0.7830 -0.8736
 5019TIP3   OH236547   4.604   1.857  16.818  0.2761  0.4630  0.4915
 5019TIP3    H136548   4.620   1.932  16.874  0.0403  0.8983 -0.0156
 5019TIP3    H236549   4.638   1.883  16.733 -0.0033  0.0809  0.2569
 5020TIP3   OH236550   5.195   6.635  17.093 -0.0434 -0.3875  0.1157
 5020TIP3    H136551   5.223   6.575  17.162 -1.8809 -0.7308  0.6143
 5020TIP3    H236552   5.276   6.666  17.054  1.1448  0.3604  2.8783
 5021TIP3   OH236553   3.242   5.805   4.801 -0.0415  0.3086  0.0710
 5021TIP3    H136554   3.241   5.848   4.716  0.9119 -1.2976 -0.8072
 5021TIP3    H236555   3.332   5.773   4.811 -0.3365 -0.1919  1.3288
 5022TIP3   OH236556   0.303   3.982   1.034 -0.3146 -0.4555 -0.0413
 5022TIP3    H136557   0.293   4.077   1.026 -1.2032 -0.5932 -0.6886
 5022TIP3    H236558   0.345   3.955   0.953 -1.0689 -0.7504 -0.3360
 5023TIP3   OH236559   2.442   5.968  15.042 -0.3758 -0.1657  0.1184
 5023TIP3    H136560   2.446   5.910  15.118  0.2444  0.7639  0.8233
 5023TIP3    H236561   2.518   5.944  14.989  0.3950  0.5548  0.8522
 5024TIP3   OH236562   1.300   4.343  10.390 -0.1436  0.0301 -0.2926
 5024TIP3    H136563   1.268   4.373  10.305 -0.7194  0.4404  0.0591
 5024TIP3    H236564   1.389   4.379  10.396 -1.2891  2.9934  0.7076
 5025TIP3   OH236565   0.259   1.580  11.367  0.3254  0.2371 -0.0971
 5025TIP3    H136566   0.247   1.559  11.275  0.5788  0.3079 -0.1467
 5025TIP3    H236567   0.256   1.496  11.412  0.1852  0.2045 -0.1688
 5026TIP3   OH236568   5.219   2.400   9.988 -0.0344 -0.6980 -0.3344
 5026TIP3    H136569   5.132   2.363   9.973 -1.2351  1.7283  0.1195
 5026TIP3    H236570   5.230   2.399  10.083 -0.9225  1.6746 -0.1390
 5027TIP3   OH236571   4.826   3.479  15.649  0.2206  0.0584 -0.3975
 5027TIP3    H136572   4.800   3.399  15.602  0.4258  0.2009 -0.7571
 5027TIP3    H236573   4.825   3.547  15.583  0.1814  0.3299 -0.1188
 5028TIP3   OH236574   4.671   6.727   2.805 -0.0005  0.2625 -0.5057
 5028TIP3    H136575   4.643   6.695   2.719  0.5146  0.6324 -0.8211
 5028TIP3    H236576   4.746   6.782   2.786  0.3456  0.0564  0.2246
 5029TIP3   OH236577   5.842   0.485  13.149  1.1849 -0.2916  0.1949
 5029TIP3    H136578   5.747   0.478  13.154  1.1008  0.8733  0.5254
 5029TIP3    H236579   5.862   0.479  13.055  0.5026  2.1853 -0.1798
 5030TIP3   OH236580   2.833   0.310  11.407 -0.1283 -0.8557 -0.0962
 5030TIP3    H136581   2.747   0.311  11.365 -0.5372 -1.4292  0.7105
 5030TIP3    H236582   2.879   0.236  11.367  1.1846  1.2489 -2.7941
 5031TIP3   OH236583   3.978   2.076   3.423  0.0913 -0.1812 -0.3466
 5031TIP3    H136584   4.042   2.068   3.494 -0.7139  1.0141  0.5440
 5031TIP3    H236585   4.000   2.004   3.363  1.4449 -0.5794  0.5779
 5032TIP3   OH236586   2.769   4.947  13.558  0.0912 -0.3343  0.8590
 5032TIP3    H136587   2.745   4.935  13.467 -0.2687 -0.5893  0.9877
 5032TIP3    H236588   2.747   5.039  13.577  2.1785  0.3917  0.0833
 5033TIP3   OH236589   4.339   6.214   0.219 -0.4067  0.1668  0.0126
 5033TIP3    H136590   4.431   6.213   0.191  0.2113 -1.0024  1.9147
 5033TIP3    H236591   4.313   6.122   0.220 -1.0307  0.3318  1.1469
 5034TIP3   OH236592   5.446   6.267   3.558  0.3946  0.2041 -0.1137
 5034TIP3    H136593   5.376   6.318   3.598 -0.5130 -1.7584  0.8875
 5034TIP3    H236594   5.422   6.263   3.465  0.0177  0.8211 -0.0527
 5035TIP3   OH236595   5.937   2.539  16.649  0.5141  0.1228 -0.8960
 5035TIP3    H136596   5.952   2.452  16.687  0.1281  0.4290  0.0085
 5035TIP3    H236597   6.007   2.593  16.685 -0.7501  0.7918  0.7390
 5036TIP3   OH236598   4.093   3.819   3.417 -0.2176 -0.1059  0.0841
 5036TIP3    H136599   4.185   3.796   3.403  0.0191  0.1714  1.1191
 5036TIP3    H236600   4.053   3.808   3.331  0.6067 -1.0213 -0.2082
 5037TIP3   OH236601   6.658   3.685   1.008  0.0443  0.5525 -0.6551
 5037TIP3    H136602   6.709   3.692   1.088 -1.1027 -0.2735  0.1844
 5037TIP3    H236603   6.670   3.769   0.964  1.4744  0.6553 -0.1077
 5038TIP3   OH236604   5.558   0.272  16.282  0.1526 -0.0405 -0.3853
 5038TIP3    H136605   5.634   0.327  16.264  1.4495 -2.5832 -4.0397
 5038TIP3    H236606   5.554   0.211  16.207 -3.7034 -2.0510  1.1356
 5039TIP3   OH236607   6.354   2.251   3.497 -0.1051 -0.2469 -0.0667
 5039TIP3    H136608   6.364   2.282   3.407 -0.7106 -1.2755 -0.5098
 5039TIP3    H236609   6.261   2.267   3.517 -0.0764 -0.4326  0.2175
 5040TIP3   OH236610   2.321   4.654   5.744 -0.1741 -0.0287  0.0735
 5040TIP3    H136611   2.346   4.687   5.830 -0.8164  0.0654  0.2266
 5040TIP3    H236612   2.292   4.564   5.760  0.0347 -0.1303 -0.1010
 5041TIP3   OH236613   2.214   3.254  16.457  0.1636  0.0612 -0.1585
 5041TIP3    H136614   2.217   3.346  16.481  1.6179  0.1089 -0.4440
 5041TIP3    H236615   2.171   3.253  16.371  0.4821  0.5129 -0.3262
 5042TIP3   OH236616   4.397   5.711  16.493  0.1569  0.3475  0.3248
 5042TIP3    H136617   4.409   5.660  16.413  2.5277  1.0743  0.1284
 5042TIP3    H236618   4.392   5.646  16.563  1.8125 -0.2446 -0.0630
 5043TIP3   OH236619   0.922   2.953   2.480  0.5962  0.4746  0.5128
 5043TIP3    H136620   0.827   2.966   2.473  0.5824  0.4142  0.5893
 5043TIP3    H236621   0.933   2.891   2.551  0.7646  1.6550  1.5595
 5044TIP3   OH236622   0.337   6.278  14.048 -0.1200 -0.0575 -0.4134
 5044TIP3    H136623   0.300   6.196  14.079 -0.5385  0.4550  0.4721
 5044TIP3    H236624   0.265   6.341  14.055  0.2792  0.4478 -0.8091
 5045TIP3   OH236625   4.404   5.041   6.113 -0.1523  0.5291  0.6458
 5045TIP3    H136626   4.462   5.083   6.176  0.2013  1.4155 -0.2369
 5045TIP3    H236627   4.458   5.030   6.035 -0.4877 -0.8517  0.5929
 5046TIP3   OH236628   2.896   6.260  10.438 -0.1223  0.0738  0.1308
 5046TIP3    H136629   2.806   6.234  10.422 -0.4636  0.8371  0.7434
 5046TIP3    H236630   2.897   6.288  10.530  0.7410  0.0576  0.1361
 5047TIP3   OH236631   5.548   5.966  15.670  0.1117  0.1043 -0.3271
 5047TIP3    H136632   5.623   5.942  15.616  1.7163  1.1889  1.2939
 5047TIP3    H236633   5.540   6.061  15.659  0.9124  0.4714  1.7381
 5048TIP3   OH236634   2.166   4.974   3.482 -0.3859 -0.5818  0.2078
 5048TIP3    H136635   2.184   5.048   3.540 -0.1573  0.7765 -1.5255
 5048TIP3    H236636   2.080   4.942   3.510 -0.8470  0.8331  0.5189
 5049TIP3   OH236637   4.402   0.276   4.345 -0.0761  0.7614  0.1699
 5049TIP3    H136638   4.424   0.205   4.284 -0.2376  1.4183 -0.6629
 5049TIP3    H236639   4.329   0.241   4.396  0.3316  0.0489  0.2863
 5050TIP3   OH236640   1.785   6.785   4.736 -0.0336 -0.0850 -0.3485
 5050TIP3    H136641   1.877   6.762   4.718 -0.0381  0.0572 -0.5623
 5050TIP3    H236642   1.772   6.866   4.687 -0.7963 -1.0378 -1.7768
 5051TIP3   OH236643   0.888   4.654   4.422 -0.3777 -0.1159  0.3647
 5051TIP3    H136644   0.796   4.630   4.410  0.3329 -2.6483 -0.7487
 5051TIP3    H236645   0.886   4.728   4.483 -3.0430 -1.0433  1.5518
 5052TIP3   OH236646   0.520   2.044   2.289  0.0434 -0.0223 -0.3486
 5052TIP3    H136647   0.521   2.096   2.369 -1.2036 -0.3551 -0.0978
 5052TIP3    H236648   0.612   2.020   2.275  0.1485 -0.9759  1.6499
 5053TIP3   OH236649   2.930   4.322  15.479  0.2126 -0.5963 -0.3755
 5053TIP3    H136650   2.985   4.256  15.437  0.6219 -0.3523 -0.2229
 5053TIP3    H236651   2.967   4.333  15.566 -0.2885 -0.6819 -0.1442
 5054TIP3   OH236652   5.451   4.408   3.491 -0.9014  0.1203 -0.1169
 5054TIP3    H136653   5.531   4.454   3.467  0.1290 -1.6051 -0.1628
 5054TIP3    H236654   5.381   4.458   3.449  0.3675  0.2254 -2.2442
 5055TIP3   OH236655   4.300   2.593  16.826 -0.4322  0.3040 -0.4668
 5055TIP3    H136656   4.205   2.597  16.839 -0.3292  0.9377  0.1138
 5055TIP3    H236657   4.332   2.680  16.850  0.0811  0.7386 -2.5176
 5056TIP3   OH236658   1.410   4.492  11.283 -0.2454 -0.4382 -0.6857
 5056TIP3    H136659   1.482   4.466  11.340 -1.5599 -1.7347  0.4639
 5056TIP3    H236660   1.450   4.501  11.196  1.6245  0.7229  0.2345
 5057TIP3   OH236661   2.359   6.315   2.769 -0.4365  0.6420 -0.0773
 5057TIP3    H136662   2.320   6.351   2.849 -1.7238 -1.4067  0.2616
 5057TIP3    H236663   2.301   6.343   2.699 -0.7960  0.1918  0.0409
 5058TIP3   OH236664   0.974   0.106  15.158  0.5253 -0.3664  0.0091
 5058TIP3    H136665   0.934   0.019  15.154 -1.1067  0.3027  0.6681
 5058TIP3    H236666   1.061   0.095  15.120  0.0627 -2.1133 -0.6230
 5059TIP3   OH236667   1.958   4.648  11.151  0.1472  0.1192  0.7247
 5059TIP3    H136668   2.036   4.688  11.188  0.3490  0.1619  0.2645
 5059TIP3    H236669   1.968   4.555  11.168  2.4677 -0.5484 -3.0314
 5060TIP3   OH236670   6.148   0.006  13.883 -0.0781 -0.4850  0.2277
 5060TIP3    H136671   6.213   0.001  13.952  0.5271 -0.2324 -0.3075
 5060TIP3    H236672   6.110  -0.081  13.878  0.3329 -0.6766  0.4470
 5061TIP3   OH236673   3.721   1.799  11.517 -0.2819 -0.3071 -0.0408
 5061TIP3    H136674   3.679   1.829  11.598 -0.6301 -0.5941 -0.1112
 5061TIP3    H236675   3.810   1.834  11.521  0.0472 -1.1956  0.9627
 5062TIP3   OH236676   5.228   3.136  13.839  0.3366  0.1581  0.1475
 5062TIP3    H136677   5.314   3.094  13.838  0.3544  0.1522  1.0923
 5062TIP3    H236678   5.243   3.223  13.876 -0.2520 -0.3102  1.5398
 5063TIP3   OH236679   2.936   3.795   3.054  0.2659 -0.1007  0.4914
 5063TIP3    H136680   3.006   3.768   3.113 -0.5259 -2.1121  0.5656
 5063TIP3    H236681   2.974   3.784   2.966  0.2427 -0.6504  0.5452
 5064TIP3   OH236682   4.371   1.895   5.030  0.1455 -0.4722  0.5298
 5064TIP3    H136683   4.388   1.801   5.031 -0.1069 -0.6726 -2.6701
 5064TIP3    H236684   4.292   1.906   5.082  0.0771 -2.0673  0.8147
 5065TIP3   OH236685   5.166   3.839  13.527  0.3733  0.1707  0.1049
 5065TIP3    H136686   5.154   3.834  13.622  0.0975  0.9144  0.1126
 5065TIP3    H236687   5.083   3.809  13.491 -0.8000  3.0549  0.1435
 5066TIP3   OH236688   0.251   5.425  16.174 -0.2776 -0.4586  0.3909
 5066TIP3    H136689   0.247   5.502  16.230 -1.3124  0.4361 -0.8729
 5066TIP3    H236690   0.313   5.448  16.105 -0.8322 -0.6265 -0.1722
 5067TIP3   OH236691   1.579   0.750  17.024 -0.1552  0.3778 -0.1733
 5067TIP3    H136692   1.585   0.783  16.935  0.0114 -0.0429 -0.3229
 5067TIP3    H236693   1.665   0.769  17.063  1.0053 -2.2809 -1.1310
 5068TIP3   OH236694   0.814   3.136  11.963  0.4191 -0.2800  0.6022
 5068TIP3    H136695   0.789   3.138  12.055 -0.5436  0.8944  0.3367
 5068TIP3    H236696   0.778   3.053  11.931  1.9441 -1.3677  1.5583
 5069TIP3   OH236697   5.917   6.587   1.796  0.4753 -0.0452 -0.1679
 5069TIP3    H136698   5.956   6.670   1.770  0.8503 -0.4386 -0.9197
 5069TIP3    H236699   5.872   6.556   1.717  1.0824 -0.9699 -0.1684
 5070TIP3   OH236700   2.871   5.527  11.537  0.3896  0.0023 -0.2570
 5070TIP3    H136701   2.827   5.452  11.577  1.2622 -1.1886 -1.4221
 5070TIP3    H236702   2.875   5.593  11.606  0.3684 -1.3517  1.0789
 5071TIP3   OH236703   2.918   0.503   3.470 -0.2133  0.4527 -0.8948
 5071TIP3    H136704   2.979   0.439   3.506 -1.3721 -1.9875 -2.9486
 5071TIP3    H236705   2.973   0.572   3.434  1.5597 -2.2487 -3.8069
 5072TIP3   OH236706   2.959   2.060   0.133 -0.1382  0.4640  0.1192
 5072TIP3    H136707   2.920   2.075   0.047 -0.6366  0.3580  0.3262
 5072TIP3    H236708   3.009   1.979   0.123  2.0104  1.8177 -0.8147
 5073TIP3   OH236709   5.267   2.308  10.903 -0.5102 -0.3254  0.2701
 5073TIP3    H136710   5.324   2.265  10.839  0.5265 -0.6233  1.3575
 5073TIP3    H236711   5.214   2.238  10.939  1.7972 -0.9823  2.6895
 5074TIP3   OH236712   0.088   0.164  11.319 -0.0649 -0.3704  0.3767
 5074TIP3    H136713   0.049   0.154  11.231  1.2814 -0.0851 -0.2763
 5074TIP3    H236714   0.169   0.114  11.315  0.0234 -0.3386  1.4804
 5075TIP3   OH236715   5.101   4.538  16.985 -0.6372 -0.0711  0.8061
 5075TIP3    H136716   5.088   4.602  16.914 -2.9134  0.8064  1.9157
 5075TIP3    H236717   5.043   4.466  16.962  0.6818 -1.0422  0.4208
 5076TIP3   OH236718   3.532   2.070   5.331  0.3094  0.0241 -0.4678
 5076TIP3    H136719   3.522   2.149   5.385  0.8947  0.0231 -0.3528
 5076TIP3    H236720   3.457   2.015   5.355  0.3603  0.1836  0.0780
 5077TIP3   OH236721   6.780   5.402   2.412  0.0633  0.3059 -0.3042
 5077TIP3    H136722   6.858   5.433   2.365  0.5715  0.5373  0.6487
 5077TIP3    H236723   6.811   5.326   2.461  1.5807  3.7383  5.0262
 5078TIP3   OH236724   6.428   1.001   0.155 -0.1523  0.3512  0.1274
 5078TIP3    H136725   6.402   1.080   0.108  0.9018  0.1373 -0.8947
 5078TIP3    H236726   6.407   0.929   0.094 -1.7535 -0.2567  1.3188
 5079TIP3   OH236727   6.072   4.122   4.538 -0.0705 -0.0682  0.0290
 5079TIP3    H136728   6.021   4.199   4.566 -1.1904 -0.1382 -1.6323
 5079TIP3    H236729   6.087   4.136   4.444  1.3539 -0.9953  0.0878
 5080TIP3   OH236730   6.317   0.090  15.721 -0.3572 -0.0115  0.2969
 5080TIP3    H136731   6.266   0.128  15.792  1.0864 -0.4055  1.6032
 5080TIP3    H236732   6.315  -0.004  15.737  2.4914  0.0461  1.7336
 5081TIP3   OH236733   2.325   2.010  14.682 -0.5452 -0.0193 -0.0869
 5081TIP3    H136734   2.311   2.087  14.626 -3.2364 -0.0688  0.3904
 5081TIP3    H236735   2.418   1.990  14.672  0.0332  2.6689 -1.0251
 5082TIP3   OH236736   2.572   1.269  12.428  0.1170  0.6394  0.0566
 5082TIP3    H136737   2.646   1.281  12.487 -0.6853  0.5019  1.1387
 5082TIP3    H236738   2.577   1.342  12.367  1.7484  0.0364 -0.5841
 5083TIP3   OH236739   5.622   1.118   5.726 -0.6297 -0.6325 -0.0004
 5083TIP3    H136740   5.538   1.086   5.758 -1.7844  1.9209 -0.1924
 5083TIP3    H236741   5.644   1.059   5.654 -1.4496 -2.2753  1.0164
 5084TIP3   OH236742   2.268   5.709  17.134  0.4358 -0.4141  0.4096
 5084TIP3    H136743   2.174   5.699  17.120  0.3254 -0.5564  1.2175
 5084TIP3    H236744   2.308   5.668  17.057 -0.1732  2.5622 -1.6509
 5085TIP3   OH236745   3.936   6.734   2.795 -0.7780  0.0093 -0.5254
 5085TIP3    H136746   3.881   6.800   2.753  0.8496  0.1530 -2.6265
 5085TIP3    H236747   3.890   6.711   2.876 -3.3006  0.9223 -1.6108
 5086TIP3   OH236748   4.837   3.360   1.274 -0.3926 -0.6618  0.1326
 5086TIP3    H136749   4.788   3.342   1.353 -2.3812 -1.6595 -1.2457
 5086TIP3    H236750   4.773   3.351   1.203  1.4077 -0.2957 -1.6394
 5087TIP3   OH236751   0.967   1.306   1.389 -0.4635  0.1131  0.6271
 5087TIP3    H136752   1.050   1.299   1.437  1.7130  1.9631 -2.5390
 5087TIP3    H236753   0.981   1.254   1.310 -2.9477 -0.6737  0.6117
 5088TIP3   OH236754   2.231   0.478   5.030  0.5144 -0.3049 -0.0211
 5088TIP3    H136755   2.289   0.432   5.092  0.1004 -0.3547  0.3317
 5088TIP3    H236756   2.177   0.534   5.085 -1.2135 -1.7933 -0.1232
 5089TIP3   OH236757   2.459   3.804  10.120 -0.0010  0.3004 -0.0194
 5089TIP3    H136758   2.396   3.776  10.187 -1.5634  0.5871 -1.2924
 5089TIP3    H236759   2.425   3.766  10.039  1.5956  0.3275 -0.7260
 5090TIP3   OH236760   1.514   6.243  10.955  0.0921  0.7024 -0.0883
 5090TIP3    H136761   1.606   6.232  10.928 -0.0346  2.8185 -1.6489
 5090TIP3    H236762   1.464   6.194  10.890  0.0359  1.7143 -0.8426
 5091TIP3   OH236763   6.331   5.823   0.700 -0.0957  0.1436 -0.2091
 5091TIP3    H136764   6.390   5.760   0.741  0.7979  0.1514 -1.4343
 5091TIP3    H236765   6.245   5.780   0.700  0.2124 -0.4746  0.2586
 5092TIP3   OH236766   1.791   5.449  16.524  0.2174 -0.0282  0.0145
 5092TIP3    H136767   1.769   5.435  16.432  0.6504  0.0309 -0.1027
 5092TIP3    H236768   1.715   5.495  16.560 -0.5820 -1.3328  0.0499
 5093TIP3   OH236769   3.948   2.049  14.039  0.2181  0.0266 -0.4542
 5093TIP3    H136770   3.869   2.066  14.090  0.3717  0.8674 -0.4715
 5093TIP3    H236771   4.011   2.113  14.072  1.2052 -1.2338  0.2155
 5094TIP3   OH236772   2.320   3.324  12.582  0.4156  0.1560 -0.3296
 5094TIP3    H136773   2.313   3.379  12.660  1.2428 -0.2727  0.0542
 5094TIP3    H236774   2.282   3.377  12.512 -2.0247 -0.1602  0.6734
 5095TIP3   OH236775   0.944   1.583   3.977 -0.5760 -0.0578 -0.2757
 5095TIP3    H136776   0.924   1.513   4.039  0.4490 -0.4685 -0.3890
 5095TIP3    H236777   1.032   1.563   3.946 -0.5230  0.9320 -0.8010
 5096TIP3   OH236778   2.540   0.147  12.420  0.3618  0.1834  0.2150
 5096TIP3    H136779   2.563   0.107  12.336  1.4748  0.8543  0.1732
 5096TIP3    H236780   2.474   0.213  12.398  2.2340  1.9310 -0.5405
 5097TIP3   OH236781   3.350   4.670  11.374 -0.1806  0.2163  0.3087
 5097TIP3    H136782   3.314   4.647  11.460 -1.8249  0.9012 -0.1710
 5097TIP3    H236783   3.316   4.757  11.356 -0.0923 -0.0376 -1.1825
 5098TIP3   OH236784   1.153   4.952  16.502 -0.2399  0.2420  0.2123
 5098TIP3    H136785   1.085   4.888  16.482  0.8708 -0.7074 -0.6257
 5098TIP3    H236786   1.222   4.902  16.545  0.2235  1.0587  0.4544
 5099TIP3   OH236787   5.547   2.950  16.116  0.4061  0.4197 -0.1287
 5099TIP3    H136788   5.473   3.002  16.085 -0.7528 -0.7875  0.5579
 5099TIP3    H236789   5.508   2.869  16.149  2.1429 -0.8141 -0.9628
 5100TIP3   OH236790   0.930   5.267  16.256 -0.1319  0.5812 -0.2924
 5100TIP3    H136791   0.950   5.253  16.349  0.2843  2.2028 -0.1118
 5100TIP3    H236792   0.917   5.179  16.221  1.4546 -0.1964  0.9224
 5101TIP3   OH236793   0.333   5.794   0.581 -0.7184  0.1931 -0.0061
 5101TIP3    H136794   0.327   5.750   0.665 -1.3928 -0.0229 -0.1603
 5101TIP3    H236795   0.304   5.884   0.598 -2.6565 -0.3255 -0.3519
 5102TIP3   OH236796   2.804   0.434  13.677 -0.6340 -0.1851 -0.2928
 5102TIP3    H136797   2.843   0.347  13.687  0.8522 -0.1313 -3.9355
 5102TIP3    H236798   2.718   0.417  13.636  0.0030 -0.0160 -1.7872
 5103TIP3   OH236799   0.542   1.467   4.306  0.0741 -0.5816  0.0411
 5103TIP3    H136800   0.458   1.507   4.280  0.8193  0.3465 -1.0267
 5103TIP3    H236801   0.594   1.466   4.226  1.5450  0.0242  0.9470
 5104TIP3   OH236802   4.416   3.805   3.647 -0.1600 -0.2334 -0.8209
 5104TIP3    H136803   4.466   3.733   3.685  0.1980 -0.2967 -1.4035
 5104TIP3    H236804   4.408   3.783   3.554 -1.4815 -0.3480 -0.7057
 5105TIP3   OH236805   1.489   3.311  16.274 -0.2073  0.3627  0.3270
 5105TIP3    H136806   1.532   3.372  16.333  2.4882  0.9747 -2.0625
 5105TIP3    H236807   1.561   3.265  16.230 -2.0926 -3.1079  0.4747
 5106TIP3   OH236808   5.493   2.811   9.774 -0.1913  0.0697  0.3680
 5106TIP3    H136809   5.407   2.768   9.764 -2.1138  3.1292  2.1576
 5106TIP3    H236810   5.540   2.754   9.835 -2.2706 -0.0897  1.9588
 5107TIP3   OH236811   0.283   4.015  11.842  0.2326  0.2697 -0.3062
 5107TIP3    H136812   0.280   4.109  11.858  0.2434  0.0834  0.8538
 5107TIP3    H236813   0.194   3.992  11.814 -0.3525  0.3015  1.4178
 5108TIP3   OH236814   2.888   0.628   3.930  0.0772  0.6630 -1.0045
 5108TIP3    H136815   2.967   0.682   3.927  0.0902  0.6251 -1.5945
 5108TIP3    H236816   2.880   0.600   4.021  0.0769  1.6584 -0.6804
 5109TIP3   OH236817   6.245   4.267   4.845 -0.4416 -0.7957  0.1668
 5109TIP3    H136818   6.336   4.281   4.819 -0.1809  3.4643  2.5390
 5109TIP3    H236819   6.250   4.235   4.935 -1.3059 -0.7769  0.2320
 5110TIP3   OH236820   2.001   3.593  12.626 -0.1057 -0.3655  0.6347
 5110TIP3    H136821   2.059   3.659  12.588  0.1158 -0.3655  0.9649
 5110TIP3    H236822   2.056   3.549  12.691 -0.7186  0.1696  1.5241
 5111TIP3   OH236823   5.346   4.878  17.038  0.6987 -0.0717 -0.2760
 5111TIP3    H136824   5.326   4.972  17.034  0.0935 -0.1640  0.5133
 5111TIP3    H236825   5.434   4.874  17.075 -0.3099  0.1087  2.3007
 5112TIP3   OH236826   6.010   1.097  13.594 -0.0893 -0.4035 -0.0355
 5112TIP3    H136827   6.105   1.092  13.588 -0.0607 -0.2051  0.2167
 5112TIP3    H236828   5.981   1.122  13.506 -0.1020 -2.9764 -0.8394
 5113TIP3   OH236829   6.800   5.051  12.629 -0.1919  0.0559 -0.5736
 5113TIP3    H136830   6.877   4.994  12.623 -1.0366 -1.0248 -1.6091
 5113TIP3    H236831   6.786   5.083  12.540 -1.5862 -0.6869 -0.6595
 5114TIP3   OH236832   3.298   5.707   4.335 -0.3828  0.2587  0.6460
 5114TIP3    H136833   3.293   5.694   4.241  0.9282 -1.1008  0.7205
 5114TIP3    H236834   3.208   5.723   4.362 -0.8475  0.1448 -0.7598
 5115TIP3   OH236835   5.128   0.838   5.406 -0.2193 -0.1781 -0.5540
 5115TIP3    H136836   5.112   0.930   5.387 -2.0733 -0.6133 -1.2823
 5115TIP3    H236837   5.041   0.798   5.409  0.4907 -1.7467  0.6201
 5116TIP3   OH236838   6.667   6.131   0.370  0.3398  0.0696 -0.1838
 5116TIP3    H136839   6.682   6.046   0.412 -0.6203  0.1132  0.2824
 5116TIP3    H236840   6.755   6.163   0.349  0.6536 -2.0074 -2.3997
 5117TIP3   OH236841   3.480   2.429  12.229  0.2741  0.1564 -0.2929
 5117TIP3    H136842   3.473   2.452  12.322 -0.0739 -0.1147 -0.2483
 5117TIP3    H236843   3.435   2.501  12.184  0.5921  0.3733 -0.2619
 5118TIP3   OH236844   3.874   4.245  15.357 -0.2299 -0.5496  0.3386
 5118TIP3    H136845   3.782   4.262  15.372 -0.1437 -0.4054  0.7185
 5118TIP3    H236846   3.892   4.280  15.270 -0.4658 -0.3150  0.3833
 5119TIP3   OH236847   0.074   0.035  15.136 -0.0686 -0.1253 -0.0974
 5119TIP3    H136848   0.003  -0.003  15.188  1.6807 -1.1398  1.6745
 5119TIP3    H236849   0.034   0.110  15.091 -2.6952 -1.7472 -0.6712
 5120TIP3   OH236850   3.713   1.975   0.404  0.1185  0.1367 -0.0562
 5120TIP3    H136851   3.786   1.912   0.404  0.2519  0.2919 -0.1306
 5120TIP3    H236852   3.635   1.921   0.390  0.2707  0.0296 -0.5054
 5121TIP3   OH236853   4.554   0.092  14.737 -0.3286 -0.4621 -0.5940
 5121TIP3    H136854   4.507   0.122  14.660 -0.0171 -1.7375 -1.3171
 5121TIP3    H236855   4.535  -0.002  14.741  0.9419 -0.7142 -0.0500
 5122TIP3   OH236856   5.607   3.714  14.119 -0.3855 -0.4159 -0.2550
 5122TIP3    H136857   5.668   3.643  14.140 -2.2425 -1.7499  0.9693
 5122TIP3    H236858   5.572   3.690  14.033 -1.0242 -1.0577  0.1637
 5123TIP3   OH236859   4.799   0.427  14.146  0.3149  0.2974  0.4091
 5123TIP3    H136860   4.711   0.419  14.109  0.3453  0.6033  0.2588
 5123TIP3    H236861   4.844   0.487  14.086  0.4857  0.4980  0.7336
 5124TIP3   OH236862   4.816   4.764  15.278  0.0902  0.3192 -0.3263
 5124TIP3    H136863   4.810   4.806  15.364  1.2887 -1.1562  0.5304
 5124TIP3    H236864   4.905   4.782  15.249  1.1999 -2.6855  0.7486
 5125TIP3   OH236865   0.961   0.448   4.357 -0.0576  0.0304 -0.0492
 5125TIP3    H136866   1.039   0.500   4.338 -0.1562  0.8482  1.6113
 5125TIP3    H236867   0.893   0.512   4.377 -0.8797 -0.6998 -0.4286
 5126TIP3   OH236868   6.292   2.921  16.851 -0.1871  0.2035  0.0232
 5126TIP3    H136869   6.356   2.872  16.903 -2.1745 -0.2846  2.1889
 5126TIP3    H236870   6.343   2.987  16.805  1.9335 -0.5966  1.1079
 5127TIP3   OH236871   0.482   0.240   1.796 -0.2119 -0.3709 -0.2525
 5127TIP3    H136872   0.545   0.310   1.776  0.2180 -1.0633 -1.4625
 5127TIP3    H236873   0.451   0.211   1.710 -1.4093 -0.7661  0.2808
 5128TIP3   OH236874   2.098   3.294   0.647 -0.5453  0.1142 -0.0905
 5128TIP3    H136875   2.036   3.364   0.668 -0.0218  0.0205  1.9562
 5128TIP3    H236876   2.178   3.318   0.695  0.0236 -1.2970 -0.2845
 5129TIP3   OH236877   0.360   5.177  15.936 -0.1950 -0.1088  0.2482
 5129TIP3    H136878   0.396   5.203  16.021  0.4759  0.4460 -0.1952
 5129TIP3    H236879   0.286   5.236  15.922  0.5109  0.7151 -0.1444
 5130TIP3   OH236880   5.615   2.348  11.000  0.1228  0.8048 -0.3564
 5130TIP3    H136881   5.539   2.302  11.035  0.9217 -0.2706  0.0438
 5130TIP3    H236882   5.627   2.422  11.058 -0.3120  0.6854 -0.1102
 5131TIP3   OH236883   1.882   0.166  14.843  0.2044  1.4654 -0.3345
 5131TIP3    H136884   1.799   0.188  14.801  0.5898  0.2911 -1.8095
 5131TIP3    H236885   1.940   0.239  14.823  0.3297  1.0011 -1.7902
 5132TIP3   OH236886   5.544   4.104   3.787  0.8075 -0.4852 -0.1893
 5132TIP3    H136887   5.562   4.192   3.755 -1.3819 -0.0615 -0.4059
 5132TIP3    H236888   5.630   4.070   3.814  1.8243  1.3548 -0.9347
 5133TIP3   OH236889   0.030   0.967   4.166 -0.0908  0.3321  0.4958
 5133TIP3    H136890   0.010   0.877   4.190 -1.3984  0.4274 -0.1233
 5133TIP3    H236891   0.006   1.019   4.243 -0.3336  0.2419  0.4826
 5134TIP3   OH236892   2.416   0.761  10.563  0.2177 -0.3998  0.3511
 5134TIP3    H136893   2.334   0.803  10.589  0.4858 -0.6812  1.7689
 5134TIP3    H236894   2.443   0.807  10.484 -0.5231  0.7460  0.7377
 5135TIP3   OH236895   0.076   5.835   5.056 -0.3772  0.3715 -0.2722
 5135TIP3    H136896   0.158   5.818   5.010 -0.4629 -0.2645 -0.1932
 5135TIP3    H236897   0.082   5.782   5.136 -0.5658  0.8589  0.0743
 5136TIP3   OH236898   1.656   5.540  13.437 -0.3231 -0.7849  0.1703
 5136TIP3    H136899   1.631   5.584  13.356 -1.1820 -1.2356  0.1818
 5136TIP3    H236900   1.684   5.453  13.410  0.1255 -0.6820  0.2868
 5137TIP3   OH236901   6.481   2.241  16.182 -0.1950 -0.4561  0.2898
 5137TIP3    H136902   6.418   2.169  16.174 -2.0258  1.1065  0.1009
 5137TIP3    H236903   6.431   2.320  16.161  2.1095  0.7711 -1.0364
 5138TIP3   OH236904   1.458   4.251   1.677  0.2380 -0.3006 -0.2688
 5138TIP3    H136905   1.460   4.346   1.679  0.5700 -0.3153  0.1194
 5138TIP3    H236906   1.526   4.227   1.613  0.2543 -0.2841 -0.2574
 5139TIP3   OH236907   1.070   4.267   1.289 -0.0089 -0.1251 -0.2814
 5139TIP3    H136908   1.071   4.237   1.380 -1.0707 -0.4619 -0.3716
 5139TIP3    H236909   0.978   4.270   1.265  0.2935 -1.6340 -1.8731
 5140TIP3   OH236910   6.328   0.222  11.856 -1.0760 -0.0912  0.0553
 5140TIP3    H136911   6.396   0.248  11.917 -0.1427 -0.4345 -0.7978
 5140TIP3    H236912   6.289   0.304  11.826 -0.6366  0.1446  0.1200
 5141TIP3   OH236913   1.408   1.658  15.322 -0.0765 -0.2653  0.1039
 5141TIP3    H136914   1.395   1.569  15.355  0.2344 -0.4365 -0.2357
 5141TIP3    H236915   1.355   1.662  15.242 -0.1117 -0.1373  0.1336
 5142TIP3   OH236916   6.537   2.863   0.933 -0.4580  0.4176  0.0509
 5142TIP3    H136917   6.560   2.829   0.846 -0.1406  0.1780  0.2235
 5142TIP3    H236918   6.562   2.955   0.930  0.6904  0.1379  0.2723
 5143TIP3   OH236919   2.957   0.819   5.503  0.2040 -0.3267 -0.6966
 5143TIP3    H136920   2.885   0.832   5.564  1.1927 -0.0655  0.4513
 5143TIP3    H236921   2.965   0.903   5.457  0.5289  0.0613  0.0389
 5144TIP3   OH236922   6.810   2.509  12.157  0.3507 -0.2940  0.2090
 5144TIP3    H136923   6.786   2.417  12.163  0.9648 -0.5707 -1.2678
 5144TIP3    H236924   6.906   2.509  12.159  0.3607  0.4562  1.6766
 5145TIP3   OH236925   5.090   6.507  15.787 -0.0130  0.4143  0.1284
 5145TIP3    H136926   5.133   6.584  15.750 -1.1279  1.4264  0.8814
 5145TIP3    H236927   5.107   6.513  15.881 -1.3294  0.5511  0.3724
 5146TIP3   OH236928   6.195   1.527   0.938  0.2698  0.1729 -0.0687
 5146TIP3    H136929   6.181   1.592   1.007 -2.0769  1.5286 -1.6699
 5146TIP3    H236930   6.116   1.473   0.939  1.4820 -1.6656  0.1571
 5147TIP3   OH236931   6.696   6.731  15.201 -0.3020 -0.7333  0.4276
 5147TIP3    H136932   6.635   6.666  15.165 -1.3087  1.0711 -1.3475
 5147TIP3    H236933   6.648   6.814  15.196  1.5550  0.4374  0.9786
 5148TIP3   OH236934   6.766   0.407  15.370  0.0553  0.0324 -0.3270
 5148TIP3    H136935   6.789   0.396  15.463  0.7699  0.9177 -0.3822
 5148TIP3    H236936   6.847   0.436  15.329 -0.2901 -0.2250 -1.2186
 5149TIP3   OH236937   6.686   4.597  12.852  0.4205  0.6298  0.6807
 5149TIP3    H136938   6.710   4.690  12.860  2.3011  0.2693 -0.1915
 5149TIP3    H236939   6.694   4.562  12.940  2.2273  0.7779  0.6166
 5150TIP3   OH236940   2.880   5.693  11.758 -0.0117  0.1387 -0.7836
 5150TIP3    H136941   2.827   5.771  11.745 -2.8117 -1.4667  0.3434
 5150TIP3    H236942   2.935   5.713  11.834 -0.1133  1.2546 -0.9870
 5151TIP3   OH236943   6.776   0.267   3.723  0.5611  0.1347 -0.1015
 5151TIP3    H136944   6.838   0.301   3.658 -0.2366  2.0477  0.0811
 5151TIP3    H236945   6.696   0.250   3.673  1.0000 -1.8536 -0.2390
 5152TIP3   OH236946   4.926   5.562   4.905  0.2036 -0.4653  0.2708
 5152TIP3    H136947   5.004   5.616   4.890  1.5035 -2.5691 -1.0920
 5152TIP3    H236948   4.884   5.556   4.819 -0.1594 -1.2505  0.4920
 5153TIP3   OH236949   4.361   0.265   0.760  0.0438  0.1586 -0.3436
 5153TIP3    H136950   4.455   0.280   0.748  0.4321 -1.2666  0.6060
 5153TIP3    H236951   4.332   0.230   0.676 -0.1113  2.4886 -1.3314
 5154TIP3   OH236952   4.784   5.222   0.545 -0.1619  0.2065  0.1233
 5154TIP3    H136953   4.730   5.241   0.622 -1.8753 -1.2665 -0.6334
 5154TIP3    H236954   4.874   5.221   0.577 -0.7630  0.4556  1.9148
 5155TIP3   OH236955   0.413   6.207  13.000 -0.3602  0.1026 -0.3266
 5155TIP3    H136956   0.482   6.267  12.973  1.0093 -0.7599  1.1456
 5155TIP3    H236957   0.367   6.252  13.071  0.1140 -0.2378  0.1955
 5156TIP3   OH236958   0.634   2.526  14.955  0.0635 -0.1854 -0.0836
 5156TIP3    H136959   0.693   2.585  14.909 -2.0266 -0.1584 -2.9798
 5156TIP3    H236960   0.595   2.580  15.024  1.0676  0.6634 -0.1652
 5157TIP3   OH236961   2.523   1.483  12.263  0.1607 -0.7170  0.2527
 5157TIP3    H136962   2.444   1.441  12.229 -0.3272 -0.7243  1.3671
 5157TIP3    H236963   2.491   1.551  12.322  0.9849 -0.7454  0.7490
 5158TIP3   OH236964   3.141   3.739  12.511  0.2661 -0.0706  0.4742
 5158TIP3    H136965   3.138   3.710  12.602  0.3762 -0.4081  0.3746
 5158TIP3    H236966   3.063   3.792  12.500 -2.2125 -3.5179 -0.3847
 5159TIP3   OH236967   0.587   1.484  13.660  0.1052  0.2643 -0.0043
 5159TIP3    H136968   0.659   1.427  13.687  1.0392  0.6269 -1.5756
 5159TIP3    H236969   0.523   1.478  13.731  0.6041 -1.9609  0.3338
 5160TIP3   OH236970   0.483   4.830  13.807 -0.4140 -0.0112 -0.3479
 5160TIP3    H136971   0.536   4.877  13.871 -0.5396  0.3479 -0.5079
 5160TIP3    H236972   0.394   4.860  13.824 -0.7069 -1.2678  0.5147
 5161TIP3   OH236973   3.833   1.586   3.806  0.5935 -0.4673 -0.2757
 5161TIP3    H136974   3.894   1.643   3.758 -0.2609  1.8113  1.1828
 5161TIP3    H236975   3.856   1.600   3.899 -2.7053  1.3197  0.4181
 5162TIP3   OH236976   0.107   0.659   2.922  0.0527 -0.0149 -0.1746
 5162TIP3    H136977   0.113   0.572   2.883 -2.3779  0.1117 -1.0256
 5162TIP3    H236978   0.018   0.688   2.901  0.4550  2.2581  0.9768
 5163TIP3   OH236979   3.614   6.643  12.755 -0.0578  0.4085  0.1725
 5163TIP3    H136980   3.641   6.568  12.701  0.5036  0.1815  0.7653
 5163TIP3    H236981   3.685   6.706  12.747 -0.5432  0.9117 -0.3485
 5164TIP3   OH236982   6.068   0.583   2.105 -0.6770  0.3931  0.7700
 5164TIP3    H136983   6.125   0.640   2.053 -2.2942  1.3491 -0.0484
 5164TIP3    H236984   6.114   0.499   2.106  0.8384  1.1667  0.3490
 5165TIP3   OH236985   4.924   1.096   4.773  0.6431  0.2152 -0.4711
 5165TIP3    H136986   4.889   1.183   4.756  1.3659  0.5986 -0.0581
 5165TIP3    H236987   4.982   1.108   4.849  2.0667 -0.2722 -1.4415
 5166TIP3   OH236988   2.635   3.601  11.987  0.0667 -0.1649 -0.6785
 5166TIP3    H136989   2.663   3.588  12.078 -0.0769 -0.1823 -0.6374
 5166TIP3    H236990   2.664   3.521  11.943  1.0097  0.2565 -0.8569
 5167TIP3   OH236991   2.062   3.785  12.097 -0.5542 -0.2797 -0.1146
 5167TIP3    H136992   2.110   3.729  12.036  0.0279 -0.5103  0.5358
 5167TIP3    H236993   2.130   3.821  12.155 -0.7445  2.0073 -1.1936
 5168TIP3   OH236994   6.723   6.195   2.656 -0.3987  0.1672  0.4791
 5168TIP3    H136995   6.741   6.245   2.735 -1.1877  1.4977 -0.1566
 5168TIP3    H236996   6.628   6.191   2.650 -0.4307  2.0567 -1.5573
 5169TIP3   OH236997   4.625   2.529   6.085 -0.2566  0.1594  0.0862
 5169TIP3    H136998   4.619   2.579   6.004 -0.2455 -0.9677 -0.6444
 5169TIP3    H236999   4.715   2.541   6.115 -0.0840  0.1041 -0.4028
 5170TIP3   OH237000   0.595   0.531   4.263  0.3716  0.5796  0.8207
 5170TIP3    H137001   0.610   0.521   4.169  1.4685 -1.2653  1.1446
 5170TIP3    H237002   0.675   0.572   4.296  0.4471  0.2034  1.1089
 5171TIP3   OH237003   2.712   3.362  15.309 -0.1969  0.3171 -0.6807
 5171TIP3    H137004   2.632   3.413  15.321 -0.1376  0.5363 -1.2264
 5171TIP3    H237005   2.711   3.300  15.382  0.8842  2.5456  1.3539
 5172TIP3   OH237006   5.741   4.609  11.546  0.1138  0.1907  0.3454
 5172TIP3    H137007   5.769   4.685  11.597  0.9167  0.5464 -0.5778
 5172TIP3    H237008   5.664   4.640  11.497 -0.0339  0.1651  0.5619
 5173TIP3   OH237009   0.566   4.837  16.730  0.2392  0.7580  0.8160
 5173TIP3    H137010   0.656   4.859  16.754  0.4478 -0.9086  1.6987
 5173TIP3    H237011   0.540   4.770  16.793 -0.5427 -1.0389 -1.2829
 5174TIP3   OH237012   1.580   6.761   1.406  0.1058 -0.5851 -0.5569
 5174TIP3    H137013   1.654   6.796   1.455 -2.1104  0.4918  2.4032
 5174TIP3    H237014   1.560   6.828   1.341 -0.3241  0.8527  0.9694
 5175TIP3   OH237015   0.201   5.154  16.246 -0.5930 -0.2446  0.4488
 5175TIP3    H137016   0.249   5.138  16.327  0.8795  0.0517 -0.3333
 5175TIP3    H237017   0.232   5.239  16.216 -1.0982 -0.3594 -0.4301
 5176TIP3   OH237018   2.512   4.919   4.180 -0.2071 -0.3715 -0.7205
 5176TIP3    H137019   2.600   4.955   4.186 -0.4715  0.2866 -0.7233
 5176TIP3    H237020   2.525   4.829   4.149  0.4638 -0.3014 -0.6568
 5177TIP3   OH237021   3.563   3.076  11.167  0.6652  0.3271 -0.8218
 5177TIP3    H137022   3.484   3.099  11.216  0.0308 -0.8032 -1.2850
 5177TIP3    H237023   3.635   3.114  11.218 -0.0083 -0.3685  0.6934
 5178TIP3   OH237024   5.620   2.335  11.315  0.6228  0.2830  0.4297
 5178TIP3    H137025   5.537   2.294  11.288  0.3379  0.9175  0.3321
 5178TIP3    H237026   5.675   2.261  11.342  0.0280 -0.1483  0.4910
 5179TIP3   OH237027   1.637   0.134   2.668 -0.4507 -0.5398 -0.3404
 5179TIP3    H137028   1.657   0.071   2.598  2.3894 -0.9748  0.7168
 5179TIP3    H237029   1.615   0.080   2.743 -0.5201 -0.1781 -0.0988
 5180TIP3   OH237030   5.647   5.515   0.516 -0.4134  0.2100  0.2688
 5180TIP3    H137031   5.652   5.607   0.492 -0.0419  0.0494 -0.3180
 5180TIP3    H237032   5.728   5.499   0.565  0.8080 -0.3735 -1.8015
 5181TIP3   OH237033   1.010   6.573   0.367 -0.6635  0.4253  0.2605
 5181TIP3    H137034   0.984   6.519   0.441 -0.0747 -1.2002 -0.6765
 5181TIP3    H237035   1.105   6.578   0.373 -0.2901 -2.2170 -1.9696
 5182TIP3   OH237036   3.735   3.437  11.362  0.0793  0.0932  0.2596
 5182TIP3    H137037   3.761   3.488  11.285  1.2584 -0.3815  0.3217
 5182TIP3    H237038   3.653   3.396  11.337 -0.9882  2.1212  0.2654
 5183TIP3   OH237039   1.939   4.837  14.769  0.0259 -0.0930  0.5309
 5183TIP3    H137040   1.909   4.814  14.857  0.6330 -0.7127  0.5836
 5183TIP3    H237041   1.962   4.929  14.775 -1.5868  0.3288  0.5579
 5184TIP3   OH237042   3.027   6.006   4.148  0.4382 -0.2834  0.2046
 5184TIP3    H137043   2.935   5.987   4.132  0.5508  0.8308 -2.1081
 5184TIP3    H237044   3.026   6.077   4.212 -0.4434  1.1563 -1.3213
 5185TIP3   OH237045   2.011   4.272   5.951  0.3574 -0.2272 -0.2775
 5185TIP3    H137046   2.094   4.275   5.999 -0.6345  0.5224  1.4739
 5185TIP3    H237047   1.944   4.291   6.017 -1.1980 -0.5243 -1.7029
 5186TIP3   OH237048   3.358   4.860  13.337  0.4867  0.8817  0.1260
 5186TIP3    H137049   3.268   4.887  13.358  0.7973  1.0032  1.4138
 5186TIP3    H237050   3.397   4.938  13.297  0.2502  1.0941  0.2985
 5187TIP3   OH237051   2.672   6.256   1.869  0.7504 -0.1677  0.0311
 5187TIP3    H137052   2.613   6.208   1.811  1.4067  0.6620 -1.3595
 5187TIP3    H237053   2.713   6.188   1.922  0.2144 -0.9585 -0.5351
 5188TIP3   OH237054   5.077   0.881  11.255  0.6396 -0.1066  0.2844
 5188TIP3    H137055   5.063   0.967  11.296  0.9701  0.1867 -0.2095
 5188TIP3    H237056   5.029   0.885  11.173  0.5581 -0.4411  0.3131
 5189TIP3   OH237057   6.422   4.328  14.925  0.3106  0.1381  0.3178
 5189TIP3    H137058   6.348   4.383  14.899  0.9194  0.2834 -1.1561
 5189TIP3    H237059   6.497   4.388  14.925  0.9894 -0.6608 -1.3323
 5190TIP3   OH237060   2.855   4.221  13.137  0.2300 -0.3789 -0.5878
 5190TIP3    H137061   2.835   4.315  13.130 -0.5206 -0.4354  0.4575
 5190TIP3    H237062   2.946   4.218  13.167  0.0185  0.0423  0.1146
 5191TIP3   OH237063   3.365   0.827   2.294  0.0892 -0.5886  0.1317
 5191TIP3    H137064   3.449   0.780   2.290  0.3826 -0.1284  0.7560
 5191TIP3    H237065   3.303   0.762   2.327 -0.0462 -1.2470 -1.3363
 5192TIP3   OH237066   5.637   6.215  15.389 -0.1407 -0.0903  0.2430
 5192TIP3    H137067   5.598   6.211  15.476  0.3007  1.9449  0.5665
 5192TIP3    H237068   5.702   6.284  15.394  0.3111 -0.3257 -1.5567
 5193TIP3   OH237069   1.738   5.168   4.844  0.3100 -0.2639 -0.1206
 5193TIP3    H137070   1.820   5.118   4.845  0.5670  0.0545 -1.8003
 5193TIP3    H237071   1.676   5.113   4.891  0.6994 -2.0085 -1.5547
 5194TIP3   OH237072   0.525   1.960   4.160 -0.1772  0.0259  0.2169
 5194TIP3    H137073   0.502   2.045   4.122  2.0170  0.3780 -0.5058
 5194TIP3    H237074   0.472   1.897   4.112 -0.1725  0.7992 -0.8392
 5195TIP3   OH237075   0.636   2.458  11.512 -0.3092  0.0998  0.2257
 5195TIP3    H137076   0.567   2.464  11.578  0.5219 -1.0949  1.2560
 5195TIP3    H237077   0.635   2.366  11.484  0.1721  0.3094 -0.5269
 5196TIP3   OH237078   3.351   3.768   1.383 -0.0945  0.3459  0.3911
 5196TIP3    H137079   3.423   3.789   1.324  0.1363  1.9146  1.2056
 5196TIP3    H237080   3.380   3.689   1.429  0.8300  0.6241  0.2924
 5197TIP3   OH237081   3.808   3.206  10.727 -0.2910  0.0075  0.6859
 5197TIP3    H137082   3.785   3.130  10.675  0.2056 -0.0497  0.5435
 5197TIP3    H237083   3.891   3.236  10.690 -0.3966  0.5160  0.8503
 5198TIP3   OH237084   0.104   1.127  14.548 -0.0716  0.1269  0.1168
 5198TIP3    H137085   0.033   1.063  14.549  0.4416 -0.5739  3.2618
 5198TIP3    H237086   0.071   1.200  14.602  1.5955 -0.3181  1.8537
 5199TIP3   OH237087   0.759   3.997  15.674 -0.8135 -0.0935 -0.2291
 5199TIP3    H137088   0.676   3.961  15.643 -1.6503  1.7740 -0.3252
 5199TIP3    H237089   0.791   4.049  15.600 -0.0120 -0.0756  0.1297
 5200TIP3   OH237090   2.596   5.187  12.048 -0.0687  0.0027  0.0287
 5200TIP3    H137091   2.551   5.196  11.964 -0.0251 -0.9957 -0.1154
 5200TIP3    H237092   2.665   5.254  12.046 -0.1411  0.0625 -0.6805
 5201TIP3   OH237093   6.033   3.200   1.620 -0.4968  0.1168  0.6751
 5201TIP3    H137094   5.964   3.198   1.553  0.8338  1.1547 -0.8120
 5201TIP3    H237095   6.111   3.170   1.574  0.7252  2.0149  1.4060
 5202TIP3   OH237096   6.484   0.262  13.432  0.3187 -0.4109  0.2538
 5202TIP3    H137097   6.507   0.288  13.343  0.8352  2.4518  1.1252
 5202TIP3    H237098   6.396   0.296  13.446  1.0628  1.1689  1.4888
 5203TIP3   OH237099   0.352   5.305  10.892  0.1947 -0.3031 -0.1206
 5203TIP3    H137100   0.332   5.352  10.973  1.7455 -0.7323  0.5385
 5203TIP3    H237101   0.398   5.369  10.838  2.0932 -0.9403  0.6818
 5204TIP3   OH237102   5.080   4.415   3.631 -0.0187 -0.2275 -0.1556
 5204TIP3    H137103   5.032   4.472   3.571 -1.4644 -2.1216 -0.9034
 5204TIP3    H237104   5.115   4.474   3.697  1.2861  1.9016 -2.5895
 5205TIP3   OH237105   6.633   1.919  17.057  0.3786 -0.0795 -0.2565
 5205TIP3    H137106   6.658   1.954  17.142 -1.9010  0.9404  0.0919
 5205TIP3    H237107   6.714   1.884  17.020  1.5025 -0.1996  2.1422
 5206TIP3   OH237108   2.764   2.410   0.506 -0.2559  0.0317  0.4130
 5206TIP3    H137109   2.814   2.441   0.581  1.4403 -1.4829 -0.0197
 5206TIP3    H237110   2.785   2.317   0.500 -0.6838  0.0165 -1.6749
 5207TIP3   OH237111   6.784   4.052  16.056 -0.6336 -0.0882  0.2117
 5207TIP3    H137112   6.766   4.072  15.965  0.3619 -1.0467 -0.2258
 5207TIP3    H237113   6.879   4.036  16.059 -0.7406 -0.6635  1.2899
 5208TIP3   OH237114   1.530   4.081  15.414  0.0126 -0.4179  0.7774
 5208TIP3    H137115   1.517   4.031  15.333  1.6666  2.3369 -1.3406
 5208TIP3    H237116   1.443   4.115  15.435 -0.2442 -0.1240 -0.6310
 5209TIP3   OH237117   0.301   2.663  10.242  0.6165  0.5101 -0.2433
 5209TIP3    H137118   0.267   2.727  10.305 -0.4586  0.1088 -0.4065
 5209TIP3    H237119   0.305   2.711  10.159 -1.4636  0.0440 -0.6741
 5210TIP3   OH237120   3.353   3.033   6.216  0.6265  0.0393 -0.4385
 5210TIP3    H137121   3.408   2.982   6.275  1.6306 -0.9987 -2.1598
 5210TIP3    H237122   3.270   3.043   6.262  1.9848  1.0823  1.9808
 5211TIP3   OH237123   4.648   3.881  12.327  0.1572  0.4834  0.7392
 5211TIP3    H137124   4.581   3.888  12.260 -1.7095 -0.5056  2.4056
 5211TIP3    H237125   4.641   3.961  12.378  2.1985  1.6678 -0.6801
 5212TIP3   OH237126   0.722   0.888  11.707 -0.0635  0.2604 -0.6566
 5212TIP3    H137127   0.781   0.821  11.741 -1.0853 -0.9201 -1.1614
 5212TIP3    H237128   0.780   0.958  11.677  0.9712  0.2407  1.1479
 5213TIP3   OH237129   2.790   1.633   3.512  0.2558  0.4713 -0.2354
 5213TIP3    H137130   2.821   1.683   3.437  1.3086  1.4199  0.8058
 5213TIP3    H237131   2.787   1.696   3.584  1.0238 -0.7972  0.9570
 5214TIP3   OH237132   1.153   5.601  13.013 -0.4004  0.1822 -0.7471
 5214TIP3    H137133   1.129   5.517  12.975  1.3753 -1.1947  1.0051
 5214TIP3    H237134   1.243   5.590  13.041 -0.5604  2.2319  0.7727
 5215TIP3   OH237135   5.424   3.971  13.447 -0.4800 -0.6982  0.0931
 5215TIP3    H137136   5.431   4.058  13.407  0.7994 -0.3350  1.0583
 5215TIP3    H237137   5.330   3.958  13.460 -0.7258  0.2732 -0.6245
 5216TIP3   OH237138   1.232   0.356  13.465  0.1078 -0.5059  0.0275
 5216TIP3    H137139   1.298   0.422  13.443 -0.9796  0.5761 -0.1431
 5216TIP3    H237140   1.214   0.311  13.383  0.5169 -0.6939  0.0412
 5217TIP3   OH237141   6.607   1.536   0.131 -0.2405 -0.2894 -0.3313
 5217TIP3    H137142   6.573   1.599   0.194  0.4212  0.1592 -0.4153
 5217TIP3    H237143   6.543   1.465   0.132 -0.8677  0.2680 -0.0573
 5218TIP3   OH237144   5.401   6.123   2.532  0.5459 -0.4591 -0.2581
 5218TIP3    H137145   5.374   6.182   2.602 -0.5734 -2.0348  0.7312
 5218TIP3    H237146   5.394   6.174   2.452 -1.3315  0.4709  0.4518
 5219TIP3   OH237147   1.195   3.646  13.061  0.5807 -0.4543  0.2528
 5219TIP3    H137148   1.279   3.626  13.021  0.5234  0.0039 -0.1069
 5219TIP3    H237149   1.132   3.646  12.989  0.1501 -1.4391  0.6127
 5220TIP3   OH237150   4.367   1.429   6.172 -0.3826 -0.2809  0.1351
 5220TIP3    H137151   4.306   1.356   6.178 -0.2385 -0.5454 -1.1712
 5220TIP3    H237152   4.313   1.507   6.190 -1.1442 -0.5059 -1.0467
 5221TIP3   OH237153   5.455   6.385  15.903  0.6594 -0.1016 -0.2046
 5221TIP3    H137154   5.502   6.360  15.983  0.5354  1.8355  0.5347
 5221TIP3    H237155   5.402   6.309  15.882  1.6213 -1.1179  0.8453
 5222TIP3   OH237156   3.674   0.199  16.017 -0.4922  0.5775 -0.1620
 5222TIP3    H137157   3.686   0.204  16.112 -1.0654 -1.0691  0.0405
 5222TIP3    H237158   3.743   0.140  15.987 -0.8897  0.3312 -0.6223
 5223TIP3   OH237159   4.668   0.442   5.787  0.3506  0.5575 -0.1276
 5223TIP3    H137160   4.701   0.353   5.798 -1.3359 -0.1047 -0.0686
 5223TIP3    H237161   4.605   0.435   5.716 -0.0111  1.6504  0.0764
 5224TIP3   OH237162   5.096   0.085  17.038 -0.1970  0.0714  0.3700
 5224TIP3    H137163   5.153   0.062  16.965 -0.6278 -0.1779  0.1084
 5224TIP3    H237164   5.089   0.181  17.034 -0.0995  0.0711  0.1765
 5225TIP3   OH237165   4.966   0.309   5.767 -0.1425 -0.7205 -0.3146
 5225TIP3    H137166   4.989   0.282   5.678 -0.1632 -2.4956  0.1724
 5225TIP3    H237167   4.905   0.241   5.797 -0.3847  0.0253  0.9375
 5226TIP3   OH237168   3.302   1.052   4.807  0.4379 -0.6877  0.0771
 5226TIP3    H137169   3.301   0.986   4.876  0.2469 -0.1578  0.5961
 5226TIP3    H237170   3.217   1.095   4.814  0.3042 -0.8048 -0.6755
 5227TIP3   OH237171   3.029   4.933  13.920 -0.1511 -0.4594 -0.3711
 5227TIP3    H137172   2.947   4.892  13.893 -0.6705 -0.1239  0.6337
 5227TIP3    H237173   3.054   4.988  13.846 -1.2488  0.0185 -0.4051
 5228TIP3   OH237174   4.176   4.906   5.337  0.2891  0.3621  0.2762
 5228TIP3    H137175   4.168   4.961   5.414  1.0358  0.9179 -0.0236
 5228TIP3    H237176   4.086   4.884   5.313 -0.0464  1.6700  0.2533
 5229TIP3   OH237177   5.867   4.107  16.334  0.4655 -0.6491 -0.3774
 5229TIP3    H137178   5.805   4.180  16.337 -1.5688 -2.2787 -0.2724
 5229TIP3    H237179   5.896   4.104  16.243  0.5607  0.2707 -0.3851
 5230TIP3   OH237180   1.994   6.707   1.796 -0.1415 -0.2210  0.1672
 5230TIP3    H137181   2.029   6.796   1.787 -1.0893  0.3254  1.5249
 5230TIP3    H237182   2.022   6.679   1.883 -0.0869 -1.1521 -0.1439
 5231TIP3   OH237183   4.290   4.801   2.326 -0.1183 -0.1180 -0.2271
 5231TIP3    H137184   4.352   4.826   2.258  0.2959 -0.1168  0.1453
 5231TIP3    H237185   4.317   4.712   2.351  1.4379  0.8654  1.8208
 5232TIP3   OH237186   2.889   0.085  10.549  0.1955 -0.0649 -0.1600
 5232TIP3    H137187   2.901   0.180  10.560 -0.3994 -0.1213  1.1126
 5232TIP3    H237188   2.871   0.074  10.455 -0.8309  1.2062 -0.1409
 5233TIP3   OH237189   0.862   2.650  14.858  0.4881  1.0156 -0.0209
 5233TIP3    H137190   0.863   2.663  14.763 -1.0461  3.4762  0.1946
 5233TIP3    H237191   0.919   2.719  14.892  0.4785  0.5875  0.8821
 5234TIP3   OH237192   0.944   0.067   1.963 -0.2531  0.5765  0.3913
 5234TIP3    H137193   0.859   0.055   1.920 -0.1158  1.0099 -0.0030
 5234TIP3    H237194   0.922   0.104   2.048 -0.4309  1.1151  0.1122
 5235TIP3   OH237195   0.980   0.052   0.599  0.8781 -0.3588 -0.0876
 5235TIP3    H137196   1.051   0.041   0.535 -1.1351 -2.2986 -2.2179
 5235TIP3    H237197   1.015   0.014   0.680  2.3944 -0.9381 -0.9602
 5236TIP3   OH237198   4.470   0.940  12.364  0.2927 -0.3568  0.0118
 5236TIP3    H137199   4.458   0.901  12.450  0.5636 -0.5155 -0.0232
 5236TIP3    H237200   4.381   0.951  12.329 -0.1003  2.5930  1.5898
 5237TIP3   OH237201   3.982   6.611  11.354  0.1005 -0.2262  0.2696
 5237TIP3    H137202   4.068   6.572  11.335 -0.8845 -2.5005  0.2185
 5237TIP3    H237203   3.925   6.576  11.286 -1.3825 -0.7106  1.7089
 5238TIP3   OH237204   4.390   2.338  13.362  0.9435 -0.0968 -0.3165
 5238TIP3    H137205   4.310   2.286  13.358  0.8330  0.1627 -2.7944
 5238TIP3    H237206   4.384   2.385  13.446 -0.3078 -1.8624  0.6394
 5239TIP3   OH237207   5.126   0.934   0.718  0.8083  0.6854  0.3547
 5239TIP3    H137208   5.213   0.955   0.684  0.7878 -0.5168 -0.4953
 5239TIP3    H237209   5.140   0.856   0.772 -0.0840 -1.1188 -1.8493
 5240TIP3   OH237210   5.873   2.796   2.602  0.5433 -0.1141 -0.1772
 5240TIP3    H137211   5.818   2.730   2.560 -0.3935  0.3774  0.2482
 5240TIP3    H237212   5.839   2.803   2.691  3.0689 -1.7889  1.0239
 5241TIP3   OH237213   0.405   5.606  14.844  0.3929 -0.0643  0.5658
 5241TIP3    H137214   0.459   5.677  14.880 -1.5095  1.1900  1.1011
 5241TIP3    H237215   0.318   5.622  14.879 -0.3805 -1.9583 -0.3476
 5242TIP3   OH237216   1.208   5.134  13.402 -0.2120  0.3680  0.0419
 5242TIP3    H137217   1.283   5.146  13.460 -0.0381 -0.7328  0.0777
 5242TIP3    H237218   1.132   5.136  13.460  0.0141 -1.6311  0.5001
 5243TIP3   OH237219   6.058   5.625   3.751  0.5204 -0.1652  0.2754
 5243TIP3    H137220   5.978   5.631   3.700  0.0982 -0.0550  0.9422
 5243TIP3    H237221   6.128   5.626   3.685  0.0233  0.7283 -0.2617
 5244TIP3   OH237222   2.876   2.483  11.734  0.0928 -1.4475  0.5852
 5244TIP3    H137223   2.843   2.398  11.706 -0.8265 -0.6476 -0.9839
 5244TIP3    H237224   2.907   2.524  11.653 -3.6322  1.4195  0.2755
 5245TIP3   OH237225   5.039   5.551   4.426 -0.1767 -0.1620  0.1183
 5245TIP3    H137226   5.125   5.520   4.454 -0.1632 -1.0851 -0.8577
 5245TIP3    H237227   5.041   5.645   4.441  0.4363 -0.3778  1.5272
 5246TIP3   OH237228   1.725   6.191  15.451 -0.6733  0.5985 -0.4538
 5246TIP3    H137229   1.809   6.230  15.424 -0.1556 -0.5852 -0.6392
 5246TIP3    H237230   1.682   6.259  15.501  0.7445  0.9820  0.3043
 5247TIP3   OH237231   0.784   1.492   4.847  0.0534  0.0706  0.0922
 5247TIP3    H137232   0.746   1.465   4.762 -1.8002  0.5760  0.7060
 5247TIP3    H237233   0.708   1.520   4.899  1.3958  2.0059  1.1211
 5248TIP3   OH237234   3.861   3.967  13.209 -0.2167 -0.6237 -0.2015
 5248TIP3    H137235   3.807   3.946  13.285  0.3492  1.5142  0.8790
 5248TIP3    H237236   3.936   4.014  13.246 -0.0547  0.7073 -2.0980
 5249TIP3   OH237237   4.308   1.016   3.739 -0.6201 -0.3053  0.1408
 5249TIP3    H137238   4.275   1.085   3.796  0.0978 -0.1867  0.4280
 5249TIP3    H237239   4.257   0.939   3.764 -0.6528 -0.1390  0.6066
 5250TIP3   OH237240   5.176   1.063   2.414  0.3581 -0.3338 -0.2449
 5250TIP3    H137241   5.091   1.071   2.457  1.1659 -0.8179  1.5022
 5250TIP3    H237242   5.159   1.002   2.341 -1.0144  0.4668 -0.6385
 5251TIP3   OH237243   1.641   1.227   2.994 -0.2527  0.5123 -0.4443
 5251TIP3    H137244   1.591   1.146   3.003  0.5927 -0.0736 -0.8834
 5251TIP3    H237245   1.666   1.250   3.084  1.1303 -0.7762 -0.4696
 5252TIP3   OH237246   4.180   6.416   5.859  0.3794  0.2179  0.5940
 5252TIP3    H137247   4.269   6.429   5.891  0.3661 -0.6926  1.0201
 5252TIP3    H237248   4.189   6.417   5.764  1.0391 -0.9789  0.6194
 5253TIP3   OH237249   2.002   1.793  15.801 -0.3373 -0.0830 -0.2760
 5253TIP3    H137250   2.051   1.798  15.883 -0.4912 -2.1599 -0.0018
 5253TIP3    H237251   1.913   1.817  15.825 -0.6040 -1.6802  0.4134
 5254TIP3   OH237252   4.480   5.436  15.462  0.4352  1.2612  0.3223
 5254TIP3    H137253   4.572   5.421  15.481  0.4682  0.2603 -0.5952
 5254TIP3    H237254   4.436   5.430  15.548  0.9923 -0.0022  0.5343
 5255TIP3   OH237255   4.011   5.101   2.632 -0.3151 -0.2836 -0.8220
 5255TIP3    H137256   3.960   5.169   2.676 -0.7172 -1.7176  1.0783
 5255TIP3    H237257   3.979   5.101   2.542 -2.7866 -0.2387 -0.0327
 5256TIP3   OH237258   0.899   0.339  15.751 -0.1999  0.2786  0.0864
 5256TIP3    H137259   0.990   0.355  15.774 -0.5660  3.1900 -0.0458
 5256TIP3    H237260   0.888   0.245  15.757  2.9055 -0.2031 -0.2631
 5257TIP3   OH237261   3.282   0.032  12.450 -0.0186  0.1238  0.2677
 5257TIP3    H137262   3.359   0.046  12.506 -0.4575 -0.7954  1.1193
 5257TIP3    H237263   3.239  -0.045  12.486 -1.2897  0.5506 -0.2649
 5258TIP3   OH237264   3.291   6.416  11.859  0.3566  0.0744 -0.1485
 5258TIP3    H137265   3.340   6.367  11.793 -1.2024 -0.5659 -0.9078
 5258TIP3    H237266   3.355   6.439  11.926  1.6671 -0.6575 -1.1135
 5259TIP3   OH237267   4.581   5.956   3.744  0.4785  0.3524  0.2179
 5259TIP3    H137268   4.489   5.975   3.726  0.2263  1.0713  2.0455
 5259TIP3    H237269   4.578   5.890   3.814  1.3624 -0.2055 -0.2537
 5260TIP3   OH237270   2.954   3.807  10.978 -0.0705 -0.9553  0.4959
 5260TIP3    H137271   2.949   3.829  10.884 -0.9314 -0.2355  0.6998
 5260TIP3    H237272   2.968   3.712  10.979  2.0085 -0.7184 -0.3902
 5261TIP3   OH237273   6.358   6.697  12.451 -0.6964  0.1438 -0.2692
 5261TIP3    H137274   6.415   6.654  12.516 -0.0885 -0.6501 -1.3049
 5261TIP3    H237275   6.311   6.626  12.410 -0.6538  0.5901 -1.1039
 5262TIP3   OH237276   4.596   5.351   4.496  0.2465  0.3966  0.1094
 5262TIP3    H137277   4.533   5.285   4.526 -0.3102  0.2808 -1.2440
 5262TIP3    H237278   4.678   5.326   4.539 -0.2513 -0.4320  0.6132
 5263TIP3   OH237279   0.984   1.669  11.159  0.2724  0.7266 -0.1421
 5263TIP3    H137280   0.914   1.707  11.211 -0.6607  1.4088 -1.8504
 5263TIP3    H237281   1.063   1.713  11.190 -0.3863  1.7848  0.0694
 5264TIP3   OH237282   3.244   0.634  13.210 -0.5680 -0.1942  0.3490
 5264TIP3    H137283   3.201   0.665  13.130 -0.3223  0.3688  0.4303
 5264TIP3    H237284   3.274   0.546  13.189  0.2207  0.2542 -0.4624
 5265TIP3   OH237285   0.992   6.801  13.737  0.0663  0.3912  0.4960
 5265TIP3    H137286   0.995   6.883  13.688 -0.9786  0.7534  1.0007
 5265TIP3    H237287   0.936   6.744  13.684 -0.3684  0.4956  0.8348
 5266TIP3   OH237288   6.031   3.784  12.182 -0.0141  0.1633 -0.3680
 5266TIP3    H137289   5.984   3.865  12.166  0.0976  0.3239  0.0812
 5266TIP3    H237290   6.099   3.808  12.246  2.4961  0.5856 -3.0026
 5267TIP3   OH237291   6.491   4.549   2.444  0.0836  0.2290 -0.2488
 5267TIP3    H137292   6.395   4.545   2.439  0.0183  2.3101 -2.4301
 5267TIP3    H237293   6.521   4.476   2.391 -0.3632  0.8013 -1.3232
 5268TIP3   OH237294   2.231   5.518  13.804 -0.1030 -0.0162 -0.4642
 5268TIP3    H137295   2.292   5.489  13.872 -2.3647 -0.0556  1.6740
 5268TIP3    H237296   2.228   5.613  13.813 -0.2831 -0.0080 -0.6003
 5269TIP3   OH237297   5.300   0.577   5.590  0.0622 -0.4063 -0.3337
 5269TIP3    H137298   5.219   0.623   5.612 -0.5787 -1.3081 -0.7953
 5269TIP3    H237299   5.366   0.617   5.647 -0.3747  1.3909 -0.9997
 5270TIP3   OH237300   3.092   3.097   2.921 -0.0871 -0.1116 -0.5223
 5270TIP3    H137301   3.025   3.159   2.893 -0.4791 -0.9139 -1.3993
 5270TIP3    H237302   3.172   3.125   2.875  0.1333  0.6775  0.3103
 5271TIP3   OH237303   5.348   5.285   2.088  0.4931  0.6988  0.0209
 5271TIP3    H137304   5.443   5.296   2.088  0.8466 -1.6003  1.1508
 5271TIP3    H237305   5.313   5.374   2.090  2.6516  1.6000  0.9960
 5272TIP3   OH237306   3.329   0.228   4.202  0.0858 -0.5147  0.6814
 5272TIP3    H137307   3.258   0.263   4.147 -0.9258 -1.5771  1.2560
 5272TIP3    H237308   3.296   0.142   4.231  1.4118 -0.8099  1.3715
 5273TIP3   OH237309   3.911   1.737   3.301  0.1402  0.3067 -0.6569
 5273TIP3    H137310   3.979   1.677   3.271  0.3630 -0.0253  0.4408
 5273TIP3    H237311   3.863   1.686   3.367 -0.7418  0.7650 -0.9342
 5274TIP3   OH237312   1.087   3.854  13.324  0.2199  0.5214 -0.2525
 5274TIP3    H137313   1.018   3.848  13.258  1.2940  2.3488 -1.6262
 5274TIP3    H237314   1.075   3.776  13.377 -1.3352 -0.5135 -1.9829
 5275TIP3   OH237315   5.741   1.281   4.447  0.2983 -0.7196  0.0768
 5275TIP3    H137316   5.813   1.234   4.488 -0.6858 -1.2991  1.1895
 5275TIP3    H237317   5.783   1.338   4.382  1.7068 -1.3368  0.4216
 5276TIP3   OH237318   1.971   1.019   1.870  0.7515  0.8032  0.2888
 5276TIP3    H137319   1.931   1.080   1.932 -2.5394  1.4425 -2.1788
 5276TIP3    H237320   1.962   0.933   1.912 -0.5353  1.3178  1.1312
 5277TIP3   OH237321   3.294   1.882  14.996 -0.0332  0.4132 -0.6298
 5277TIP3    H137322   3.231   1.836  15.052  0.2613  1.0730  0.2634
 5277TIP3    H237323   3.379   1.845  15.019  0.0450  0.4020 -0.9321
 5278TIP3   OH237324   5.227   5.052   6.343  0.3093 -0.2223 -0.1200
 5278TIP3    H137325   5.253   5.075   6.432 -0.0236 -1.6690  0.3734
 5278TIP3    H237326   5.304   5.070   6.290  1.3954 -1.7224  0.8642
 5279TIP3   OH237327   3.682   0.477  11.832 -0.9450  0.1879  0.4503
 5279TIP3    H137328   3.599   0.465  11.787 -0.7219 -0.7203  0.2636
 5279TIP3    H237329   3.679   0.416  11.905 -0.5071  0.2640  0.5361
 5280TIP3   OH237330   4.520   4.237  13.962  0.3000 -0.4153 -0.4763
 5280TIP3    H137331   4.524   4.332  13.956  1.2245 -0.3751  0.4455
 5280TIP3    H237332   4.603   4.212  14.003  0.0479 -1.6124 -0.6568
 5281TIP3   OH237333   5.095   0.547  14.875  0.4260 -0.4431  0.5218
 5281TIP3    H137334   5.135   0.590  14.799  2.1845 -0.3427  1.4573
 5281TIP3    H237335   5.080   0.457  14.847  1.2343 -0.4560  0.1197
 5282TIP3   OH237336   4.844   3.395  15.930  0.1760  0.0702 -0.0648
 5282TIP3    H137337   4.854   3.416  15.837  1.0487 -0.2403 -0.0478
 5282TIP3    H237338   4.933   3.384  15.962 -0.1349 -0.2538  0.7137
 5283TIP3   OH237339   6.309   5.668  14.976 -0.0506  0.6893  0.2818
 5283TIP3    H137340   6.239   5.730  14.999 -0.7587 -0.5552  1.6869
 5283TIP3    H237341   6.385   5.698  15.026 -0.6066  0.0397  1.5731
 5284TIP3   OH237342   2.790   1.954   0.581  0.4469 -0.2093  0.6349
 5284TIP3    H137343   2.805   1.967   0.674 -0.1093 -0.5380  0.7780
 5284TIP3    H237344   2.828   2.031   0.539  1.3584 -0.4140  1.0639
 5285TIP3   OH237345   6.665   6.399  13.224 -0.4357 -0.8223 -0.1630
 5285TIP3    H137346   6.584   6.382  13.272  0.4556  1.9854  2.7160
 5285TIP3    H237347   6.637   6.452  13.149 -1.4139 -1.7315 -0.4848
 5286TIP3   OH237348   0.063   4.729  16.005 -0.1151  0.8852  0.1478
 5286TIP3    H137349   0.025   4.733  15.917  0.4154  0.9812 -0.0748
 5286TIP3    H237350   0.105   4.814  16.018  2.3191 -0.1169 -0.6396
 5287TIP3   OH237351   2.987   5.600  13.423  0.4534  0.0308  0.0107
 5287TIP3    H137352   3.051   5.573  13.357 -0.9922 -0.2510 -1.3347
 5287TIP3    H237353   2.904   5.563  13.393 -0.3394  0.2351  1.7909
 5288TIP3   OH237354   3.846   5.617   4.097  0.1241  0.3725  0.0924
 5288TIP3    H137355   3.868   5.676   4.169  0.1871 -0.4878  0.7993
 5288TIP3    H237356   3.751   5.616   4.095  0.1212  0.6884 -0.0947
 5289TIP3   OH237357   6.232   6.310  12.045  0.1041  0.6225 -0.2092
 5289TIP3    H137358   6.236   6.402  12.072 -0.8338  0.6730 -0.2084
 5289TIP3    H237359   6.308   6.299  11.988  0.1614  1.4358 -0.3079
 5290TIP3   OH237360   5.639   4.246  14.683  0.1042 -0.4512  0.2496
 5290TIP3    H137361   5.664   4.261  14.774  1.7931 -1.5929  0.0217
 5290TIP3    H237362   5.573   4.177  14.687  1.1633 -1.4901  0.5721
 5291TIP3   OH237363   5.327   4.073  16.550 -0.1625 -0.1677  0.0882
 5291TIP3    H137364   5.285   4.149  16.592 -1.5122 -0.5976 -0.4270
 5291TIP3    H237365   5.418   4.101  16.536 -0.8571  1.7757 -1.0556
 5292TIP3   OH237366   3.047   0.947   0.925  0.4350  0.0472 -0.3799
 5292TIP3    H137367   2.995   0.959   0.846  0.7133  1.0190 -0.4235
 5292TIP3    H237368   3.026   0.858   0.954 -1.2800  0.4277 -0.3588
 5293TIP3   OH237369   0.918   5.917   3.335 -0.2044 -0.2848 -0.2741
 5293TIP3    H137370   0.998   5.880   3.296  0.3740 -0.1619  0.7604
 5293TIP3    H237371   0.908   5.870   3.418 -0.2770  0.8588  0.3816
 5294TIP3   OH237372   1.333   0.721   4.944 -0.2904 -0.5177  0.2089
 5294TIP3    H137373   1.408   0.729   5.002 -0.3419 -1.4459  0.4355
 5294TIP3    H237374   1.358   0.766   4.864 -0.2009  0.7403  0.9307
 5295TIP3   OH237375   3.102   5.393  10.702  0.0094 -0.0955 -0.3313
 5295TIP3    H137376   3.114   5.484  10.728  1.3125 -0.4341  0.3335
 5295TIP3    H237377   3.133   5.390  10.611  0.2855  0.0557 -0.2437
 5296TIP3   OH237378   5.232   1.393   4.221  0.3175  0.1683 -0.1092
 5296TIP3    H137379   5.222   1.480   4.182 -0.1097  0.0728 -0.2079
 5296TIP3    H237380   5.316   1.362   4.187 -0.3720 -0.2190 -1.5453
 5297TIP3   OH237381   0.828   6.629  13.592  0.3528  0.4902 -0.1605
 5297TIP3    H137382   0.790   6.620  13.505  4.7738 -1.2993 -2.1754
 5297TIP3    H237383   0.816   6.543  13.632  0.4939  0.5489  0.0084
 5298TIP3   OH237384   6.533   2.599   5.744  0.1867  0.2308 -0.0015
 5298TIP3    H137385   6.458   2.653   5.769  0.4706 -0.1662  1.8185
 5298TIP3    H237386   6.591   2.601   5.819  1.1018 -1.0564 -0.6281
 5299TIP3   OH237387   0.552   1.275   0.531  0.2420  0.0429  0.1690
 5299TIP3    H137388   0.591   1.359   0.507  0.3197  0.2099  0.8619
 5299TIP3    H237389   0.592   1.212   0.471 -1.1422  0.7333 -1.6162
 5300TIP3   OH237390   0.074   2.886  12.205 -0.6244  0.1397 -0.3446
 5300TIP3    H137391   0.142   2.937  12.160  1.6093 -1.6067  0.8161
 5300TIP3    H237392   0.019   2.951  12.247  0.7809  1.6529 -0.7381
 5301TIP3   OH237393   0.500   6.538  10.987  0.0645 -0.2878 -0.0766
 5301TIP3    H137394   0.576   6.481  10.972 -0.8212 -2.0013  1.6303
 5301TIP3    H237395   0.437   6.513  10.920 -0.6025 -1.8905  1.1087
 5302TIP3   OH237396   2.248   3.486  12.038 -0.3179  0.1802  0.1173
 5302TIP3    H137397   2.301   3.463  12.114  0.4762  0.2233 -0.4070
 5302TIP3    H237398   2.172   3.428  12.042 -0.3033  0.2207  0.9631
 5303TIP3   OH237399   0.898   1.667   3.695  0.3559  0.6491  0.4297
 5303TIP3    H137400   0.986   1.662   3.657  0.6223 -0.1379  1.1026
 5303TIP3    H237401   0.912   1.651   3.789 -0.6662 -0.9744  0.3332
 5304TIP3   OH237402   6.565   0.222   4.354 -0.2978  0.1006  0.3652
 5304TIP3    H137403   6.522   0.242   4.271 -1.0194  0.1182  0.7293
 5304TIP3    H237404   6.495   0.186   4.408  0.3377 -0.6325  0.7078
 5305TIP3   OH237405   5.397   2.399   4.106  0.1217 -0.0207  0.0214
 5305TIP3    H137406   5.349   2.461   4.161 -0.2460  0.2640 -0.6068
 5305TIP3    H237407   5.331   2.365   4.045  0.5004 -0.4024 -0.1792
 5306TIP3   OH237408   1.724   4.296  16.963 -0.8704  0.0155 -0.2890
 5306TIP3    H137409   1.792   4.239  16.998 -0.7323  0.3508 -0.0112
 5306TIP3    H237410   1.642   4.250  16.983 -0.8722  0.7345  1.5098
 5307TIP3   OH237411   0.303   0.578  12.197 -0.1887 -0.0405  0.3400
 5307TIP3    H137412   0.388   0.578  12.153 -0.1749  2.3269  0.2705
 5307TIP3    H237413   0.323   0.552  12.287  0.5775  0.3212  0.2813
 5308TIP3   OH237414   6.546   4.796  16.135 -0.6013 -0.0140  0.1230
 5308TIP3    H137415   6.609   4.764  16.200  0.4088 -0.1881 -0.9064
 5308TIP3    H237416   6.465   4.808  16.184  0.4308  0.9925  1.6671
 5309TIP3   OH237417   5.481   5.559  12.181  0.0032 -0.3305 -0.0199
 5309TIP3    H137418   5.429   5.526  12.108 -1.3267  1.3942  0.0856
 5309TIP3    H237419   5.487   5.653  12.165  2.5794 -0.3636  0.3448
 5310TIP3   OH237420   6.083   5.197  15.954  0.5561  0.3026 -0.1953
 5310TIP3    H137421   6.109   5.107  15.931 -1.8911 -0.2655 -0.9664
 5310TIP3    H237422   6.154   5.251  15.921  0.9851 -1.1716 -1.8204
 5311TIP3   OH237423   4.322   3.237   0.690  0.1946  0.4532  0.1348
 5311TIP3    H137424   4.408   3.222   0.729  0.2753  0.7577  0.0786
 5311TIP3    H237425   4.333   3.213   0.598 -0.7771 -3.1736  0.8295
 5312TIP3   OH237426   5.158   4.628  14.858 -0.2568 -0.3006 -0.0430
 5312TIP3    H137427   5.210   4.593  14.786 -0.5576  0.1759 -0.5018
 5312TIP3    H237428   5.221   4.646  14.928 -0.0364 -1.2585  0.0114
 5313TIP3   OH237429   3.507   4.108  12.179 -0.2067  0.1273  0.0052
 5313TIP3    H137430   3.454   4.049  12.233  1.2501 -0.5114  0.7863
 5313TIP3    H237431   3.587   4.058  12.161  0.3907  1.2876 -0.6359
 5314TIP3   OH237432   6.082   6.663  12.390  0.3746 -0.5775 -0.3786
 5314TIP3    H137433   6.006   6.720  12.390 -1.6879 -3.0929  1.1708
 5314TIP3    H237434   6.107   6.657  12.298 -2.7228 -1.3353 -1.3024
 5315TIP3   OH237435   4.275   4.720   4.146  0.0840 -0.5354 -0.4655
 5315TIP3    H137436   4.206   4.738   4.083  0.8801  4.0990 -0.3793
 5315TIP3    H237437   4.348   4.687   4.094  0.1477  1.5551 -1.7958
 5316TIP3   OH237438   0.307   1.204   1.423  0.4896 -0.5270 -0.8490
 5316TIP3    H137439   0.265   1.203   1.336  1.1320 -2.2688 -1.1766
 5316TIP3    H237440   0.234   1.195   1.484 -0.0217  1.1654 -1.1281
 5317TIP3   OH237441   3.118   0.550  11.824  0.3868 -0.6253  0.7227
 5317TIP3    H137442   3.122   0.555  11.728  1.0785 -0.5433  0.7520
 5317TIP3    H237443   3.208   0.565  11.852  0.0950 -0.1495  1.4138
 5318TIP3   OH237444   0.455   5.609  11.323 -0.2769  0.0948  0.1855
 5318TIP3    H137445   0.505   5.623  11.404  0.8574 -3.4640  0.2573
 5318TIP3    H237446   0.514   5.637  11.253  0.2911 -0.4192  0.4491
 5319TIP3   OH237447   0.632   3.529   3.001 -0.4336  0.4957 -0.0506
 5319TIP3    H137448   0.634   3.618   3.035 -0.1779  1.1873 -1.8110
 5319TIP3    H237449   0.645   3.538   2.907  3.0444 -1.6024  0.0601
 5320TIP3   OH237450   0.236   2.004  13.383  0.7357 -0.1649  0.2254
 5320TIP3    H137451   0.314   2.053  13.408  0.4665  0.3706  0.0290
 5320TIP3    H237452   0.264   1.913  13.380  1.0891 -0.0970  1.2148
 5321TIP3   OH237453   2.619   4.155   3.587 -0.1809  0.7278 -0.0548
 5321TIP3    H137454   2.563   4.143   3.511 -1.5338 -0.0426  1.0221
 5321TIP3    H237455   2.563   4.198   3.652  0.4658 -0.0156  1.0291
 5322TIP3   OH237456   3.103   5.833   1.250 -0.2195 -0.0134 -0.0225
 5322TIP3    H137457   3.132   5.852   1.161 -1.2810  0.1038 -0.3492
 5322TIP3    H237458   3.009   5.823   1.244 -0.0804 -2.4543  0.6482
 5323TIP3   OH237459   3.712   3.617  13.405  0.0798 -0.2360 -0.1105
 5323TIP3    H137460   3.706   3.521  13.407 -1.3817 -0.1614  1.2753
 5323TIP3    H237461   3.665   3.641  13.325  1.1156 -0.6701 -0.8840
 5324TIP3   OH237462   2.908   1.829   1.470  0.3010  0.3997  0.2862
 5324TIP3    H137463   2.860   1.833   1.553 -3.2878 -0.8931 -1.4812
 5324TIP3    H237464   2.944   1.741   1.468 -1.4160 -0.3392 -0.3021
 5325TIP3   OH237465   3.853   6.600  14.969 -0.5720 -0.6133 -0.1807
 5325TIP3    H137466   3.910   6.654  14.914 -0.5868  0.9948  1.2941
 5325TIP3    H237467   3.888   6.611  15.058 -0.3312 -3.4040  0.1664
 5326TIP3   OH237468   4.619   1.522  11.572  0.3652 -0.3486  0.7615
 5326TIP3    H137469   4.691   1.523  11.635 -1.5310 -2.8564  3.1993
 5326TIP3    H237470   4.541   1.507  11.624 -1.6406 -0.2964 -2.0130
 5327TIP3   OH237471   1.617   5.749   0.228  0.1831  0.0341  0.1819
 5327TIP3    H137472   1.578   5.765   0.315  1.3756  1.5904  0.4721
 5327TIP3    H237473   1.664   5.666   0.238 -0.4355 -0.2662  0.7336
 5328TIP3   OH237474   6.422   3.178  12.498 -0.2870  0.3230 -0.4478
 5328TIP3    H137475   6.422   3.123  12.420  0.5656 -0.7098  0.2429
 5328TIP3    H237476   6.348   3.147  12.549  1.2376 -1.5327  0.7908
 5329TIP3   OH237477   3.282   0.577  10.722 -0.5537 -0.0617  0.2048
 5329TIP3    H137478   3.282   0.493  10.676 -1.2721  1.0024 -1.8437
 5329TIP3    H237479   3.193   0.586  10.756 -0.5996  0.0484  0.0578
 5330TIP3   OH237480   3.099   0.811   2.915  0.4838  0.4712  0.2351
 5330TIP3    H137481   3.115   0.866   2.992 -1.1249  3.7638 -1.5983
 5330TIP3    H237482   3.016   0.843   2.879  0.1829 -2.2653 -1.8372
 5331TIP3   OH237483   6.411   6.753  13.214 -0.2312  0.0015 -0.2828
 5331TIP3    H137484   6.347   6.819  13.241  1.1286  0.8725  0.9536
 5331TIP3    H237485   6.393   6.677  13.270  0.2852  0.5258  0.6188
 5332TIP3   OH237486   2.860   1.121   4.037  0.1919  0.1836  0.1359
 5332TIP3    H137487   2.916   1.136   3.960 -0.4300 -0.1818 -0.3997
 5332TIP3    H237488   2.841   1.208   4.070 -1.7917  0.5673 -1.7776
 5333TIP3   OH237489   5.933   2.164  12.991 -0.4372  0.2451 -0.2003
 5333TIP3    H137490   6.008   2.178  13.048  0.7290  2.2637 -2.0836
 5333TIP3    H237491   5.865   2.129  13.049  1.5167 -0.4768  1.8096
 5334TIP3   OH237492   1.857   0.199  12.585 -0.2526  0.4441 -0.5052
 5334TIP3    H137493   1.841   0.251  12.663 -0.2838 -1.2052  0.6434
 5334TIP3    H237494   1.821   0.251  12.513 -0.8043  1.7109  0.6549
 5335TIP3   OH237495   5.135   5.330   0.167  0.1166 -0.1386 -0.2677
 5335TIP3    H137496   5.090   5.251   0.139 -1.4636  0.9637 -0.9632
 5335TIP3    H237497   5.133   5.327   0.263  1.8293 -1.8572 -0.2200
 5336TIP3   OH237498   1.763   4.382   0.620 -0.6115  0.0321  0.6628
 5336TIP3    H137499   1.744   4.322   0.548  0.1687  0.5853 -0.0168
 5336TIP3    H237500   1.684   4.380   0.674 -1.2635 -0.2705 -0.2827
 5337TIP3   OH237501   3.664   4.556   3.635 -0.1442  0.8113  0.2006
 5337TIP3    H137502   3.699   4.472   3.665  1.3946  1.4397  0.2431
 5337TIP3    H237503   3.740   4.613   3.628 -1.1264  2.1494 -0.0597
 5338TIP3   OH237504   2.908   5.633  13.778 -0.0136  0.0143  0.3241
 5338TIP3    H137505   2.894   5.578  13.855  1.4315 -0.2388  0.4421
 5338TIP3    H237506   2.980   5.590  13.731 -1.0848 -0.0296 -1.3649
 5339TIP3   OH237507   1.342   2.678   5.033 -0.5619 -0.7156  0.2498
 5339TIP3    H137508   1.336   2.724   4.949  0.7970 -0.1697  0.4294
 5339TIP3    H237509   1.403   2.606   5.016  2.0444  1.0821  1.4446
 5340TIP3   OH237510   3.967   0.845   2.228  0.5553  0.8936  0.2291
 5340TIP3    H137511   4.043   0.832   2.171 -0.7062 -3.2858 -0.9125
 5340TIP3    H237512   3.996   0.817   2.315  0.7165  0.6835  0.1085
 5341TIP3   OH237513   4.565   2.131  12.498  0.0299 -0.2146 -0.2547
 5341TIP3    H137514   4.533   2.130  12.407 -2.3094  1.0296  0.4580
 5341TIP3    H237515   4.485   2.140  12.550  1.5096  2.5983  1.7788
 5342TIP3   OH237516   0.198   2.176  16.992  0.6174 -0.0815 -0.1123
 5342TIP3    H137517   0.286   2.183  17.028 -0.3351  0.7561  2.2184
 5342TIP3    H237518   0.177   2.266  16.964  1.0464 -0.5733 -2.2116
 5343TIP3   OH237519   5.463   4.882   0.389 -0.6214  0.6296 -0.6889
 5343TIP3    H137520   5.515   4.957   0.416  1.7157 -0.6823 -1.3015
 5343TIP3    H237521   5.411   4.915   0.315  1.4889  1.3005 -1.9454
 5344TIP3   OH237522   5.680   4.688  15.255  0.6283 -0.1155  0.5859
 5344TIP3    H137523   5.655   4.777  15.229 -1.5156 -1.0854 -0.8976
 5344TIP3    H237524   5.717   4.699  15.342 -1.1087  2.0673  1.1535
 5345TIP3   OH237525   5.826   3.264  14.000 -0.0963 -0.8484 -0.1553
 5345TIP3    H137526   5.890   3.229  13.939 -1.2143 -1.6521 -0.9156
 5345TIP3    H237527   5.772   3.324  13.947  0.0265 -0.1673  0.4684
 5346TIP3   OH237528   0.343   6.139  16.283  0.1663 -0.2323 -0.5821
 5346TIP3    H137529   0.359   6.081  16.357  1.8679 -0.0342 -0.7454
 5346TIP3    H237530   0.424   6.191  16.276 -0.6198  0.9150 -1.5363
 5347TIP3   OH237531   1.890   4.024   0.446  0.1454 -0.3623 -0.0476
 5347TIP3    H137532   1.937   4.082   0.507 -0.0918 -1.4230  1.1935
 5347TIP3    H237533   1.863   3.950   0.500 -2.0040 -0.3207 -0.9704
 5348TIP3   OH237534   0.128   4.439  15.550  0.9801 -0.5662  0.3696
 5348TIP3    H137535   0.201   4.449  15.489  0.1837  0.3230 -0.4787
 5348TIP3    H237536   0.093   4.352  15.530  2.8001 -1.7411  1.9604
 5349TIP3   OH237537   3.019   4.105  15.310 -0.0007  0.4340  0.2897
 5349TIP3    H137538   3.109   4.076  15.320 -0.0665  0.4139  0.8133
 5349TIP3    H237539   2.996   4.080  15.220  0.4290  0.2164  0.2378
 5350TIP3   OH237540   3.064   0.721  13.448  0.4345  0.3453  0.0353
 5350TIP3    H137541   3.112   0.698  13.368 -1.0271  0.8300 -1.0080
 5350TIP3    H237542   2.974   0.736  13.420 -0.4072 -0.6475  1.9595
 5351TIP3   OH237543   5.326   1.836  10.969 -0.2819 -0.1408  0.3703
 5351TIP3    H137544   5.373   1.780  11.030  0.4653  0.3625  0.2782
 5351TIP3    H237545   5.304   1.778  10.895 -1.9116 -0.9468  1.4379
 5352TIP3   OH237546   5.400   5.302  16.850  0.3337  0.2030 -0.2301
 5352TIP3    H137547   5.381   5.212  16.822  1.6163 -0.0797 -0.2410
 5352TIP3    H237548   5.315   5.346  16.846 -0.1250 -0.7198 -1.2960
 5353TIP3   OH237549   0.677   1.609  13.232 -0.3636 -0.2504  0.6055
 5353TIP3    H137550   0.737   1.562  13.175 -1.9929 -2.0442  0.2713
 5353TIP3    H237551   0.684   1.700  13.205 -0.0966 -0.8634 -1.5358
 5354TIP3   OH237552   2.947   2.926   2.054 -0.0742  0.2221  0.3709
 5354TIP3    H137553   3.042   2.930   2.062  0.1447 -1.1230 -1.1657
 5354TIP3    H237554   2.923   3.011   2.016  0.1950  1.5069  2.8370
 5355TIP3   OH237555   3.111   3.513   2.973  0.2393 -0.5044  0.5082
 5355TIP3    H137556   3.166   3.469   2.908  0.5020 -0.6348  0.8199
 5355TIP3    H237557   3.022   3.502   2.939  0.4925  1.0307 -0.8047
 5356TIP3   OH237558   4.519   0.578  16.528  0.3104  0.4577  0.6040
 5356TIP3    H137559   4.474   0.645  16.579 -1.2399  1.0377 -1.3780
 5356TIP3    H237560   4.479   0.495  16.555 -2.7661  1.0126 -1.6420
 5357TIP3   OH237561   6.796   3.289   0.104  0.0598 -0.0761  0.0146
 5357TIP3    H137562   6.879   3.242   0.095  1.4554  2.1981  0.4207
 5357TIP3    H237563   6.797   3.355   0.035 -1.0945  0.4287  0.4557
 5358TIP3   OH237564   1.154   5.330  14.977  0.2599 -0.2255 -0.2565
 5358TIP3    H137565   1.229   5.270  14.974 -0.4522 -1.1797  0.1688
 5358TIP3    H237566   1.189   5.414  14.950  1.6676 -0.4570  0.7357
 5359TIP3   OH237567   3.032   6.607   4.131  0.0638 -0.0273 -0.1365
 5359TIP3    H137568   2.958   6.594   4.191  0.7966  0.1295  0.8373
 5359TIP3    H237569   3.021   6.695   4.098  0.1771  0.2487  0.5405
 5360TIP3   OH237570   2.732   0.603   1.661 -0.4088  0.4187  0.0108
 5360TIP3    H137571   2.644   0.577   1.634 -0.2519  0.5647 -0.6666
 5360TIP3    H237572   2.749   0.684   1.612  1.1049 -0.9868 -1.9540
 5361TIP3   OH237573   3.710   4.998   0.516 -0.1078  0.0922  0.3870
 5361TIP3    H137574   3.638   4.946   0.480 -0.4789  0.1508  1.0415
 5361TIP3    H237575   3.708   5.080   0.465 -1.3783  0.6619  1.2967
 5362TIP3   OH237576   2.099   5.898  11.684 -0.0388  0.4466 -0.4193
 5362TIP3    H137577   2.026   5.956  11.665 -1.4832 -0.8176  0.9827
 5362TIP3    H237578   2.081   5.819  11.633  0.3640  0.1228 -0.0731
 5363TIP3   OH237579   5.483   5.581  17.038 -0.1251  0.1256 -0.5220
 5363TIP3    H137580   5.437   5.626  17.109 -0.2999 -2.0527  0.8378
 5363TIP3    H237581   5.439   5.496  17.031  2.5836 -1.4023 -0.3275
 5364TIP3   OH237582   4.283   6.798  11.218 -0.1643 -0.2615 -0.3604
 5364TIP3    H137583   4.228   6.779  11.142  1.4828  0.3991 -1.7968
 5364TIP3    H237584   4.267   6.890  11.237 -0.5278 -0.4103  0.0705
 5365TIP3   OH237585   0.360   0.140   5.657  0.5428  0.5354  0.2377
 5365TIP3    H137586   0.402   0.190   5.587  0.3333  1.0812  0.4866
 5365TIP3    H237587   0.267   0.161   5.649  0.6291  1.5262  1.3548
 5366TIP3   OH237588   2.650   4.008  10.752  0.3854  0.0587 -0.3772
 5366TIP3    H137589   2.673   3.915  10.741  2.3107  0.5941 -1.1864
 5366TIP3    H237590   2.586   4.008  10.823  1.9469 -1.6900  1.1262
 5367TIP3   OH237591   3.477   3.932  15.280  0.2542  1.0943 -0.0524
 5367TIP3    H137592   3.457   4.005  15.221  0.6616  0.6547 -0.7483
 5367TIP3    H237593   3.572   3.925  15.278  0.1555 -0.3277 -1.0822
 5368TIP3   OH237594   4.668   0.924   3.312  0.6959 -0.2938 -0.3081
 5368TIP3    H137595   4.738   0.989   3.321 -0.0041  0.7994 -2.1005
 5368TIP3    H237596   4.713   0.845   3.283  1.3188  0.0798 -0.3771
 5369TIP3   OH237597   6.190   0.840  13.947 -0.2800  0.2624 -0.7407
 5369TIP3    H137598   6.235   0.758  13.927 -0.7482 -0.2696  0.2701
 5369TIP3    H237599   6.125   0.850  13.878 -1.6282 -1.3301  0.2092
 5370TIP3   OH237600   3.911   3.689  15.736  0.0636  0.5613 -0.1629
 5370TIP3    H137601   3.984   3.732  15.692 -0.0311  0.3018 -0.5708
 5370TIP3    H237602   3.834   3.716  15.687 -0.2744  1.8098  0.9765
 5371TIP3   OH237603   1.769   1.737   1.330  0.1941 -0.5091 -0.0078
 5371TIP3    H137604   1.840   1.693   1.283  0.0015 -1.6545  0.7385
 5371TIP3    H237605   1.700   1.671   1.336  0.0433 -0.2466  1.4609
 5372TIP3   OH237606   6.548   4.913   5.291 -0.1607 -0.1402 -0.0827
 5372TIP3    H137607   6.587   4.879   5.372 -1.7597  0.3906  0.9706
 5372TIP3    H237608   6.454   4.917   5.310 -0.4000  1.5502 -1.3851
 5373TIP3   OH237609   3.712   0.786  14.120 -0.2749  0.0614 -0.4705
 5373TIP3    H137610   3.681   0.828  14.040 -1.7519  1.1371  0.6086
 5373TIP3    H237611   3.634   0.776  14.174  0.6557 -0.7972  0.7840
 5374TIP3   OH237612   3.748   3.973   1.283  0.1956 -0.6602  0.1776
 5374TIP3    H137613   3.804   3.997   1.357 -1.1121 -0.1211  1.0493
 5374TIP3    H237614   3.670   4.028   1.294 -0.7953 -1.8660 -0.5725
 5375TIP3   OH237615   2.804   1.621  16.842 -0.3053  0.1999 -0.1856
 5375TIP3    H137616   2.791   1.539  16.794 -1.5930 -0.6358  1.4570
 5375TIP3    H237617   2.730   1.676  16.817  0.9073  1.1739 -1.7883
 5376TIP3   OH237618   4.253   5.990   5.292  0.4363  0.2911 -0.6781
 5376TIP3    H137619   4.201   5.969   5.214 -0.0898  2.2383 -0.8987
 5376TIP3    H237620   4.190   5.990   5.364  0.2406  1.8005 -0.8119
 5377TIP3   OH237621   3.832   0.544   3.379  0.3070 -0.1820  0.5052
 5377TIP3    H137622   3.869   0.512   3.462  1.7999  1.6096  0.6027
 5377TIP3    H237623   3.740   0.560   3.399  0.5373 -0.2072  1.6920
 5378TIP3   OH237624   2.675   1.189   2.258  0.2443 -0.8330 -0.1343
 5378TIP3    H137625   2.621   1.213   2.334  1.7121  0.8115  0.4666
 5378TIP3    H237626   2.759   1.162   2.295  1.9439  2.5028 -1.0942
 5379TIP3   OH237627   6.368   6.333   2.924  0.6322  0.2097 -0.1508
 5379TIP3    H137628   6.407   6.406   2.971 -0.8646  1.0848 -0.2207
 5379TIP3    H237629   6.436   6.265   2.924  2.0043  1.5370  0.0230
 5380TIP3   OH237630   3.534   0.607   4.124  0.4870  0.1150  0.4170
 5380TIP3    H137631   3.533   0.619   4.219 -2.0347 -1.4812  0.6885
 5380TIP3    H237632   3.557   0.694   4.090 -0.6018  1.3067  2.4554
 5381TIP3   OH237633   6.290   2.956   6.325  0.2057 -0.1718 -0.3120
 5381TIP3    H137634   6.217   2.897   6.345 -0.9883  0.6867 -1.9050
 5381TIP3    H237635   6.276   3.031   6.383 -0.2965  0.0808 -0.7584
 5382TIP3   OH237636   2.331   3.990   3.000  0.0770 -0.1469  0.5301
 5382TIP3    H137637   2.252   4.042   2.988 -0.5157 -0.7939  1.5590
 5382TIP3    H237638   2.305   3.901   2.976  1.1381  0.0050 -1.4180
 5383TIP3   OH237639   4.682   0.855   6.288  0.4554  0.1941 -0.0538
 5383TIP3    H137640   4.646   0.767   6.281  0.7907  0.2100 -3.7464
 5383TIP3    H237641   4.699   0.866   6.382 -0.7250 -3.1597  0.6992
 5384TIP3   OH237642   3.260   6.280   4.697 -0.0753 -0.5668  0.2198
 5384TIP3    H137643   3.273   6.190   4.726 -0.2209 -0.7244 -0.1937
 5384TIP3    H237644   3.349   6.316   4.689  0.0975 -1.2711 -1.4596
 5385TIP3   OH237645   5.537   5.479   2.603  0.1473  0.1274  0.0619
 5385TIP3    H137646   5.504   5.525   2.679  1.2352  1.0599 -0.0074
 5385TIP3    H237647   5.632   5.487   2.609  0.2706 -0.2211 -1.1215
 5386TIP3   OH237648   5.230   0.628   4.474 -0.1131 -0.4139  0.0270
 5386TIP3    H137649   5.215   0.694   4.542  1.2431  0.0218 -0.0673
 5386TIP3    H237650   5.244   0.677   4.394  2.1494 -0.6630  0.1743
 5387TIP3   OH237651   5.678   6.648  16.715  0.3471 -0.4094 -0.0291
 5387TIP3    H137652   5.708   6.706  16.786  1.1686  0.2792 -0.9165
 5387TIP3    H237653   5.642   6.708  16.649 -1.2652 -1.1006  0.1777
 5388TIP3   OH237654   5.908   5.500  11.081  0.0134 -0.8537  0.4323
 5388TIP3    H137655   5.979   5.440  11.102  0.6923 -0.8005 -1.5312
 5388TIP3    H237656   5.917   5.517  10.988 -0.7101  1.5848  0.7313
 5389TIP3   OH237657   2.924   2.193   5.055 -0.2780 -0.3252 -0.2250
 5389TIP3    H137658   2.942   2.198   5.148  2.2630 -0.3686 -0.6462
 5389TIP3    H237659   2.923   2.284   5.025 -2.5068 -0.2134  0.0124
 5390TIP3   OH237660   2.302   2.006   1.252  0.3201 -0.0522 -0.4660
 5390TIP3    H137661   2.308   2.099   1.230 -1.8982 -0.1107 -1.6789
 5390TIP3    H237662   2.238   2.002   1.323  1.9498 -0.5257  1.0413
 5391TIP3   OH237663   4.671   2.379  17.090  0.8086 -0.7388 -0.1970
 5391TIP3    H137664   4.630   2.453  17.135 -0.9942 -1.6892 -0.1875
 5391TIP3    H237665   4.735   2.346  17.152 -0.3999 -0.9359  1.0032
 5392TIP3   OH237666   4.722   0.053   4.488  0.0262  0.3664 -0.8491
 5392TIP3    H137667   4.647   0.018   4.537  1.3331  0.3895  1.2940
 5392TIP3    H237668   4.753  -0.021   4.436 -0.6926 -0.0264 -0.7250
 5393TIP3   OH237669   6.730   4.958   1.898 -0.2989 -0.5705  0.0142
 5393TIP3    H137670   6.806   5.001   1.938  0.9268 -1.5198 -1.2319
 5393TIP3    H237671   6.737   4.979   1.805 -1.3606 -1.0004 -0.1732
 5394TIP3   OH237672   6.264   5.904   0.422 -0.1294 -0.2533 -0.3656
 5394TIP3    H137673   6.297   5.870   0.505 -0.1239 -0.5293 -0.4809
 5394TIP3    H237674   6.169   5.895   0.429 -0.0672 -1.5357 -0.9260
 5395TIP3   OH237675   1.832   5.138  13.656 -0.4810  0.5066 -0.2055
 5395TIP3    H137676   1.882   5.205  13.703 -3.0857  1.4418  1.4271
 5395TIP3    H237677   1.776   5.188  13.597 -0.6052 -0.4133 -0.8701
 5396TIP3   OH237678   6.240   4.937  15.851 -0.7519 -0.3724 -0.2956
 5396TIP3    H137679   6.242   4.930  15.755 -0.7760  1.5259 -0.4858
 5396TIP3    H237680   6.228   4.848  15.882 -0.9960 -0.9968 -2.0758
 5397TIP3   OH237681   0.999   4.273  16.813  0.0573 -0.0028 -0.3465
 5397TIP3    H137682   0.959   4.196  16.773  2.1256 -0.2425 -2.0830
 5397TIP3    H237683   1.066   4.238  16.871 -0.9211  0.4556  1.1209
 5398TIP3   OH237684   2.906   5.488   2.688 -0.4204 -0.4155  0.1635
 5398TIP3    H137685   2.928   5.553   2.622  1.2306  0.1732  1.2333
 5398TIP3    H237686   2.823   5.520   2.725 -1.3120 -0.6981 -1.4861
 5399TIP3   OH237687   6.700   0.054  10.821 -0.5559 -0.1059 -0.4587
 5399TIP3    H137688   6.692   0.139  10.779  1.8877  0.6360  0.3850
 5399TIP3    H237689   6.630   0.001  10.782 -1.1521  1.8016 -2.1599
 5400TIP3   OH237690   2.316   0.217  11.243 -0.1980  0.0046 -0.2672
 5400TIP3    H137691   2.314   0.221  11.148 -2.1973 -0.9367 -0.3317
 5400TIP3    H237692   2.396   0.262  11.268  0.6153 -0.1457 -2.4069
 5401TIP3   OH237693   5.992   1.341  11.178 -0.4373 -0.2341 -0.4052
 5401TIP3    H137694   5.938   1.278  11.225  0.0341  1.0596  2.0740
 5401TIP3    H237695   6.078   1.298  11.170 -0.3924 -0.3042  0.3751
 5402TIP3   OH237696   2.592   2.008   2.063 -0.1528  0.4665  0.2656
 5402TIP3    H137697   2.665   1.961   2.103 -0.1937  0.3054  0.1517
 5402TIP3    H237698   2.613   2.101   2.076 -0.5480  0.4209  1.3551
 5403TIP3   OH237699   3.301   4.934   0.696  0.0932  0.5008  0.5377
 5403TIP3    H137700   3.248   4.912   0.773 -0.3968  0.4883  0.2008
 5403TIP3    H237701   3.372   4.869   0.696  0.6516  1.0761  1.5104
 5404TIP3   OH237702   4.745   6.560  10.494  0.6353  0.8056  0.3699
 5404TIP3    H137703   4.720   6.538  10.404 -0.2163 -0.0715  0.8116
 5404TIP3    H237704   4.752   6.656  10.493  1.5793  0.7586 -0.8545
 5405TIP3   OH237705   2.318   0.377   6.292  0.8234  0.3241  0.1819
 5405TIP3    H137706   2.394   0.430   6.314  0.6610  1.6585 -2.0740
 5405TIP3    H237707   2.344   0.329   6.213 -1.2810  2.6039 -2.1030
 5406TIP3   OH237708   2.308   4.876   1.809 -0.1699 -0.3463 -0.2802
 5406TIP3    H137709   2.259   4.825   1.873  0.4195  0.1921  0.6222
 5406TIP3    H237710   2.290   4.968   1.832  1.3501 -0.1353  0.1833
 5407TIP3   OH237711   6.506   6.427  14.291 -0.5587 -0.3440 -0.4300
 5407TIP3    H137712   6.468   6.484  14.358 -1.9157 -2.1310  0.4087
 5407TIP3    H237713   6.565   6.484  14.242  0.8493  0.9763  2.5333
 5408TIP3   OH237714   0.481   1.697   1.485  0.1720 -0.2665  0.0937
 5408TIP3    H137715   0.485   1.615   1.533 -0.0851 -1.1625 -1.3443
 5408TIP3    H237716   0.389   1.723   1.489  0.1465 -0.3538  0.0669
 5409TIP3   OH237717   5.160   3.783   1.718  1.0848 -0.3879 -0.1746
 5409TIP3    H137718   5.067   3.796   1.702  0.6302 -0.8936  1.8946
 5409TIP3    H237719   5.180   3.698   1.678  0.3279 -0.9301  0.5805
 5410TIP3   OH237720   5.962   5.281  11.393 -0.1337 -0.1300 -0.1991
 5410TIP3    H137721   5.923   5.196  11.411 -1.3774  0.5632  0.5306
 5410TIP3    H237722   5.889   5.342  11.392  0.5485  0.7539 -2.1839
 5411TIP3   OH237723   6.632   3.900   3.390  1.1789 -0.2020  0.0500
 5411TIP3    H137724   6.551   3.862   3.423  0.8909  0.3445 -0.0100
 5411TIP3    H237725   6.604   3.975   3.338  1.8063  1.3021  1.7903
 5412TIP3   OH237726   4.260   3.519  11.173 -0.0622  0.0262  0.5588
 5412TIP3    H137727   4.235   3.605  11.207  0.6440  1.0904 -1.4104
 5412TIP3    H237728   4.177   3.479  11.147 -0.2829  2.9107 -4.5445
 5413TIP3   OH237729   4.820   1.807  15.280  0.1005  0.0891  0.3588
 5413TIP3    H137730   4.767   1.873  15.323 -0.2686  0.1032 -0.1058
 5413TIP3    H237731   4.781   1.724  15.305 -0.2210  0.1044 -0.0807
 5414TIP3   OH237732   5.552   2.319   3.041  0.3394  0.0003 -0.1266
 5414TIP3    H137733   5.600   2.317   3.124  0.5332  0.3951 -0.2254
 5414TIP3    H237734   5.460   2.305   3.066  0.6502 -2.2420 -0.0806
 5415TIP3   OH237735   2.757   1.247   0.567 -0.0038  0.2618 -0.0875
 5415TIP3    H137736   2.842   1.266   0.607 -0.0286  0.5961 -0.1938
 5415TIP3    H237737   2.698   1.233   0.641  0.3369 -0.8752 -0.0021
 5416TIP3   OH237738   6.605   3.548  15.438  0.0747 -0.0439 -0.0159
 5416TIP3    H137739   6.659   3.518  15.511 -0.7720  0.1494  0.7074
 5416TIP3    H237740   6.597   3.472  15.381 -2.0022 -1.2700  1.7580
 5417TIP3   OH237741   3.968   0.966   1.271 -0.1461 -0.6250 -0.8503
 5417TIP3    H137742   3.990   1.057   1.251  0.6547 -0.4628  0.6261
 5417TIP3    H237743   3.916   0.972   1.351  1.8923 -1.5639  0.6314
 5418TIP3   OH237744   4.969   4.487  15.844  0.5314  0.1153 -0.2694
 5418TIP3    H137745   5.062   4.493  15.823  0.6101  0.0482  0.0668
 5418TIP3    H237746   4.962   4.414  15.905  0.4615  1.0207  0.8470
 5419TIP3   OH237747   4.182   2.608   2.230 -0.2118  0.3174  0.4908
 5419TIP3    H137748   4.100   2.562   2.214 -0.0500  0.5763 -1.2436
 5419TIP3    H237749   4.156   2.697   2.251 -0.4236  0.0533  1.3686
 5420TIP3   OH237750   3.179   1.039   2.461  0.2174  0.4115 -0.1618
 5420TIP3    H137751   3.245   1.057   2.528  0.8942 -0.9959 -0.4152
 5420TIP3    H237752   3.145   0.953   2.483 -0.4740  0.4826 -0.9025
 5421TIP3   OH237753   1.089   4.257   5.433 -0.1575  0.6643 -0.5407
 5421TIP3    H137754   1.084   4.242   5.527  1.5777 -0.0287 -0.5216
 5421TIP3    H237755   1.117   4.349   5.424 -2.4586  1.4409 -0.4789
 5422TIP3   OH237756   0.016   6.564   3.992 -0.0565 -0.0081  0.2568
 5422TIP3    H137757   0.022   6.582   3.898  0.6366 -0.9877  0.0990
 5422TIP3    H237758   0.101   6.526   4.015  0.1405  1.0906  1.4924
 5423TIP3   OH237759   5.582   1.966  14.330  0.3335  0.4898  0.2617
 5423TIP3    H137760   5.597   2.061  14.339  1.1655  0.2416  2.1096
 5423TIP3    H237761   5.503   1.959  14.276  0.7674  2.2018 -0.6808
 5424TIP3   OH237762   6.060   3.893  11.838  0.3380 -0.1182  0.5968
 5424TIP3    H137763   6.078   3.971  11.785 -0.1063  0.0470  0.6791
 5424TIP3    H237764   6.027   3.927  11.921 -1.8676 -0.3824 -0.0963
 5425TIP3   OH237765   3.797   0.951   4.699 -0.6557  0.0492  0.0217
 5425TIP3    H137766   3.748   0.873   4.673 -0.4225  0.0605 -0.4575
 5425TIP3    H237767   3.885   0.918   4.720 -0.5076  0.2038 -0.3486
 5426TIP3   OH237768   5.627   6.808   3.937  0.0273  0.3410  0.0474
 5426TIP3    H137769   5.643   6.724   3.981 -0.5108  1.0770  1.7070
 5426TIP3    H237770   5.540   6.835   3.966 -0.8128  0.4004 -2.3032
 5427TIP3   OH237771   5.753   4.201  11.791  0.4534  0.3161 -0.3802
 5427TIP3    H137772   5.829   4.209  11.849 -0.9293  0.8234  1.4552
 5427TIP3    H237773   5.693   4.269  11.821 -1.9239 -1.8611  0.1898
 5428TIP3   OH237774   4.245   4.637   0.094 -0.5082  0.6729  0.2226
 5428TIP3    H137775   4.250   4.622   0.188 -0.2354 -0.5707  0.0286
 5428TIP3    H237776   4.218   4.553   0.058 -2.7429  1.6660 -0.6344
 5429TIP3   OH237777   0.858   1.311   1.652 -0.5437  0.4104 -0.2964
 5429TIP3    H137778   0.843   1.270   1.738  0.6229 -1.6922 -1.0273
 5429TIP3    H237779   0.947   1.286   1.629 -0.7367  1.1821 -2.0120
 5430TIP3   OH237780   6.544   3.033   5.769  0.9377 -0.0919 -0.7252
 5430TIP3    H137781   6.588   2.974   5.830 -0.8422 -1.1981 -0.4250
 5430TIP3    H237782   6.451   3.016   5.782  0.3873  1.9988 -1.4594
 5431TIP3   OH237783   1.719   4.017  16.588 -0.1450 -0.2805  0.0186
 5431TIP3    H137784   1.649   4.078  16.609  0.5294  0.9497 -1.1634
 5431TIP3    H237785   1.783   4.069  16.539  1.3184 -1.5028  0.5422
 5432TIP3   OH237786   0.056   3.727  14.237 -0.0968 -0.0409 -0.1207
 5432TIP3    H137787   0.134   3.723  14.292 -0.4253  0.0352  0.3586
 5432TIP3    H237788   0.087   3.705  14.149  0.1540 -1.8612  0.3859
 5433TIP3   OH237789   3.192   2.128   1.252 -0.1127 -0.5856 -0.3549
 5433TIP3    H137790   3.191   2.119   1.347 -0.5002 -0.7777 -0.3747
 5433TIP3    H237791   3.282   2.108   1.227 -0.2976 -1.8300 -0.1412
 5434TIP3   OH237792   3.096   6.580   3.726  0.0952 -0.4607 -0.0776
 5434TIP3    H137793   3.117   6.493   3.692  1.0531  0.1408 -1.0962
 5434TIP3    H237794   3.003   6.592   3.705 -0.1910 -1.4363  0.5657
 5435TIP3   OH237795   0.587   0.063   3.697  0.0757 -0.4199  0.1172
 5435TIP3    H137796   0.573   0.072   3.792 -0.2911  2.8708 -0.1464
 5435TIP3    H237797   0.499   0.051   3.662  0.2226 -1.7617  0.1364
 5436TIP3   OH237798   2.183   3.025  16.691 -0.0883 -0.4877  0.0186
 5436TIP3    H137799   2.260   2.996  16.641 -0.3593 -0.6000 -0.3388
 5436TIP3    H237800   2.218   3.087  16.755  0.4609 -1.3382  0.5703
 5437TIP3   OH237801   5.529   6.458   4.558  0.0229  0.6746 -0.0617
 5437TIP3    H137802   5.576   6.414   4.630  1.9006 -1.6881 -2.5305
 5437TIP3    H237803   5.588   6.527   4.531 -0.9480  1.9486  0.9463
 5438TIP3   OH237804   5.343   2.976   0.939  0.2141 -0.2351 -0.1030
 5438TIP3    H137805   5.324   2.955   0.847  0.1329 -1.0842  0.1015
 5438TIP3    H237806   5.326   3.069   0.946  0.1666 -0.1711 -0.9434
 5439TIP3   OH237807   0.380   1.125  10.752  0.5863  0.3806 -0.1519
 5439TIP3    H137808   0.373   1.073  10.673  0.4729 -0.1185  0.1841
 5439TIP3    H237809   0.320   1.084  10.814  2.0836 -0.4313  0.8318
 5440TIP3   OH237810   0.742   5.257   3.823  0.2208  0.1319 -0.2486
 5440TIP3    H137811   0.666   5.268   3.767  0.8455  0.3095 -1.0826
 5440TIP3    H237812   0.725   5.312   3.899 -0.3292  0.4238 -0.5827
 5441TIP3   OH237813   3.887   3.034  11.201 -0.4049  0.7244  0.3600
 5441TIP3    H137814   3.883   2.995  11.113 -0.1449  1.4615  0.0143
 5441TIP3    H237815   3.910   3.125  11.186 -1.2344  1.0748  1.1536
 5442TIP3   OH237816   5.082   4.140   0.701 -0.4601 -0.4272 -0.6685
 5442TIP3    H137817   5.117   4.074   0.641 -0.7597 -3.1652  1.9243
 5442TIP3    H237818   5.148   4.148   0.770 -0.0843  2.6666 -1.2535
 5443TIP3   OH237819   3.429   1.045  12.143 -0.1044 -0.1327  0.0743
 5443TIP3    H137820   3.360   1.101  12.176  1.1641  2.6728 -1.6654
 5443TIP3    H237821   3.510   1.091  12.165  1.0018 -1.2408 -1.4426
 5444TIP3   OH237822   6.398   5.293   4.239  0.0545  0.1508 -0.2139
 5444TIP3    H137823   6.470   5.299   4.175  0.2522  1.2131  0.0741
 5444TIP3    H237824   6.437   5.326   4.321 -0.9060  1.2663 -0.1874
 5445TIP3   OH237825   1.596   0.803   3.889 -0.3279  0.3665 -0.2124
 5445TIP3    H137826   1.633   0.735   3.832 -1.8141  0.5176 -1.4001
 5445TIP3    H237827   1.563   0.869   3.830  2.0886  2.7853  0.9169
 5446TIP3   OH237828   3.485   3.736  16.635  0.1801 -0.2102 -0.6279
 5446TIP3    H137829   3.517   3.722  16.545 -0.6338  0.5114 -1.0470
 5446TIP3    H237830   3.531   3.814  16.665 -0.7333  0.4958 -1.0241
 5447TIP3   OH237831   2.827   5.375  10.079 -0.4157 -0.2856 -0.6703
 5447TIP3    H137832   2.912   5.419  10.068 -0.2600 -0.3948  0.0313
 5447TIP3    H237833   2.765   5.430  10.031  0.0409 -0.1660 -1.1303
 5448TIP3   OH237834   1.504   4.226  13.789 -0.7727 -0.5689  0.4525
 5448TIP3    H137835   1.447   4.276  13.730  1.1026 -1.1432 -1.9983
 5448TIP3    H237836   1.571   4.289  13.817 -1.0834 -0.5555  1.1895
 5449TIP3   OH237837   5.702   0.735   2.531 -0.0647 -0.1278 -0.6284
 5449TIP3    H137838   5.742   0.658   2.573  2.0977  1.3179  0.1673
 5449TIP3    H237839   5.705   0.802   2.599 -0.3218  1.1383 -1.8344
 5450TIP3   OH237840   2.548   4.771   5.616 -0.0239 -0.1946  0.0025
 5450TIP3    H137841   2.593   4.759   5.699 -0.6269  0.1635  0.3891
 5450TIP3    H237842   2.466   4.721   5.626  0.8989 -2.0815 -1.2317
 5451TIP3   OH237843   3.922   4.457   2.841 -0.3230 -0.4904 -0.5149
 5451TIP3    H137844   3.964   4.401   2.776  0.5318 -0.3883 -0.0635
 5451TIP3    H237845   3.828   4.440   2.830 -0.1154 -1.5181 -0.8155
 5452TIP3   OH237846   5.318   4.471  14.671  0.2782  0.0553  0.1755
 5452TIP3    H137847   5.411   4.493  14.678  0.0460  0.6154  2.0791
 5452TIP3    H237848   5.317   4.376  14.655  1.1723  0.2927 -1.5130
 5453TIP3   OH237849   2.533   0.521  12.619 -0.0491  0.5442 -0.0579
 5453TIP3    H137850   2.470   0.490  12.684 -1.2693  0.1427 -1.3891
 5453TIP3    H237851   2.482   0.535  12.539  1.2197  2.0064 -0.6765
 5454TIP3   OH237852   4.320   4.173  14.933 -0.9518 -0.3284  0.2443
 5454TIP3    H137853   4.284   4.130  15.011 -1.0371  1.3180  1.1665
 5454TIP3    H237854   4.393   4.116  14.906 -0.2041 -0.3844  2.2014
 5455TIP3   OH237855   3.650   0.446  14.653  0.5295 -0.0747  0.0548
 5455TIP3    H137856   3.724   0.504  14.635  0.3197  0.1482 -0.0989
 5455TIP3    H237857   3.585   0.502  14.693  0.0528 -0.0484 -0.7376
 5456TIP3   OH237858   2.885   3.121   2.656  0.5423 -0.7776 -0.2960
 5456TIP3    H137859   2.821   3.052   2.675  0.8720 -1.1444 -0.5217
 5456TIP3    H237860   2.831   3.195   2.628  0.1850 -0.9334 -0.0387
 5457TIP3   OH237861   1.000   0.891   0.363 -0.0266 -0.0151 -0.2748
 5457TIP3    H137862   0.907   0.887   0.343 -0.5211 -0.0800  1.7807
 5457TIP3    H237863   1.028   0.799   0.363 -0.3104 -0.1086  0.4981
 5458TIP3   OH237864   3.980   5.782   2.721 -0.0262  0.0150 -0.1360
 5458TIP3    H137865   3.931   5.784   2.639  1.7550 -1.0364 -1.3267
 5458TIP3    H237866   4.064   5.743   2.696  1.7454  2.4529  1.5891
 5459TIP3   OH237867   0.021   0.371   2.315 -0.0540 -0.2330 -0.0137
 5459TIP3    H137868   0.079   0.309   2.360 -0.3789 -0.0956  0.6139
 5459TIP3    H237869   0.027   0.347   2.223 -2.5388 -3.2855  0.4643
 5460TIP3   OH237870   3.446   4.963   1.549 -0.0809 -0.3801 -0.1368
 5460TIP3    H137871   3.422   5.046   1.590  0.2540  0.8521 -2.2470
 5460TIP3    H237872   3.380   4.901   1.580  0.5417  0.2411  2.6965
 5461TIP3   OH237873   6.157   2.502   3.182  0.0945  0.0975 -0.0531
 5461TIP3    H137874   6.237   2.554   3.181  0.4752 -0.4491  1.0488
 5461TIP3    H237875   6.127   2.504   3.273 -0.9179 -0.0592 -0.3616
 5462TIP3   OH237876   5.817   3.644  12.458  0.2929  0.0112  0.6706
 5462TIP3    H137877   5.728   3.656  12.491  0.0124 -1.1176  0.3636
 5462TIP3    H237878   5.805   3.610  12.370  1.0367  1.9136 -0.2158
 5463TIP3   OH237879   0.693   2.667  13.406  0.0068 -0.4032  0.0878
 5463TIP3    H137880   0.773   2.630  13.372 -0.6528 -1.2620 -0.5650
 5463TIP3    H237881   0.652   2.711  13.331  0.0952  0.4394  0.5237
 5464TIP3   OH237882   0.487   0.929  15.449  0.7478 -0.2060  0.0267
 5464TIP3    H137883   0.556   0.863  15.452  0.0304 -0.9910  2.8007
 5464TIP3    H237884   0.420   0.896  15.509 -0.1401  2.5300  0.6955
 5465TIP3   OH237885   4.447   3.014   1.822  0.2162 -0.3718 -0.2016
 5465TIP3    H137886   4.470   3.017   1.914 -0.6152  0.7228 -0.0096
 5465TIP3    H237887   4.353   2.994   1.822  0.5414 -2.1076 -0.8790
 5466TIP3   OH237888   6.676   3.712  14.958  0.4091 -0.2534  0.2010
 5466TIP3    H137889   6.715   3.644  14.904 -0.8487 -1.3438  0.6046
 5466TIP3    H237890   6.658   3.784  14.897  0.9955 -0.6036 -0.3958
 5467TIP3   OH237891   5.746   4.473   3.472  0.0257  0.0480 -0.0200
 5467TIP3    H137892   5.812   4.422   3.424 -0.7717 -0.1147 -0.9819
 5467TIP3    H237893   5.796   4.520   3.538  1.2607  0.6909 -1.3474
 5468TIP3   OH237894   5.736   0.385   2.128  0.0911 -0.2913  0.1263
 5468TIP3    H137895   5.695   0.449   2.070  1.3607  0.0373 -0.4448
 5468TIP3    H237896   5.664   0.328   2.156 -0.5851 -0.4003 -1.7012
 5469TIP3   OH237897   6.831   1.487   1.546 -0.1283  0.4411  0.2927
 5469TIP3    H137898   6.755   1.447   1.589 -0.4767  1.3544  0.5507
 5469TIP3    H237899   6.899   1.490   1.613 -0.3869  1.0672  0.5327
 5470TIP3   OH237900   0.792   1.351   0.285 -0.1230  0.3120  0.6097
 5470TIP3    H137901   0.733   1.397   0.345 -1.6344  0.9355 -1.2507
 5470TIP3    H237902   0.795   1.407   0.207  0.6443 -1.1356 -0.4460
 5471TIP3   OH237903   0.178   6.836   0.781 -0.2206  0.3460 -0.3920
 5471TIP3    H137904   0.167   6.741   0.789 -0.9455  0.5405  1.4829
 5471TIP3    H237905   0.269   6.848   0.757 -0.1102 -0.8189 -0.6327
 5472TIP3   OH237906   0.292   6.794   2.396  0.0717  0.3058  0.4809
 5472TIP3    H137907   0.337   6.769   2.477  0.4670  0.5704  0.3464
 5472TIP3    H237908   0.199   6.791   2.418  0.1515 -0.2810  0.7552
 5473TIP3   OH237909   5.168   6.742  13.988 -0.2733  0.7943 -0.3563
 5473TIP3    H137910   5.228   6.798  13.938 -0.1296  2.2367  1.3378
 5473TIP3    H237911   5.157   6.665  13.933  1.4522  1.4177 -1.6918
 5474TIP3   OH237912   4.063   3.234   1.831 -0.2898 -0.1373 -0.2697
 5474TIP3    H137913   3.973   3.253   1.857  0.0982 -1.4800  2.4130
 5474TIP3    H237914   4.077   3.143   1.855  2.2181  0.4330  0.7879
 5475TIP3   OH237915   6.136   0.499   5.860  0.0035 -0.5262 -0.0780
 5475TIP3    H137916   6.224   0.537   5.866  0.0400 -0.3874 -1.3888
 5475TIP3    H237917   6.146   0.412   5.900  0.4866 -0.1268  0.7076
 5476TIP3   OH237918   1.033   6.288  12.327 -0.1356  0.2492 -0.2212
 5476TIP3    H137919   0.949   6.276  12.282 -0.8360  1.2587  0.7534
 5476TIP3    H237920   1.027   6.233  12.405 -1.0139  2.2671  1.2287
 5477TIP3   OH237921   4.126   1.635   4.810 -0.2937 -0.2260 -0.1717
 5477TIP3    H137922   4.109   1.589   4.892 -0.3798  0.0566 -0.0298
 5477TIP3    H237923   4.221   1.644   4.806 -0.3417  0.4941  0.2999
 5478TIP3   OH237924   4.768   3.380   5.091  0.3600  0.1606  0.4093
 5478TIP3    H137925   4.818   3.307   5.054 -1.0104 -0.4577 -0.3082
 5478TIP3    H237926   4.731   3.345   5.172  0.9901  0.5819  0.8847
 5479TIP3   OH237927   0.580   2.903  15.638  0.1421  0.2853  0.1094
 5479TIP3    H137928   0.601   2.924  15.547  0.4462  1.0356  0.3433
 5479TIP3    H237929   0.633   2.826  15.658 -0.8801 -0.6726 -0.7206
 5480TIP3   OH237930   1.956   1.595  16.019 -0.0658 -0.3438 -0.3511
 5480TIP3    H137931   2.017   1.647  15.967 -0.2275  2.0784  1.6636
 5480TIP3    H237932   1.885   1.655  16.040 -1.1602 -1.9126  0.6614
 5481TIP3   OH237933   1.830   2.577   5.000  0.3930 -0.2436  0.2210
 5481TIP3    H137934   1.877   2.503   4.964  1.1181  0.4069 -0.1924
 5481TIP3    H237935   1.887   2.652   4.983  0.1038  0.2768  1.4504
 5482TIP3   OH237936   0.556   5.114  16.642  0.9839 -0.3368  0.2674
 5482TIP3    H137937   0.525   5.171  16.712  1.3451  1.0678 -0.6867
 5482TIP3    H237938   0.520   5.028  16.664 -1.3337  0.6450  0.6648
 5483TIP3   OH237939   2.543   1.535   2.527 -0.0862  0.4209  0.1085
 5483TIP3    H137940   2.539   1.581   2.611 -0.8311  2.4088 -0.9471
 5483TIP3    H237941   2.501   1.595   2.466 -1.4360 -1.8511 -1.3129
 5484TIP3   OH237942   2.651   5.351  14.361  0.6747 -0.0855 -0.3476
 5484TIP3    H137943   2.678   5.362  14.270  3.2779 -2.5209  0.0011
 5484TIP3    H237944   2.711   5.406  14.412 -0.1821  0.5559  0.0104
 5485TIP3   OH237945   6.175   1.765   3.934 -0.4123  0.8938 -0.0870
 5485TIP3    H137946   6.100   1.807   3.891  0.5376  1.1338 -1.5855
 5485TIP3    H237947   6.218   1.715   3.865 -0.1431 -0.6507  1.1366
 5486TIP3   OH237948   6.758   4.898   5.522  0.4541 -0.4061  0.2267
 5486TIP3    H137949   6.837   4.874   5.571  0.7140  0.9429  0.5079
 5486TIP3    H237950   6.756   4.994   5.524 -1.2384 -0.4059  0.2980
 5487TIP3   OH237951   0.453   6.246   4.047 -0.3969 -0.6742 -0.1043
 5487TIP3    H137952   0.440   6.334   4.011 -2.7662 -1.0853 -0.4363
 5487TIP3    H237953   0.514   6.204   3.987  1.4790  0.9682  0.5416
 5488TIP3   OH237954   1.217   1.191   2.090  0.2005 -0.2702  0.1988
 5488TIP3    H137955   1.272   1.262   2.124 -0.6379  0.2085  0.5685
 5488TIP3    H237956   1.213   1.127   2.161  0.8134 -0.6205 -0.0716
 5489TIP3   OH237957   0.225   6.102   5.659 -0.1679  0.0434 -0.4271
 5489TIP3    H137958   0.246   6.043   5.586  0.4551  0.6908 -0.7806
 5489TIP3    H237959   0.246   6.050   5.737 -0.7662 -0.6282 -0.7009
 5490TIP3   OH237960   4.196   5.204  12.448  0.1466 -0.2977  0.0944
 5490TIP3    H137961   4.131   5.134  12.447 -1.3314  0.9551  2.4148
 5490TIP3    H237962   4.232   5.204  12.359 -2.6621 -1.3470 -1.1424
 5491TIP3   OH237963   2.326   5.377  14.331  0.1124  0.3117 -0.0967
 5491TIP3    H137964   2.363   5.348  14.414 -1.2799  0.8173  0.7355
 5491TIP3    H237965   2.268   5.306  14.304  0.0433  0.4379 -0.2854
 5492TIP3   OH237966   4.126   3.208   1.169  0.8177 -0.6146 -0.1828
 5492TIP3    H137967   4.093   3.143   1.231 -1.4646  0.1751 -0.4647
 5492TIP3    H237968   4.166   3.275   1.224 -1.9669  0.5213  0.6484
 5493TIP3   OH237969   5.235   4.047  16.877 -0.3709  0.1556  0.1652
 5493TIP3    H137970   5.173   4.079  16.811  0.5137  1.3943 -0.1061
 5493TIP3    H237971   5.245   4.120  16.938  0.8281 -0.0003  0.1828
 5494TIP3   OH237972   0.708   6.189   5.845 -0.4410  0.6440  0.0127
 5494TIP3    H137973   0.787   6.215   5.798  0.1071  0.7369  0.9567
 5494TIP3    H237974   0.706   6.094   5.839 -0.8301  0.6999 -0.8947
 5495TIP3   OH237975   6.141   2.648  13.443 -0.5419  0.3867 -0.2312
 5495TIP3    H137976   6.063   2.694  13.414  0.3673  1.8373 -0.5036
 5495TIP3    H237977   6.113   2.598  13.519 -1.6037  1.3416  0.0290
 5496TIP3   OH237978   4.685   1.120   1.237 -0.8022 -0.2799  0.0965
 5496TIP3    H137979   4.606   1.095   1.285 -2.0332  0.1066 -1.6339
 5496TIP3    H237980   4.712   1.040   1.192 -0.0789 -0.4573  0.8277
 5497TIP3   OH237981   2.120   1.251   0.635 -0.0119  0.0899 -0.1152
 5497TIP3    H137982   2.102   1.314   0.705  1.8322 -0.1612  0.6485
 5497TIP3    H237983   2.159   1.303   0.565 -0.8483  0.1719 -0.5288
 5498TIP3   OH237984   6.312   4.360  16.515  0.1018 -0.3310 -0.5371
 5498TIP3    H137985   6.262   4.392  16.439  0.1567  0.6099 -0.1937
 5498TIP3    H237986   6.280   4.413  16.588  0.9439 -0.3542 -0.1381
 5499TIP3   OH237987   0.363   6.758   1.296  0.4366 -0.4227  0.9245
 5499TIP3    H137988   0.446   6.805   1.289  0.3506 -0.4340 -0.5220
 5499TIP3    H237989   0.364   6.721   1.384  1.4038  0.6097  1.3675
 5500TIP3   OH237990   5.497   5.097   9.761 -0.2032 -0.4960  0.0777
 5500TIP3    H137991   5.505   5.087   9.666  0.6071  1.6805 -0.1579
 5500TIP3    H237992   5.502   5.008   9.796  0.9890 -1.2381 -1.8264
 5501TIP3   OH237993   2.985   5.938  13.240 -0.3802  0.0045 -0.1618
 5501TIP3    H137994   2.942   5.981  13.314 -0.7236 -2.3670  1.1420
 5501TIP3    H237995   3.076   5.926  13.269 -0.2967 -0.1683 -0.4933
 5502TIP3   OH237996   6.450   5.617  13.374  0.1984  0.5706 -0.2559
 5502TIP3    H137997   6.367   5.631  13.328  0.4902 -1.0047 -1.3524
 5502TIP3    H237998   6.513   5.599  13.304  1.8583  3.2029  0.4250
 5503TIP3   OH237999   2.755   6.410   3.081 -0.1503 -0.0740 -0.2144
 5503TIP3    H138000   2.730   6.356   3.006 -2.9119  2.9115 -1.6940
 5503TIP3    H238001   2.822   6.469   3.047 -0.5518  0.5031 -0.0218
 5504TIP3   OH238002   3.229   0.631   4.953  0.2267 -0.3744  0.2089
 5504TIP3    H138003   3.164   0.611   4.886  1.9618 -2.0026 -1.0762
 5504TIP3    H238004   3.262   0.717   4.930 -1.0847  0.2524  0.5896
 5505TIP3   OH238005   2.389   6.776   0.175  0.4149 -0.0189 -0.2790
 5505TIP3    H138006   2.389   6.835   0.099 -0.6111 -0.3038 -0.5137
 5505TIP3    H238007   2.301   6.740   0.177  0.3664  0.1180  1.1591
 5506TIP3   OH238008   3.767   6.584   0.870 -0.2743 -0.7499 -0.2718
 5506TIP3    H138009   3.788   6.512   0.930  0.1272 -1.0691 -0.7844
 5506TIP3    H238010   3.769   6.662   0.925  0.6444 -0.9669  0.0340
 5507TIP3   OH238011   3.470   6.490   4.811  0.1255 -1.2203 -0.1143
 5507TIP3    H138012   3.472   6.548   4.888  1.1846  0.1141 -1.1082
 5507TIP3    H238013   3.430   6.543   4.742 -1.1931 -2.5441 -0.4370
 5508TIP3   OH238014   3.114   5.394  14.346 -0.0845  0.2441 -0.0507
 5508TIP3    H138015   3.081   5.349  14.423  0.3841  0.2204  0.1414
 5508TIP3    H238016   3.100   5.333  14.274  1.4589 -0.6560  0.3524
 5509TIP3   OH238017   1.701   3.084   3.520  0.3661 -0.3027 -0.4675
 5509TIP3    H138018   1.616   3.067   3.479  0.3334 -0.8147 -0.2089
 5509TIP3    H238019   1.713   3.010   3.580 -1.1488  1.9930  3.0333
 5510TIP3   OH238020   4.423   0.657  15.401 -0.0473 -0.0046  0.4229
 5510TIP3    H138021   4.330   0.638  15.413 -0.0052  0.0559  0.8908
 5510TIP3    H238022   4.464   0.626  15.482 -0.0680  2.6568  1.5676
 5511TIP3   OH238023   6.708   3.988  15.496  0.3839  0.4006 -0.0363
 5511TIP3    H138024   6.615   3.984  15.516  0.2078  2.3447 -0.1952
 5511TIP3    H238025   6.748   3.919  15.548 -1.1296 -0.3833  0.1244
 5512TIP3   OH238026   6.464   6.809   4.005 -0.3604  0.1400 -0.0503
 5512TIP3    H138027   6.384   6.800   4.057 -0.3441 -0.1031 -0.0656
 5512TIP3    H238028   6.493   6.899   4.020 -1.3830  0.6669 -1.1207
 5513TIP3   OH238029   4.555   1.105  15.674  0.1067 -0.6178  0.3352
 5513TIP3    H138030   4.586   1.047  15.744  2.4187  0.1505  0.0364
 5513TIP3    H238031   4.538   1.047  15.600  0.5170 -1.1180  0.6315
 5514TIP3   OH238032   4.412   4.142  15.347  0.2895 -0.1553 -0.6964
 5514TIP3    H138033   4.480   4.160  15.412  0.3622  0.0233 -0.8209
 5514TIP3    H238034   4.409   4.222  15.294 -2.0863  1.0981  1.1115
 5515TIP3   OH238035   1.252   1.141   3.565 -0.1773 -0.4727 -0.3300
 5515TIP3    H138036   1.161   1.145   3.593  0.0833  0.5379  0.4515
 5515TIP3    H238037   1.302   1.146   3.647  0.5813 -0.7872 -0.7689
 5516TIP3   OH238038   5.882   0.156   4.677  0.1798 -0.2433  0.0688
 5516TIP3    H138039   5.929   0.239   4.668  0.9300 -0.6066  0.4783
 5516TIP3    H238040   5.889   0.116   4.590 -0.3530  0.2102 -0.1810
 5517TIP3   OH238041   3.620   0.124  13.565 -0.0168  0.1587 -0.0536
 5517TIP3    H138042   3.591   0.104  13.654  0.1960 -0.1367 -0.0511
 5517TIP3    H238043   3.594   0.049  13.513  1.8949 -0.7274  0.1926
 5518TIP3   OH238044   4.881   1.071   0.649 -0.1134  0.6214 -0.0493
 5518TIP3    H138045   4.875   1.166   0.647  0.5195  0.6740  0.4786
 5518TIP3    H238046   4.970   1.052   0.679 -0.8696 -0.1274  1.8969
 5519TIP3   OH238047   4.188   5.194   0.200  0.1170  0.6841 -0.1715
 5519TIP3    H138048   4.230   5.118   0.240 -0.4296 -0.3838 -1.5474
 5519TIP3    H238049   4.137   5.233   0.271 -1.5957 -1.7010  0.0476
 5520TIP3   OH238050   0.302   5.287  15.009 -0.4589  1.0139  0.3286
 5520TIP3    H138051   0.256   5.206  14.986  0.6172  0.1531  1.1189
 5520TIP3    H238052   0.345   5.268  15.092 -0.7539  2.6441  0.9072
 5521TIP3   OH238053   1.005   5.509   3.069 -1.0174  0.0177  0.8113
 5521TIP3    H138054   1.003   5.418   3.040  1.0534 -0.0700  0.8275
 5521TIP3    H238055   1.080   5.547   3.024 -2.4531  2.0365 -0.0121
 5522TIP3   OH238056   4.238   6.179  16.213  0.6656 -0.0910  0.1297
 5522TIP3    H138057   4.218   6.176  16.119  2.2040  0.2091 -0.2407
 5522TIP3    H238058   4.305   6.246  16.221 -0.0148  0.4639  1.5829
 5523TIP3   OH238059   6.675   5.921   4.967  0.8683  0.5005  0.2271
 5523TIP3    H138060   6.770   5.909   4.974  0.8364 -0.7957 -1.1430
 5523TIP3    H238061   6.647   5.942   5.056  2.3257  0.0570  0.8189
 5524TIP3   OH238062   0.030   0.000  11.656  0.0299  0.2432  0.2147
 5524TIP3    H138063   0.092   0.008  11.584 -0.1741 -0.9288 -0.1177
 5524TIP3    H238064   0.079  -0.045  11.725  0.3753  1.7889  1.0257
 5525TIP3   OH238065   2.511   4.069   5.239  0.1444 -1.1362 -0.0078
 5525TIP3    H138066   2.509   4.006   5.311 -2.3277 -0.0663  0.9948
 5525TIP3    H238067   2.426   4.059   5.196 -0.0213  0.9503 -0.2763
 5526TIP3   OH238068   3.182   4.670   4.995 -0.1770  0.4710 -0.9351
 5526TIP3    H138069   3.136   4.593   4.961 -0.3461  1.0956 -2.1727
 5526TIP3    H238070   3.271   4.640   5.012 -0.5152 -0.2533 -0.4239
 5527TIP3   OH238071   5.592   3.398  10.660 -0.1991  0.3678  0.0627
 5527TIP3    H138072   5.646   3.476  10.649  0.9772 -0.5633 -1.0993
 5527TIP3    H238073   5.601   3.374  10.752  0.9487  0.5360 -0.0003
 5528TIP3   OH238074   3.649   5.203  15.968  1.0525 -0.2132 -0.2665
 5528TIP3    H138075   3.592   5.193  16.045  1.1365 -0.1188 -0.1912
 5528TIP3    H238076   3.598   5.257  15.908  0.6894 -0.8922 -0.5783
 5529TIP3   OH238077   6.517   4.521  14.476  0.2663 -0.0048 -0.8813
 5529TIP3    H138078   6.436   4.568  14.459  0.8794  1.8463  0.8161
 5529TIP3    H238079   6.586   4.584  14.457  1.1513 -0.2990  1.0836
 5530TIP3   OH238080   3.644   1.580  10.655  0.0865 -0.7399 -0.2100
 5530TIP3    H138081   3.728   1.599  10.696  0.3153 -1.8415 -0.1592
 5530TIP3    H238082   3.601   1.666  10.648  0.4224 -0.3944  1.5003
 5531TIP3   OH238083   4.199   4.182   3.228 -0.1578  0.4140 -0.0139
 5531TIP3    H138084   4.149   4.252   3.185  0.2269  2.0863  2.0776
 5531TIP3    H238085   4.285   4.186   3.187 -0.8048 -0.4771 -1.5526
 5532TIP3   OH238086   5.788   6.307  11.759  0.2268 -0.3706  0.0938
 5532TIP3    H138087   5.779   6.246  11.832  0.7734 -1.8341 -1.0006
 5532TIP3    H238088   5.874   6.347  11.772  0.6924 -1.2601 -0.1912
 5533TIP3   OH238089   3.989   5.145   2.976  0.6638 -0.1983  0.3585
 5533TIP3    H138090   3.996   5.234   2.940  0.9849  0.3696  1.7565
 5533TIP3    H238091   3.896   5.132   2.990  0.7901  1.3774  3.4929
 5534TIP3   OH238092   6.540   2.858  13.671 -0.1226  0.3833 -0.5031
 5534TIP3    H138093   6.594   2.875  13.748  0.9689 -1.0306 -0.9232
 5534TIP3    H238094   6.565   2.770  13.642 -1.1061  0.5466 -1.9893
 5535TIP3   OH238095   1.204   2.140  12.933  0.6703  0.2533  0.2745
 5535TIP3    H138096   1.177   2.053  12.905  3.0839 -0.1809 -0.9839
 5535TIP3    H238097   1.199   2.137  13.029  0.2267 -1.0901  0.2214
 5536TIP3   OH238098   0.927   0.432   3.429  0.3389  0.2184  0.0061
 5536TIP3    H138099   0.891   0.501   3.373  0.6772  0.8595  0.5699
 5536TIP3    H238100   0.878   0.439   3.511  1.7926  1.1779  0.8260
 5537TIP3   OH238101   3.427   5.413  13.497  0.0913  0.3102  0.2297
 5537TIP3    H138102   3.441   5.496  13.541 -0.5962  0.4773  0.1468
 5537TIP3    H238103   3.499   5.406  13.434  0.0170  0.9553  0.0710
 5538TIP3   OH238104   1.009   3.264  12.702  0.2097 -0.0945 -0.2797
 5538TIP3    H138105   0.995   3.349  12.660  3.7268  0.5868 -0.3696
 5538TIP3    H238106   1.071   3.282  12.773 -0.5626 -2.2828  1.0513
 5539TIP3   OH238107   4.433   4.271  12.588  0.2637  0.3920  0.6976
 5539TIP3    H138108   4.351   4.296  12.630  0.4691  2.1784  0.1088
 5539TIP3    H238109   4.495   4.260  12.660 -0.5548 -1.4860  1.1917
 5540TIP3   OH238110   5.481   5.767   4.974 -0.0918 -0.3207 -0.1067
 5540TIP3    H138111   5.504   5.685   4.931  1.3017 -0.1384  0.2492
 5540TIP3    H238112   5.564   5.815   4.980 -0.6228  0.5052  0.9604
 5541TIP3   OH238113   2.097   2.375   6.098  0.3682 -0.1958 -0.3233
 5541TIP3    H138114   2.085   2.303   6.037 -3.4645 -0.3667  0.3247
 5541TIP3    H238115   2.026   2.436   6.077  1.8534  2.1014  0.8835
 5542TIP3   OH238116   2.360   0.620   2.089  0.0358 -0.3032  0.0154
 5542TIP3    H138117   2.331   0.701   2.129  0.4098 -0.0580 -0.2062
 5542TIP3    H238118   2.381   0.643   1.999 -3.4485 -1.3720 -1.2335
 5543TIP3   OH238119   2.895   6.265   4.121  0.1889 -0.2039 -0.1732
 5543TIP3    H138120   2.887   6.324   4.045 -1.3953  0.6593  0.5945
 5543TIP3    H238121   2.817   6.210   4.116 -0.3161  0.3357  1.1672
 5544TIP3   OH238122   0.489   1.570  10.610 -0.3241  0.3329  0.2914
 5544TIP3    H138123   0.477   1.560  10.515  0.8539  1.0453  0.0567
 5544TIP3    H238124   0.554   1.640  10.619 -0.0357 -0.0867  1.6165
 5545TIP3   OH238125   1.690   3.252  12.138 -0.1002 -0.1215 -0.2009
 5545TIP3    H138126   1.621   3.231  12.075  0.3395 -1.2802 -0.3214
 5545TIP3    H238127   1.726   3.336  12.108  0.3066 -0.7892 -1.6870
 5546TIP3   OH238128   3.558   5.437  11.973  0.0220  0.0037  0.1478
 5546TIP3    H138129   3.578   5.349  12.006 -0.6834  0.1909  1.1226
 5546TIP3    H238130   3.636   5.463  11.924  0.6636 -0.7414  0.7501
 5547TIP3   OH238131   1.641   1.031   0.116 -0.8310 -0.1335 -0.3325
 5547TIP3    H138132   1.605   1.101   0.062 -0.6640  1.9249  2.0400
 5547TIP3    H238133   1.665   1.074   0.198 -0.0523 -2.8715  0.9912
 5548TIP3   OH238134   1.913   6.383   2.587 -0.2471 -0.2795 -0.0914
 5548TIP3    H138135   1.828   6.412   2.621 -0.4093 -1.2594  0.3633
 5548TIP3    H238136   1.930   6.301   2.632  1.0537  0.0078 -0.0343
 5549TIP3   OH238137   1.617   1.993   5.953  0.3365 -0.2131 -0.2771
 5549TIP3    H138138   1.706   2.026   5.939 -0.5475  1.9186 -1.2496
 5549TIP3    H238139   1.581   2.050   6.021 -1.3657  1.1954 -2.2592
 5550TIP3   OH238140   3.326   0.552   2.037  0.0172 -0.1416 -0.6093
 5550TIP3    H138141   3.271   0.474   2.025  2.8649 -2.6171  1.0146
 5550TIP3    H238142   3.364   0.541   2.125 -1.9324  4.8774  1.2250
 5551TIP3   OH238143   0.335   2.446   5.447 -0.3470 -0.1181  0.4781
 5551TIP3    H138144   0.256   2.449   5.392 -1.6604 -0.6270  2.2362
 5551TIP3    H238145   0.343   2.535   5.483 -0.2709 -0.1350  0.5029
 5552TIP3   OH238146   1.487   6.764   3.056 -0.1443  0.7168  0.3458
 5552TIP3    H138147   1.474   6.748   2.962  0.8091  1.4747  0.0691
 5552TIP3    H238148   1.555   6.830   3.060  0.6622 -0.1368  1.6013
 5553TIP3   OH238149   3.706   4.580  13.981 -0.1615  0.6588 -0.4582
 5553TIP3    H138150   3.631   4.519  13.986  0.0544  0.3132 -1.2624
 5553TIP3    H238151   3.775   4.537  14.031 -0.7278  1.3524  0.9796
 5554TIP3   OH238152   1.928   4.622  17.063 -0.1788 -0.3535  0.0450
 5554TIP3    H138153   1.908   4.658  17.149 -2.7256 -1.5470  0.0524
 5554TIP3    H238154   2.004   4.672  17.032  0.9775 -0.0722  3.0426
 5555TIP3   OH238155   2.769   0.427  11.986  0.3711 -0.7896 -0.9227
 5555TIP3    H138156   2.719   0.400  11.909  0.6316 -0.5946 -1.1599
 5555TIP3    H238157   2.741   0.365  12.054 -0.9084 -0.0968 -0.7843
 5556TIP3   OH238158   3.103   3.418  13.652  0.6507 -0.3222 -0.4452
 5556TIP3    H138159   3.164   3.372  13.595 -0.0488 -0.2469 -1.2759
 5556TIP3    H238160   3.055   3.348  13.697  0.7447 -0.3890 -0.4491
 5557TIP3   OH238161   4.510   0.718   2.933  0.4098  0.0381  0.1667
 5557TIP3    H138162   4.493   0.703   3.026 -0.1789 -0.8769 -0.0732
 5557TIP3    H238163   4.428   0.754   2.899  0.6913  0.5699  0.0408
 5558TIP3   OH238164   2.734   5.789  15.541  0.3532 -0.2224  0.0798
 5558TIP3    H138165   2.710   5.804  15.633 -2.3058  0.6459 -0.6668
 5558TIP3    H238166   2.802   5.854  15.523 -2.0192  2.5289  0.4008
 5559TIP3   OH238167   1.209   5.982   0.559 -0.6016 -0.5858 -0.0299
 5559TIP3    H138168   1.256   5.976   0.476  0.2321  0.4800  0.3431
 5559TIP3    H238169   1.227   6.070   0.591 -1.4514 -0.7506  0.9752
 5560TIP3   OH238170   4.747   3.682  13.227  0.0492 -0.4253  0.1877
 5560TIP3    H138171   4.772   3.661  13.137  0.9302  2.1419 -0.2458
 5560TIP3    H238172   4.651   3.689  13.224  0.0330 -0.8331 -0.4326
 5561TIP3   OH238173   4.811   6.576   2.090 -0.2401 -0.5476  0.0091
 5561TIP3    H138174   4.900   6.611   2.095  0.2583 -1.8608  0.9410
 5561TIP3    H238175   4.755   6.649   2.120  0.5940  0.0146  0.2434
 5562TIP3   OH238176   0.666   0.706  15.399  0.0887  0.7058 -0.1500
 5562TIP3    H138177   0.618   0.638  15.353  0.5727  1.0398 -1.1832
 5562TIP3    H238178   0.685   0.668  15.485  0.0764 -0.3382 -0.5910
 5563TIP3   OH238179   1.886   2.372   0.292 -0.0836  0.4615  0.2379
 5563TIP3    H138180   1.847   2.293   0.254 -1.8900 -1.0865  4.5820
 5563TIP3    H238181   1.854   2.444   0.237 -0.4485 -1.5827 -2.4246
 5564TIP3   OH238182   0.089   1.521  10.801 -0.5354 -0.1272  0.5201
 5564TIP3    H138183   0.178   1.488  10.804 -0.1970  0.7861  0.9904
 5564TIP3    H238184   0.083   1.567  10.717  0.7105  3.0917  1.9947
 5565TIP3   OH238185   0.353   5.141  15.641 -0.1295 -0.2828 -0.2347
 5565TIP3    H138186   0.286   5.091  15.688 -0.7963 -0.5702 -1.4587
 5565TIP3    H238187   0.317   5.230  15.636 -1.5218 -0.9139 -2.8499
 5566TIP3   OH238188   1.241   5.847  12.834 -0.4049 -0.7803  0.3995
 5566TIP3    H138189   1.217   5.925  12.783  0.4652 -0.4369  0.4961
 5566TIP3    H238190   1.185   5.852  12.912  0.9655  0.8267  1.3517
 5567TIP3   OH238191   4.719   4.973   5.344  0.6577 -0.0925 -0.5368
 5567TIP3    H138192   4.663   4.899   5.365  0.7177 -0.1140 -0.4548
 5567TIP3    H238193   4.678   5.048   5.386  0.8845 -0.1686 -0.1766
 5568TIP3   OH238194   4.002   3.806  14.957  0.1513  0.0569 -0.0990
 5568TIP3    H138195   3.956   3.771  15.033 -0.7175  1.0171 -0.1636
 5568TIP3    H238196   3.944   3.788  14.883  0.0674  0.8856 -0.2442
 5569TIP3   OH238197   3.326   2.092  13.080 -0.1749  0.4440 -0.4679
 5569TIP3    H138198   3.336   2.025  13.148 -2.8212 -0.4719 -0.8462
 5569TIP3    H238199   3.366   2.054  13.002  0.2498  0.2298 -0.1459
 5570TIP3   OH238200   1.166   0.333  11.465 -0.3663 -0.2378 -0.1917
 5570TIP3    H138201   1.185   0.324  11.372 -1.6843 -0.0137 -0.5009
 5570TIP3    H238202   1.178   0.245  11.501 -1.6551 -0.7350 -0.9376
 5571TIP3   OH238203   3.923   3.163   6.049  0.2304  0.2488 -0.1427
 5571TIP3    H138204   3.981   3.088   6.063 -0.1768 -0.1581 -0.6007
 5571TIP3    H238205   3.866   3.136   5.977 -0.5005  0.6630  0.2710
 5572TIP3   OH238206   6.710   1.562  13.065  0.1437 -0.0380 -0.3299
 5572TIP3    H138207   6.743   1.635  13.013 -0.0555  0.3263  0.0512
 5572TIP3    H238208   6.622   1.589  13.092  0.3769 -0.0691  0.4876
 5573TIP3   OH238209   3.357   6.232  16.802  0.9683 -0.3711  0.4462
 5573TIP3    H138210   3.266   6.205  16.814  0.6338  0.5170 -0.0107
 5573TIP3    H238211   3.374   6.220  16.709  1.1501 -0.0487  0.4358
 5574TIP3   OH238212   5.186   0.009  16.682 -0.1777 -0.7535  0.0424
 5574TIP3    H138213   5.187   0.047  16.594  0.6564  0.3520  0.4920
 5574TIP3    H238214   5.190  -0.085  16.668  0.2124 -0.5839 -1.1014
 5575TIP3   OH238215   3.104   3.307  13.939 -0.2793  0.2479  0.0413
 5575TIP3    H138216   3.033   3.370  13.940 -0.7256 -0.2130  1.8100
 5575TIP3    H238217   3.064   3.226  13.908 -0.4604  0.0759  0.7077
 5576TIP3   OH238218   0.376   0.551  12.545  0.9563  0.1397  0.4154
 5576TIP3    H138219   0.352   0.553  12.637 -0.2797 -0.8087  0.1317
 5576TIP3    H238220   0.423   0.469  12.534  0.9325  0.1588  0.1646
 5577TIP3   OH238221   2.118   5.812  11.044  0.1397  0.0122  0.0384
 5577TIP3    H138222   2.047   5.786  10.985  0.6932 -2.6751  0.4349
 5577TIP3    H238223   2.074   5.831  11.127 -0.1886 -1.2712  0.1804
 5578TIP3   OH238224   1.783   3.416   4.095 -0.6498 -0.0465  0.0532
 5578TIP3    H138225   1.816   3.423   4.005 -0.2218 -1.3710  0.0888
 5578TIP3    H238226   1.784   3.322   4.114  0.0105  0.2654  1.7260
 5579TIP3   OH238227   2.851   1.759   0.053  0.4757  0.1593 -0.5216
 5579TIP3    H138228   2.940   1.794   0.051  0.5079  0.4426  1.9688
 5579TIP3    H238229   2.820   1.778   0.142 -2.2179  0.3710 -1.4077
 5580TIP3   OH238230   5.503   1.917   5.773  0.1165 -0.1631 -0.3240
 5580TIP3    H138231   5.492   1.903   5.867 -1.5678  2.4221 -0.0146
 5580TIP3    H238232   5.457   1.844   5.732 -0.3414 -0.5712  0.8713
 5581TIP3   OH238233   1.460   2.053  14.970 -0.3621  0.0545  0.4368
 5581TIP3    H138234   1.461   2.068  15.065  1.4768 -2.7252  0.9887
 5581TIP3    H238235   1.390   1.989  14.957 -0.8385  0.6842 -0.1613
 5582TIP3   OH238236   6.709   0.726  12.478  0.0511 -0.8325  0.5538
 5582TIP3    H138237   6.713   0.713  12.383 -0.5631  0.6212  0.3016
 5582TIP3    H238238   6.799   0.712  12.507  0.7017  0.7146 -0.5606
 5583TIP3   OH238239   5.057   4.300  10.085  0.1401 -0.7866 -0.1170
 5583TIP3    H138240   5.113   4.344  10.021 -0.3725  0.1428  0.0562
 5583TIP3    H238241   5.105   4.305  10.167 -0.6616  1.0490  0.2899
 5584TIP3   OH238242   5.916   6.228  13.337  0.5628 -0.3099 -0.1115
 5584TIP3    H138243   5.882   6.269  13.417  0.6099 -0.3765 -0.0575
 5584TIP3    H238244   5.976   6.294  13.301  0.5456 -0.2815 -0.0888
 5585TIP3   OH238245   0.191   3.219   6.409 -0.0877  0.1479 -0.2528
 5585TIP3    H138246   0.233   3.298   6.374  2.0905 -1.0954 -0.6203
 5585TIP3    H238247   0.103   3.221   6.372  0.2246  1.9082 -1.0259
 5586TIP3   OH238248   2.618   2.683  12.128  0.0691  0.4951 -0.2071
 5586TIP3    H138249   2.660   2.619  12.071  0.9762  1.1275 -0.2806
 5586TIP3    H238250   2.671   2.683  12.208 -0.3869  0.5898  0.1005
 5587TIP3   OH238251   6.501   4.052  10.833 -0.7214  0.0715 -0.3452
 5587TIP3    H138252   6.493   4.120  10.766  0.1947 -1.2940 -1.9493
 5587TIP3    H238253   6.592   4.023  10.826 -0.7131 -0.3704  1.2711
 5588TIP3   OH238254   1.437   4.320   3.106 -0.1368  0.2912 -0.3069
 5588TIP3    H138255   1.502   4.380   3.068 -1.1531  0.8021 -1.3003
 5588TIP3    H238256   1.428   4.348   3.197  0.8455  0.3693 -0.2228
 5589TIP3   OH238257   4.049   4.658  10.345  0.1746  0.0641 -0.0665
 5589TIP3    H138258   4.057   4.651  10.250  2.8270  2.8177 -0.1705
 5589TIP3    H238259   3.982   4.726  10.359  0.1592  0.0272  0.0455
 5590TIP3   OH238260   4.722   6.018  13.744 -0.2447  0.1703 -0.2559
 5590TIP3    H138261   4.724   6.113  13.730 -3.8625  0.4397  0.0595
 5590TIP3    H238262   4.774   6.004  13.823 -0.3283  2.0285  0.1797
 5591TIP3   OH238263   0.163   6.587  10.934  0.4650  0.0181 -0.5790
 5591TIP3    H138264   0.149   6.666  10.881  2.7161  1.4608  0.7851
 5591TIP3    H238265   0.212   6.528  10.876  2.3569  1.3267 -0.4078
 5592TIP3   OH238266   3.921   1.627  13.734  0.0328 -0.3658 -0.0965
 5592TIP3    H138267   3.895   1.629  13.826 -0.5875 -1.8918 -0.2092
 5592TIP3    H238268   4.015   1.610  13.736 -0.0765 -0.9617  0.2627
 5593TIP3   OH238269   4.534   6.701  15.684  0.2452 -0.1244  0.2102
 5593TIP3    H138270   4.530   6.795  15.668 -1.1565 -0.1391  0.3646
 5593TIP3    H238271   4.611   6.690  15.740 -0.2584  1.0821  1.1924
 5594TIP3   OH238272   2.917   4.522   3.346 -0.1860 -0.4557 -0.2811
 5594TIP3    H138273   2.868   4.454   3.299 -0.9770  0.1281 -0.3093
 5594TIP3    H238274   2.994   4.476   3.379 -0.4213 -1.2422 -0.7856
 5595TIP3   OH238275   0.041   1.289  16.338 -0.1581 -0.1085  0.0065
 5595TIP3    H138276  -0.041   1.241  16.352 -0.2447  0.3511  1.2005
 5595TIP3    H238277   0.092   1.273  16.417  0.3437  0.7070 -0.1405
 5596TIP3   OH238278   1.655   1.329   3.252 -0.0247 -0.2063 -0.1380
 5596TIP3    H138279   1.654   1.290   3.339  2.5656 -0.3535 -0.0974
 5596TIP3    H238280   1.632   1.421   3.266  2.4860  0.3236  1.1094
 5597TIP3   OH238281   2.863   1.764  15.775 -0.3091  0.2909 -0.1073
 5597TIP3    H138282   2.902   1.842  15.736 -1.7473  0.9360 -0.3024
 5597TIP3    H238283   2.875   1.776  15.870 -0.3641  0.6579 -0.1458
 5598TIP3   OH238284   6.810   6.745   6.202 -0.3030  0.2947  0.3600
 5598TIP3    H138285   6.820   6.657   6.238  0.3858  0.3590  0.3409
 5598TIP3    H238286   6.716   6.762   6.204 -0.7112 -1.3009 -1.6499
 5599TIP3   OH238287   2.112   0.352   3.370 -0.4972  0.4573 -0.1274
 5599TIP3    H138288   2.111   0.392   3.283  2.3598 -0.5898 -0.7792
 5599TIP3    H238289   2.157   0.417   3.425 -0.3590  0.2354  0.0232
 5600TIP3   OH238290   5.046   5.794   1.929 -0.3395 -0.0636 -0.0995
 5600TIP3    H138291   4.952   5.788   1.941 -0.3534  0.1410 -0.1137
 5600TIP3    H238292   5.063   5.749   1.846 -0.0760 -2.8682  1.3440
 5601TIP3   OH238293   0.079   4.832   4.670 -0.3696 -0.0027 -0.3106
 5601TIP3    H138294   0.071   4.813   4.764  1.1259 -1.0038 -0.3636
 5601TIP3    H238295   0.029   4.762   4.628  0.3623 -0.5310 -0.3101
 5602TIP3   OH238296   5.471   2.258   4.935 -0.1465  0.4681 -0.1868
 5602TIP3    H138297   5.520   2.340   4.934 -0.1423  0.4668 -0.6322
 5602TIP3    H238298   5.460   2.237   5.027  2.5350 -0.6205 -0.0296
 5603TIP3   OH238299   3.655   0.523  12.584  0.0053  0.7949 -0.5376
 5603TIP3    H138300   3.692   0.550  12.668 -2.4511  2.1558  0.1956
 5603TIP3    H238301   3.678   0.430  12.576  0.0556  0.5516  1.7748
 5604TIP3   OH238302   0.702   0.823  12.094  0.0348  0.3520 -0.2378
 5604TIP3    H138303   0.699   0.841  12.188  1.6397 -1.9065  0.3478
 5604TIP3    H238304   0.726   0.906  12.054 -1.4826  1.5658  1.2322
 5605TIP3   OH238305   5.364   0.875  14.083 -0.6804 -0.0400  0.3213
 5605TIP3    H138306   5.423   0.827  14.141  0.5226  2.9328  1.7322
 5605TIP3    H238307   5.278   0.869  14.125 -0.1943  0.4560  1.4183
 5606TIP3   OH238308   2.314   0.890  15.809  0.0673  0.6880  0.0525
 5606TIP3    H138309   2.348   0.944  15.739  0.3046 -0.0829 -0.4413
 5606TIP3    H238310   2.363   0.918  15.887 -1.0713  2.4157  0.2080
 5607TIP3   OH238311   4.071   1.390  16.175  0.5907  0.0575  0.2095
 5607TIP3    H138312   4.058   1.296  16.183 -0.4461  0.2213  0.6469
 5607TIP3    H238313   4.165   1.403  16.186  0.8676 -1.0095 -0.7832
 5608TIP3   OH238314   6.460   5.676  11.887 -0.1510  0.1135  0.3973
 5608TIP3    H138315   6.444   5.680  11.793 -0.1978 -1.1366  0.3466
 5608TIP3    H238316   6.555   5.678  11.895 -0.1584  1.0077  0.3750
 5609TIP3   OH238317   3.747   4.643   0.356  0.1351  0.5244  0.5842
 5609TIP3    H138318   3.711   4.570   0.305 -2.6570  1.1600  1.4600
 5609TIP3    H238319   3.810   4.602   0.414 -1.0514 -1.1869  0.7466
 5610TIP3   OH238320   2.762   6.810  15.051  0.4740  0.4639  0.2084
 5610TIP3    H138321   2.701   6.739  15.031  1.2590  0.1120 -1.0842
 5610TIP3    H238322   2.707   6.879  15.088 -0.3415 -0.7123  1.2907
 5611TIP3   OH238323   4.528   2.801  12.395  0.1546  0.0194 -0.4165
 5611TIP3    H138324   4.584   2.813  12.472 -2.0633  0.5274  1.2141
 5611TIP3    H238325   4.498   2.711  12.402 -1.9980  0.7621  0.7865
 5612TIP3   OH238326   1.292   2.816  15.081 -0.2818  0.6088 -0.1780
 5612TIP3    H138327   1.321   2.793  14.993 -0.5860 -0.1885 -0.0727
 5612TIP3    H238328   1.359   2.877  15.114  0.0988  0.5048 -0.7602
 5613TIP3   OH238329   1.661   1.178  11.150 -0.1665 -0.3209 -0.4657
 5613TIP3    H138330   1.575   1.140  11.134  1.1145 -3.0326 -1.4694
 5613TIP3    H238331   1.676   1.235  11.075 -1.8004  1.7616  0.6804
 5614TIP3   OH238332   2.137   5.368   3.149  0.4693 -0.5692 -0.4570
 5614TIP3    H138333   2.178   5.293   3.192  1.0309  0.0970  0.1853
 5614TIP3    H238334   2.196   5.441   3.167 -0.3052  0.1243 -0.6893
 5615TIP3   OH238335   5.390   4.236  13.017 -0.1955  0.4605  0.3219
 5615TIP3    H138336   5.449   4.164  12.997 -0.4656  0.2654  0.2105
 5615TIP3    H238337   5.304   4.206  12.985 -0.7901 -0.1363  2.2954
 5616TIP3   OH238338   1.227   1.905   3.665  0.0653  0.1678 -0.3744
 5616TIP3    H138339   1.177   1.975   3.706  0.9893  0.3494  0.5068
 5616TIP3    H238340   1.216   1.918   3.571 -1.5908  0.1304 -0.2083
 5617TIP3   OH238341   0.671   5.937  14.414  0.2674  0.5157  0.2575
 5617TIP3    H138342   0.736   5.872  14.442 -0.0340 -0.3843 -1.0694
 5617TIP3    H238343   0.723   6.010  14.380  0.7672 -1.3907 -3.6327
 5618TIP3   OH238344   3.476   1.504  12.101  0.0499 -0.1672  0.0092
 5618TIP3    H138345   3.475   1.460  12.016 -1.0778  0.5371 -0.3668
 5618TIP3    H238346   3.554   1.470  12.145  1.1107  0.0367 -1.6211
 5619TIP3   OH238347   6.331   4.746   0.061  0.2091  0.3239  0.4819
 5619TIP3    H138348   6.290   4.808   0.001 -1.2119  1.8230  2.8342
 5619TIP3    H238349   6.402   4.795   0.101  0.8748 -0.5107  0.3371
 5620TIP3   OH238350   5.501   3.923  16.776 -0.3601 -0.6615  0.2638
 5620TIP3    H138351   5.428   3.984  16.767  1.0773  1.1836  0.4541
 5620TIP3    H238352   5.507   3.906  16.870 -1.6332 -2.2915  0.0932
 5621TIP3   OH238353   4.267   4.600  13.765 -0.5260  0.0493  0.2201
 5621TIP3    H138354   4.275   4.693  13.743  0.0330  0.6179  2.5187
 5621TIP3    H238355   4.345   4.560  13.727 -0.4010  0.6514 -0.1793
 5622TIP3   OH238356   0.884   4.825  14.846  0.6509 -0.2377 -0.5456
 5622TIP3    H138357   0.886   4.909  14.893 -0.6273 -0.4473 -0.0700
 5622TIP3    H238358   0.793   4.817  14.816  1.2380 -0.5284 -2.3185
 5623TIP3   OH238359   3.859   1.649   6.023 -0.0270 -0.2792 -0.2597
 5623TIP3    H138360   3.920   1.693   6.083 -0.0474 -0.3288 -0.2025
 5623TIP3    H238361   3.900   1.564   6.006 -0.1758 -0.3874 -0.0708
 5624TIP3   OH238362   3.149   5.977  11.331  0.0286 -0.2569 -0.3843
 5624TIP3    H138363   3.174   5.933  11.250 -1.7900 -0.5992 -0.7946
 5624TIP3    H238364   3.232   5.993  11.376  1.0918 -0.0111 -2.3255
 5625TIP3   OH238365   1.847   6.294  16.529 -0.2162 -0.3526 -0.0616
 5625TIP3    H138366   1.859   6.307  16.435  1.4974  1.1694  0.3077
 5625TIP3    H238367   1.882   6.206  16.545  1.1567  0.0616 -0.6188
 5626TIP3   OH238368   6.695   3.730  13.183 -0.0253  0.1672 -0.6676
 5626TIP3    H138369   6.726   3.775  13.105 -0.7512  0.8592 -0.5621
 5626TIP3    H238370   6.664   3.799  13.241  0.7329 -0.3090  0.3581
 5627TIP3   OH238371   4.211   5.400   3.255 -0.1556  0.2913  0.5033
 5627TIP3    H138372   4.245   5.365   3.172 -0.9449 -1.5578  0.8984
 5627TIP3    H238373   4.117   5.384   3.250 -0.2866  0.6759  1.5291
 5628TIP3   OH238374   2.211   4.349  10.731 -0.2322 -0.0613  0.5731
 5628TIP3    H138375   2.143   4.380  10.790  0.0680 -1.4500  1.7097
 5628TIP3    H238376   2.293   4.375  10.774  0.0135 -2.0344  1.3728
 5629TIP3   OH238377   1.477   2.525  15.383  0.2102 -0.2023 -0.4120
 5629TIP3    H138378   1.504   2.603  15.431  1.2158 -1.8336  1.9039
 5629TIP3    H238379   1.391   2.504  15.419  1.4576 -2.0916  1.7456
 5630TIP3   OH238380   1.701   2.891  14.537 -0.3460  0.7003 -0.3559
 5630TIP3    H138381   1.789   2.888  14.500 -0.9699  0.3554 -1.9166
 5630TIP3    H238382   1.691   2.982  14.567  1.1564  0.2949  1.5422
 5631TIP3   OH238383   0.724   2.726   2.942  0.0383  0.0760 -0.0810
 5631TIP3    H138384   0.740   2.814   2.908  2.3258 -0.3856 -0.3815
 5631TIP3    H238385   0.804   2.677   2.921 -1.7556 -2.5634 -1.3330
 5632TIP3   OH238386   1.609   1.392  12.436 -0.4101  0.2797 -0.6992
 5632TIP3    H138387   1.558   1.327  12.483 -0.4714 -1.1711 -2.6398
 5632TIP3    H238388   1.554   1.418  12.362  0.8824  0.0780 -1.7831
 5633TIP3   OH238389   3.750   1.682  12.432  0.0706  0.4437  0.0097
 5633TIP3    H138390   3.827   1.713  12.480 -0.1944 -0.5493  1.1255
 5633TIP3    H238391   3.676   1.724  12.478 -0.0607  2.0324 -1.5398
 5634TIP3   OH238392   5.854   4.143   0.726 -0.2621 -0.1786 -0.0614
 5634TIP3    H138393   5.802   4.066   0.704  0.3361 -0.3495 -0.9156
 5634TIP3    H238394   5.933   4.135   0.672 -0.2605  1.1015 -0.2825
 5635TIP3   OH238395   2.990   5.451   4.249  1.0384  0.3864  0.1428
 5635TIP3    H138396   3.066   5.465   4.193 -0.2012  2.3466 -1.1735
 5635TIP3    H238397   2.989   5.527   4.307 -1.4227  2.0231 -1.8032
 5636TIP3   OH238398   0.399   1.310   6.144 -0.0027 -0.0017  0.0935
 5636TIP3    H138399   0.487   1.337   6.170 -0.5987  2.0450  0.2083
 5636TIP3    H238400   0.412   1.231   6.093  2.0229  0.8822 -0.8716
 5637TIP3   OH238401   1.258   3.767  16.337 -0.1390  0.5941 -0.2631
 5637TIP3    H138402   1.191   3.769  16.406 -1.0972  0.2560 -1.1630
 5637TIP3    H238403   1.304   3.685  16.350 -0.3378  0.5149 -0.0517
 5638TIP3   OH238404   1.404   2.766  13.002  0.3031 -0.3468 -0.8837
 5638TIP3    H138405   1.443   2.794  12.919  1.9970 -0.4899 -0.1691
 5638TIP3    H238406   1.428   2.674  13.010 -0.3233 -0.4789 -0.4934
 5639TIP3   OH238407   3.389   6.078  11.917 -0.0112 -0.6608  0.2284
 5639TIP3    H138408   3.443   6.040  11.986  1.0542  1.8543  0.8794
 5639TIP3    H238409   3.316   6.119  11.963  1.3699  2.1558  0.1177
 5640TIP3   OH238410   6.369   6.462  12.912  0.1647  0.1381  0.0589
 5640TIP3    H138411   6.392   6.529  12.848  1.2452 -0.1085  0.1692
 5640TIP3    H238412   6.446   6.405  12.916  0.4387  0.5783  2.1391
 5641TIP3   OH238413   4.753   2.414   4.362  0.3009 -0.4971  0.1531
 5641TIP3    H138414   4.838   2.428   4.320  1.4017  0.8174  2.5994
 5641TIP3    H238415   4.746   2.485   4.425 -1.6407 -1.8268  1.5426
 5642TIP3   OH238416   3.074   2.711   4.145 -0.0169  0.5009 -0.8728
 5642TIP3    H138417   3.020   2.652   4.092 -1.1392  1.3470 -0.6853
 5642TIP3    H238418   3.101   2.780   4.085 -4.1800  3.4366  0.2487
 5643TIP3   OH238419   0.249   5.473  11.731  0.0562  0.6251 -0.0133
 5643TIP3    H138420   0.251   5.512  11.644  0.5517  0.5546 -0.0389
 5643TIP3    H238421   0.172   5.416  11.731  0.0467  0.6366 -0.3981
 5644TIP3   OH238422   0.823   4.854   1.809  0.0622  0.3941  0.6491
 5644TIP3    H138423   0.878   4.782   1.776  0.9189  2.6334 -3.5900
 5644TIP3    H238424   0.733   4.824   1.795  0.3895 -0.2660 -0.1203
 5645TIP3   OH238425   0.995   2.711   0.420  0.9136 -0.1612 -0.1750
 5645TIP3    H138426   0.922   2.660   0.454  1.5540  0.0254  1.5801
 5645TIP3    H238427   1.029   2.659   0.347  0.5361 -1.4260  0.5221
 5646TIP3   OH238428   6.126   1.099  15.934 -0.4196 -0.1310  0.1167
 5646TIP3    H138429   6.065   1.165  15.902  0.9317  1.6361  1.0320
 5646TIP3    H238430   6.121   1.029  15.869 -3.1681  0.0574  0.0151
 5647TIP3   OH238431   4.572   2.488  13.204  0.0399 -0.0603  0.5005
 5647TIP3    H138432   4.509   2.446  13.264 -0.3705  0.4633  0.4420
 5647TIP3    H238433   4.518   2.516  13.130  0.2010  1.0981  0.7997
 5648TIP3   OH238434   1.777   2.606   3.039  0.2333 -0.0183  0.0530
 5648TIP3    H138435   1.691   2.574   3.064  0.3510 -0.1527  0.2918
 5648TIP3    H238436   1.778   2.601   2.943 -0.1402  0.2980  0.0310
 5649TIP3   OH238437   2.623   2.403  15.134 -0.2656 -0.5373  1.1434
 5649TIP3    H138438   2.585   2.395  15.222 -0.5966 -0.3984  1.0124
 5649TIP3    H238439   2.586   2.484  15.099 -1.2487 -1.3214  0.3204
 5650TIP3   OH238440   6.744   5.224  16.335  0.8033  0.0127  0.1172
 5650TIP3    H138441   6.786   5.139  16.321 -0.0073 -0.2288 -1.0335
 5650TIP3    H238442   6.663   5.219  16.284  0.9698  1.6489 -0.3646
 5651TIP3   OH238443   5.812   5.851   2.631 -0.1478  0.0498  0.0015
 5651TIP3    H138444   5.740   5.894   2.584 -1.4059 -3.1291 -1.2644
 5651TIP3    H238445   5.789   5.860   2.723 -1.8345 -0.3143 -0.3595
 5652TIP3   OH238446   3.703   0.226  14.145  0.5924 -0.1302  0.6487
 5652TIP3    H138447   3.620   0.193  14.179 -0.2787  1.0982 -0.1719
 5652TIP3    H238448   3.766   0.156  14.161 -1.1644 -2.2707 -1.1905
 5653TIP3   OH238449   6.822   4.655  13.979 -0.1296  0.0378 -0.5387
 5653TIP3    H138450   6.763   4.616  14.043  0.2598 -0.0693 -0.2387
 5653TIP3    H238451   6.785   4.742  13.962 -0.1136  0.1544  0.0021
 5654TIP3   OH238452   1.186   6.797   1.926 -0.1525 -0.4636 -0.4785
 5654TIP3    H138453   1.186   6.719   1.982 -0.3787  0.8971  1.5220
 5654TIP3    H238454   1.103   6.840   1.945  0.5063  0.9075 -0.5742
 5655TIP3   OH238455   2.328   2.112   5.509  0.1646 -0.7957 -0.0422
 5655TIP3    H138456   2.304   2.088   5.598 -1.6196  0.0548 -0.2259
 5655TIP3    H238457   2.409   2.163   5.518  2.2234 -3.9437  0.6322
 5656TIP3   OH238458   4.904   4.368   5.527  0.3211 -0.0240  0.0273
 5656TIP3    H138459   4.843   4.420   5.579  2.0917  1.2104  0.9801
 5656TIP3    H238460   4.875   4.278   5.540 -1.7727  0.5592 -0.2434
 5657TIP3   OH238461   2.280   3.112   4.898 -0.5013  0.2009 -0.3558
 5657TIP3    H138462   2.205   3.123   4.957 -1.3633 -1.4680 -1.0605
 5657TIP3    H238463   2.253   3.153   4.816 -1.4206 -1.8633 -1.1658
 5658TIP3   OH238464   2.352   2.129   3.301 -0.1036  0.3235 -0.1384
 5658TIP3    H138465   2.391   2.207   3.342  0.2686  0.9329 -1.6081
 5658TIP3    H238466   2.291   2.163   3.236  0.8388 -0.5831 -1.5488
 5659TIP3   OH238467   6.590   2.560   4.884 -0.0406  0.0191 -0.2772
 5659TIP3    H138468   6.616   2.556   4.792  1.1544 -1.1582  0.0818
 5659TIP3    H238469   6.557   2.649   4.895 -0.6875  0.0332 -1.9531
 5660TIP3   OH238470   1.080   6.269  11.279  0.7953 -0.0718  0.3327
 5660TIP3    H138471   1.175   6.281  11.286  0.8590 -0.0036 -0.5077
 5660TIP3    H238472   1.065   6.176  11.297  1.0872 -0.1953 -0.0434
 5661TIP3   OH238473   0.890   0.924   4.809  0.7369  0.1050  0.1086
 5661TIP3    H138474   0.858   0.972   4.732 -0.1493  0.6255  0.7836
 5661TIP3    H238475   0.878   0.985   4.882 -1.4601 -1.4709  1.1883
 5662TIP3   OH238476   2.125   6.767   4.981  0.3139  0.1200 -0.0230
 5662TIP3    H138477   2.149   6.848   4.936  0.5049  0.0333 -0.0760
 5662TIP3    H238478   2.185   6.763   5.056 -0.0676  0.3147  0.2934
 5663TIP3   OH238479   2.848   4.647  12.003  0.1080 -0.1680  0.4899
 5663TIP3    H138480   2.800   4.670  11.924  0.3442  1.7275  0.8490
 5663TIP3    H238481   2.784   4.657  12.074  0.2031 -0.7316  0.6619
 5664TIP3   OH238482   2.244   4.291   0.716 -0.0681  0.6916 -0.4356
 5664TIP3    H138483   2.261   4.242   0.797  2.1782  0.0654 -1.2348
 5664TIP3    H238484   2.168   4.345   0.738 -1.7251 -1.9506  0.9995
 5665TIP3   OH238485   2.968   2.237  12.360  0.7148  0.6251 -0.2899
 5665TIP3    H138486   2.875   2.223  12.375  0.5597 -1.1383 -2.3987
 5665TIP3    H238487   2.978   2.231  12.265  2.8823  1.6045 -0.1908
 5666TIP3   OH238488   2.423   2.843  13.661  0.3132  0.0537  0.5484
 5666TIP3    H138489   2.408   2.779  13.591 -1.2083  0.6716  0.2748
 5666TIP3    H238490   2.508   2.881  13.639 -0.8313  1.4208 -1.9977
 5667TIP3   OH238491   3.022   3.441  16.090 -0.4692 -0.1668  0.4373
 5667TIP3    H138492   3.045   3.533  16.074  0.6469 -0.4622  0.2006
 5667TIP3    H238493   2.954   3.422  16.025  1.7861 -0.4558 -2.0286
 5668TIP3   OH238494   3.665   3.463  13.168 -0.4003  0.4110 -0.5257
 5668TIP3    H138495   3.676   3.443  13.075  1.7726  1.8478 -0.6529
 5668TIP3    H238496   3.746   3.431  13.209 -0.1750  2.0911  0.4254
 5669TIP3   OH238497   3.591   4.520  10.646 -0.3345 -0.3649 -0.1573
 5669TIP3    H138498   3.534   4.448  10.675  1.5423 -2.0029 -0.2900
 5669TIP3    H238499   3.660   4.476  10.596  1.2112  1.4867  0.2647
 5670TIP3   OH238500   2.365   2.720   1.526 -0.4446  0.6120 -0.5135
 5670TIP3    H138501   2.360   2.666   1.448  1.4696  0.3952 -0.5525
 5670TIP3    H238502   2.436   2.782   1.507  0.6410  0.0188  1.3201
 5671TIP3   OH238503   3.191   1.227  13.369 -0.4382  0.4200 -0.7082
 5671TIP3    H138504   3.160   1.137  13.382 -0.9353  0.7029  0.1233
 5671TIP3    H238505   3.249   1.244  13.443  2.0846 -0.2125 -2.4101
 5672TIP3   OH238506   0.091   6.218  16.973  0.3062 -0.6221 -0.1329
 5672TIP3    H138507   0.083   6.313  16.964  0.2788 -0.7463 -1.9091
 5672TIP3    H238508   0.000   6.187  16.978  0.2646 -0.6370 -0.8751
 5673TIP3   OH238509   4.452   5.116   4.241  0.0021 -0.3230 -0.2128
 5673TIP3    H138510   4.398   5.124   4.319  0.2898 -0.9587  0.0597
 5673TIP3    H238511   4.393   5.082   4.174 -0.5214  1.2677 -0.5956
 5674TIP3   OH238512   0.940   1.599   1.825 -0.6108 -0.0853 -0.0737
 5674TIP3    H138513   0.953   1.591   1.730 -0.5126 -2.0874  0.0582
 5674TIP3    H238514   1.024   1.573   1.863 -1.2585 -1.3771  0.5586
 5675TIP3   OH238515   1.289   5.019   0.191 -0.2747  0.3797 -0.1169
 5675TIP3    H138516   1.207   4.979   0.161 -1.7131  2.4722  0.7471
 5675TIP3    H238517   1.348   5.012   0.117 -0.8708 -1.9967 -0.4763
 5676TIP3   OH238518   4.748   6.829  15.348 -0.1706  0.3610  0.2489
 5676TIP3    H138519   4.695   6.831  15.268  0.2172  0.2143 -0.0174
 5676TIP3    H238520   4.815   6.896  15.333 -0.5335  0.8442  0.7648
 5677TIP3   OH238521   0.476   3.639  11.931 -0.3228 -0.2795  0.2364
 5677TIP3    H138522   0.432   3.625  11.847  0.3613 -1.1844  0.0156
 5677TIP3    H238523   0.475   3.553  11.973  1.2848 -0.3591  0.1865
 5678TIP3   OH238524   2.921   4.777  11.382 -0.2803  0.3154  0.0666
 5678TIP3    H138525   2.973   4.699  11.367  0.7813  0.9195  0.5077
 5678TIP3    H238526   2.857   4.752  11.449  0.1293 -0.1369  0.2886
 5679TIP3   OH238527   2.289   2.050  11.555  0.1187 -0.0301 -0.1574
 5679TIP3    H138528   2.379   2.060  11.585  0.4619  0.4389 -1.2963
 5679TIP3    H238529   2.292   1.980  11.490 -0.7353 -1.5052  1.2791
 5680TIP3   OH238530   2.456   6.322  10.266  0.2650  0.0371  0.2608
 5680TIP3    H138531   2.389   6.327  10.197 -0.5377 -1.3878  0.8933
 5680TIP3    H238532   2.496   6.409  10.267 -0.7196  0.5359 -0.9912
 5681TIP3   OH238533   3.155   1.398   2.004 -0.6844 -0.0116  0.4424
 5681TIP3    H138534   3.240   1.358   2.023 -0.3745  0.2471 -0.3733
 5681TIP3    H238535   3.091   1.330   2.024 -0.2677 -0.3213  0.7357
 5682TIP3   OH238536   2.644   2.987  13.534  0.2246 -0.3224 -0.2213
 5682TIP3    H138537   2.680   2.900  13.517  1.6076  0.1254  0.3309
 5682TIP3    H238538   2.719   3.046  13.531 -0.7079  0.8880 -0.7116
 5683TIP3   OH238539   1.839   5.323  16.805 -0.3160  0.0911 -0.4726
 5683TIP3    H138540   1.757   5.284  16.774  0.1850  0.0594 -1.8098
 5683TIP3    H238541   1.905   5.293  16.742  0.5049  1.1163 -0.1226
 5684TIP3   OH238542   4.761   1.155  15.084  0.2094  0.3388  0.1191
 5684TIP3    H138543   4.734   1.247  15.078 -1.3185 -0.1168 -0.4902
 5684TIP3    H238544   4.781   1.129  14.994 -0.6786 -0.2839  0.0896
 5685TIP3   OH238545   0.457   0.299  17.074 -0.3759 -0.0753 -0.2383
 5685TIP3    H138546   0.430   0.249  16.997 -0.3067  0.3000 -0.5145
 5685TIP3    H238547   0.412   0.384  17.063 -1.1652 -0.3650  0.6517
 5686TIP3   OH238548   1.771   2.747  15.139 -0.2281  0.5122  0.3824
 5686TIP3    H138549   1.757   2.821  15.197 -0.7635  0.0785  0.8112
 5686TIP3    H238550   1.746   2.779  15.052 -1.7810  0.4283  0.7764
 5687TIP3   OH238551   4.457   3.988   4.738 -0.2887 -0.0693  0.4320
 5687TIP3    H138552   4.448   4.080   4.715 -1.9748 -0.4633 -0.6585
 5687TIP3    H238553   4.396   3.942   4.680 -0.5934 -1.7154  1.9500
 5688TIP3   OH238554   6.225   1.784   0.810 -0.0599 -0.5090 -0.1308
 5688TIP3    H138555   6.230   1.697   0.849  2.1219 -0.2443  0.2832
 5688TIP3    H238556   6.296   1.833   0.851 -1.5131  1.6357 -0.0129
 5689TIP3   OH238557   0.926   2.043  16.572  0.4631  0.7805 -0.7064
 5689TIP3    H138558   0.948   1.981  16.642  1.8194  0.3166 -1.5031
 5689TIP3    H238559   0.964   2.005  16.494  1.3065  2.6006 -1.2328
 5690TIP3   OH238560   2.699   0.621  16.913  0.1632  0.1351 -0.1583
 5690TIP3    H138561   2.667   0.558  16.976 -2.3938  2.1803  0.7633
 5690TIP3    H238562   2.635   0.692  16.914  3.4990  3.4885 -0.0504
 5691TIP3   OH238563   5.797   5.363   0.327  0.0989  0.3120 -0.4711
 5691TIP3    H138564   5.874   5.406   0.289  0.0846 -0.1396 -1.0305
 5691TIP3    H238565   5.744   5.435   0.361  0.8705  0.6178  0.1272
 5692TIP3   OH238566   0.106   6.052   0.855 -0.1390 -0.1786 -0.2256
 5692TIP3    H138567   0.062   6.033   0.773  0.0488 -0.5015 -0.2537
 5692TIP3    H238568   0.196   6.021   0.842 -0.5397 -1.8422  0.6970
 5693TIP3   OH238569   3.398   2.874   4.862 -0.2267 -0.0489  0.2294
 5693TIP3    H138570   3.493   2.867   4.858 -0.2042 -0.4259  1.0512
 5693TIP3    H238571   3.370   2.889   4.772  0.7137  1.5507  0.1639
 5694TIP3   OH238572   1.923   2.344   1.054 -0.1442  0.8100  0.1824
 5694TIP3    H138573   1.970   2.278   1.105 -0.1086 -0.8178 -1.8612
 5694TIP3    H238574   1.877   2.397   1.120  0.3551 -0.8143  1.9143
 5695TIP3   OH238575   1.179   1.964   3.396 -0.7083  0.1005  0.2127
 5695TIP3    H138576   1.166   2.053   3.430 -0.1097  0.9110 -1.5853
 5695TIP3    H238577   1.124   1.960   3.317 -0.2788 -0.9374 -0.0514
 5696TIP3   OH238578   6.596   0.984  12.214  0.4110 -0.4852 -0.4859
 5696TIP3    H138579   6.658   0.922  12.174 -0.1564 -2.0446  0.9705
 5696TIP3    H238580   6.646   1.025  12.285  0.5294  0.1503 -0.9262
 5697TIP3   OH238581   4.988   3.888  16.501  0.2563 -0.0696  0.3487
 5697TIP3    H138582   4.952   3.938  16.428  0.5927  1.7728  1.3889
 5697TIP3    H238583   5.082   3.881  16.480  0.2660  0.0300  0.3564
 5698TIP3   OH238584   6.081   1.341  12.060  0.5477 -0.4343 -0.9465
 5698TIP3    H138585   5.989   1.318  12.054 -0.3930  2.2535  1.0152
 5698TIP3    H238586   6.109   1.308  12.145  0.0817  2.3079  0.3996
 5699TIP3   OH238587   2.231   0.394  14.491 -0.2517  0.2819  0.3138
 5699TIP3    H138588   2.166   0.464  14.498  0.5979  1.1549 -0.2237
 5699TIP3    H238589   2.315   0.440  14.487  0.3846 -0.8072  0.7118
 5700TIP3   OH238590   0.138   2.443   4.269 -0.4345  0.3631  0.1618
 5700TIP3    H138591   0.076   2.400   4.327  0.0695 -0.0214  0.4218
 5700TIP3    H238592   0.085   2.476   4.196 -0.7816 -0.9455 -0.1894
 5701TIP3   OH238593   1.660   2.730  15.507 -0.2325  0.1676  0.4345
 5701TIP3    H138594   1.583   2.754  15.557 -1.6730 -1.4651 -0.8594
 5701TIP3    H238595   1.700   2.659  15.557 -1.1068 -0.7877 -0.1913
 5702TIP3   OH238596   5.624   4.784  11.227 -0.3544 -0.0233  0.1466
 5702TIP3    H138597   5.666   4.850  11.172 -0.4646 -0.5212 -0.5383
 5702TIP3    H238598   5.695   4.723  11.250 -0.3188  0.1533  0.5225
 5703TIP3   OH238599   2.982   5.655   4.524 -0.0624  0.3878 -0.2652
 5703TIP3    H138600   2.920   5.697   4.465 -1.9462  1.0552  2.0248
 5703TIP3    H238601   2.983   5.712   4.601  2.9916  0.0660  0.0454
 5704TIP3   OH238602   4.938   4.495   3.121  0.1760  0.6094 -0.1536
 5704TIP3    H138603   4.899   4.522   3.038 -0.8333 -0.5503 -0.0767
 5704TIP3    H238604   5.030   4.521   3.114  0.0799  0.6336 -1.5774
 5705TIP3   OH238605   3.018   0.228   2.453  0.3634 -0.4953  0.3950
 5705TIP3    H138606   3.020   0.182   2.369 -0.1488  1.5353 -0.7968
 5705TIP3    H238607   3.043   0.318   2.432 -1.8204  0.6009  2.0251
 5706TIP3   OH238608   3.549   3.850  12.622 -0.6634 -0.3336 -0.7341
 5706TIP3    H138609   3.520   3.793  12.694  0.4675  0.1710  0.1642
 5706TIP3    H238610   3.491   3.926  12.627 -2.4251 -1.4998 -2.1746
 5707TIP3   OH238611   0.025   2.697   1.949  0.4460  0.1745  0.4024
 5707TIP3    H138612   0.087   2.702   1.876 -0.5905 -0.9606 -0.5928
 5707TIP3    H238613   0.010   2.604   1.963 -2.4137  0.3672 -0.6425
 5708TIP3   OH238614   1.328   5.134  12.272  0.3826 -0.1440 -0.2579
 5708TIP3    H138615   1.260   5.169  12.215  0.7742 -0.8659 -1.1941
 5708TIP3    H238616   1.390   5.092  12.213  1.4704  0.1880  0.5981
 5709TIP3   OH238617   4.878   3.184   3.115 -0.1089 -0.0546 -0.1915
 5709TIP3    H138618   4.813   3.140   3.170 -0.3728 -0.4565 -0.8127
 5709TIP3    H238619   4.925   3.114   3.072 -0.4873  0.2596 -1.1392
 5710TIP3   OH238620   5.329   2.271  16.001 -0.2343 -0.4642 -0.3236
 5710TIP3    H138621   5.403   2.213  15.982 -0.4408 -1.6593  2.1125
 5710TIP3    H238622   5.364   2.359  15.986  1.4893 -1.0237  0.0633
 5711TIP3   OH238623   0.711   6.403  15.632 -0.6176  0.2747  0.1331
 5711TIP3    H138624   0.700   6.390  15.538  0.0849  2.2993 -0.2934
 5711TIP3    H238625   0.800   6.438  15.641 -0.4720 -0.4185  1.6178
 5712TIP3   OH238626   2.948   3.937  12.503  0.3365 -0.5385 -0.0824
 5712TIP3    H138627   2.931   4.031  12.512  1.8703 -0.2138 -0.2623
 5712TIP3    H238628   2.908   3.898  12.580  3.7378  0.8764  2.7032
 5713TIP3   OH238629   4.180   5.001   3.651  0.2813 -0.0625  0.4507
 5713TIP3    H138630   4.098   5.050   3.650  0.1395 -0.2624  1.4123
 5713TIP3    H238631   4.189   4.968   3.561 -0.3434  0.5147  0.1630
 5714TIP3   OH238632   4.379   5.560   2.871 -0.6237  0.2961  0.0618
 5714TIP3    H138633   4.392   5.650   2.903 -1.5755  1.1913 -1.8625
 5714TIP3    H238634   4.467   5.523   2.868  0.1035  1.9616 -1.1593
 5715TIP3   OH238635   6.485   1.400  11.076 -0.6539  0.6230  0.3214
 5715TIP3    H138636   6.546   1.346  11.025 -1.0174  0.2228  0.3047
 5715TIP3    H238637   6.457   1.468  11.016  0.0157  0.9993  0.4217
 5716TIP3   OH238638   2.974   1.538  12.477  0.4951  0.0413 -0.1468
 5716TIP3    H138639   3.021   1.556  12.558  1.3990  0.7053 -0.7869
 5716TIP3    H238640   2.947   1.446  12.484 -1.1439  0.6246  1.7091
 5717TIP3   OH238641   1.714   2.421   2.442 -0.5644 -0.6699 -0.0210
 5717TIP3    H138642   1.678   2.507   2.462  1.3032  0.4921 -1.3868
 5717TIP3    H238643   1.706   2.412   2.348 -1.7902 -2.5455  0.2084
 5718TIP3   OH238644   3.259   4.134   3.639 -0.3095  0.2110 -0.0054
 5718TIP3    H138645   3.165   4.135   3.659 -0.2494 -0.2037  0.3189
 5718TIP3    H238646   3.295   4.067   3.697  0.1654  0.2605 -0.2367
 5719TIP3   OH238647   2.489   0.423   2.856 -0.2713  0.6308  0.1948
 5719TIP3    H138648   2.469   0.450   2.766 -1.0026 -2.8372 -0.8228
 5719TIP3    H238649   2.584   0.413   2.857 -0.3079  0.1495 -0.3966
 5720TIP3   OH238650   3.770   6.308  17.124 -0.2787 -0.5272  0.8873
 5720TIP3    H138651   3.674   6.307  17.128 -0.4920  1.2574 -1.4759
 5720TIP3    H238652   3.795   6.380  17.182 -0.5210  0.1386  0.1819
 5721TIP3   OH238653   0.718   3.819   2.989  0.3188 -0.0362  0.5370
 5721TIP3    H138654   0.737   3.912   2.982 -1.6948  0.3930  0.1979
 5721TIP3    H238655   0.768   3.790   3.065  2.1647  0.9475 -0.2296
 5722TIP3   OH238656   3.410   6.434   3.792 -0.3597 -0.1577  0.1885
 5722TIP3    H138657   3.370   6.447   3.878 -1.6630  0.0285 -0.4172
 5722TIP3    H238658   3.340   6.395   3.740  0.6325 -0.9258 -0.5992
 5723TIP3   OH238659   3.756   1.112   5.857 -0.2460 -0.5095 -0.2399
 5723TIP3    H138660   3.683   1.133   5.914 -0.4011 -2.0235  0.1649
 5723TIP3    H238661   3.749   1.175   5.785 -1.1866  0.1768  0.4251
 5724TIP3   OH238662   3.960   3.499   0.986 -0.0428 -0.2459  0.0571
 5724TIP3    H138663   4.020   3.565   1.021  0.3463 -1.0983  1.0447
 5724TIP3    H238664   4.015   3.440   0.936 -0.3824  0.1209 -0.7721
 5725TIP3   OH238665   2.894   0.973  15.943 -0.8815 -0.8653 -0.1503
 5725TIP3    H138666   2.830   1.043  15.934 -1.3092 -1.2953 -0.5229
 5725TIP3    H238667   2.977   1.018  15.959 -1.6780 -0.3429  3.1395
 5726TIP3   OH238668   5.369   1.182  15.438  0.2024 -0.1863  0.5296
 5726TIP3    H138669   5.274   1.171  15.442  0.1799 -0.1598  0.0502
 5726TIP3    H238670   5.382   1.276  15.434  0.1560 -0.2294 -1.5726
 5727TIP3   OH238671   6.554   3.138   0.872  0.2006  0.1820 -0.0554
 5727TIP3    H138672   6.484   3.203   0.870  1.6793  2.0812  2.7698
 5727TIP3    H238673   6.632   3.185   0.841  0.9256 -0.8093  0.2137
 5728TIP3   OH238674   0.165   4.320   0.082 -0.2751  0.5940  0.2387
 5728TIP3    H138675   0.152   4.267   0.004  0.2660 -2.4795  2.0538
 5728TIP3    H238676   0.083   4.310   0.132 -0.2742  1.7483  0.4981
 5729TIP3   OH238677   5.464   1.628  11.112  0.3130  0.8942 -0.5369
 5729TIP3    H138678   5.486   1.543  11.148  1.9696  0.8366 -1.5787
 5729TIP3    H238679   5.545   1.679  11.118  0.0363  1.5955 -2.0969
 5730TIP3   OH238680   4.628   5.305   0.765 -0.1017  0.0910  0.2945
 5730TIP3    H138681   4.662   5.379   0.814  0.8949 -1.2896  1.8071
 5730TIP3    H238682   4.590   5.247   0.831 -1.8193 -0.2945 -0.9433
 5731TIP3   OH238683   6.043   0.600   2.516 -1.0264 -0.2879 -0.2265
 5731TIP3    H138684   6.004   0.538   2.454 -0.2254 -0.7777 -0.2528
 5731TIP3    H238685   6.136   0.602   2.494 -0.5699 -1.0632  1.4196
 5732TIP3   OH238686   2.544   2.525  13.597  0.3954  0.4185 -0.4703
 5732TIP3    H138687   2.531   2.597  13.535 -2.4050 -0.7982 -1.4759
 5732TIP3    H238688   2.557   2.448  13.542 -1.1307 -0.5326  0.4134
 5733TIP3   OH238689   5.616   2.440  13.229 -0.3785  0.0298 -0.4193
 5733TIP3    H138690   5.577   2.483  13.153 -0.3990 -1.1296 -1.0852
 5733TIP3    H238691   5.710   2.459  13.221 -0.6545  2.2516  0.8185
 5734TIP3   OH238692   4.934   4.585  14.311 -0.8193 -0.0863  0.0981
 5734TIP3    H138693   4.948   4.522  14.241  0.2501 -0.8428  0.9518
 5734TIP3    H238694   5.009   4.573  14.370 -0.7179  1.8208  0.4218
 5735TIP3   OH238695   4.232   5.876  10.882 -0.3625  0.3795 -0.0666
 5735TIP3    H138696   4.322   5.852  10.862 -0.0982  0.3602  1.0822
 5735TIP3    H238697   4.239   5.963  10.922 -0.8520  0.3647  0.0546
 5736TIP3   OH238698   2.211   1.962   3.041 -0.2850  0.4463 -0.7647
 5736TIP3    H138699   2.160   1.893   3.083 -0.4824 -0.0441 -1.7853
 5736TIP3    H238700   2.155   2.040   3.047 -1.3167 -0.1443 -2.1147
 5737TIP3   OH238701   6.212   1.340   3.266 -0.4406 -0.2005  0.1698
 5737TIP3    H138702   6.133   1.370   3.221 -0.5907  0.7293  1.0202
 5737TIP3    H238703   6.281   1.346   3.200 -0.7488  0.6914 -0.0896
 5738TIP3   OH238704   1.964   2.470  16.405  0.6059 -0.0745  0.7788
 5738TIP3    H138705   1.977   2.545  16.347 -0.5403 -2.5421 -3.0640
 5738TIP3    H238706   1.875   2.480  16.438  0.6883  0.5369  0.8265
 5739TIP3   OH238707   4.786   5.341  12.005 -0.1801  0.1857 -0.1070
 5739TIP3    H138708   4.724   5.414  12.010  0.6655  1.0443 -1.4490
 5739TIP3    H238709   4.773   5.306  11.917  0.1650 -0.6108  0.1553
 5740TIP3   OH238710   4.666   4.938  16.481  0.7549  0.1553  0.0899
 5740TIP3    H138711   4.604   4.956  16.552  2.1818 -0.5707  1.5896
 5740TIP3    H238712   4.751   4.936  16.524  1.7703  0.5187 -1.8128
 5741TIP3   OH238713   5.434   6.698   2.847  0.1478 -0.4336 -0.7800
 5741TIP3    H138714   5.373   6.671   2.778 -1.7749  1.6366 -0.0236
 5741TIP3    H238715   5.486   6.767   2.807  0.5549 -0.7368 -0.7818
 5742TIP3   OH238716   6.821   1.358  11.443  0.3612 -0.3508  0.0542
 5742TIP3    H138717   6.733   1.394  11.455 -0.8064 -3.3997  1.9134
 5742TIP3    H238718   6.827   1.339  11.350 -0.6948  0.4827 -0.2016
 5743TIP3   OH238719   1.970   5.296  11.355  0.1120 -0.6210 -0.3776
 5743TIP3    H138720   1.934   5.353  11.423  0.2634 -0.1277 -0.7023
 5743TIP3    H238721   1.924   5.213  11.366  2.0477 -1.4749  2.1032
 5744TIP3   OH238722   0.760   0.488   4.658 -0.7311 -0.4319  0.2026
 5744TIP3    H138723   0.768   0.556   4.725 -1.3234 -0.0721 -0.0807
 5744TIP3    H238724   0.666   0.469   4.655 -0.5474 -1.5029  0.5035
 5745TIP3   OH238725   3.081   4.089  10.235 -0.5520  0.1958  0.3837
 5745TIP3    H138726   3.173   4.063  10.228 -1.2206 -2.0145 -1.2636
 5745TIP3    H238727   3.081   4.163  10.295  2.1544 -0.4976  1.3434
 5746TIP3   OH238728   6.657   1.042  10.668  0.0936 -0.1441  0.1802
 5746TIP3    H138729   6.584   1.072  10.722 -0.9876 -0.7843 -0.8810
 5746TIP3    H238730   6.725   1.109  10.679 -0.4985  0.2664  1.4773
 5747TIP3   OH238731   6.828   2.136  12.745 -0.4985  0.5053 -0.3933
 5747TIP3    H138732   6.827   2.216  12.797 -2.8254  0.5988 -0.4649
 5747TIP3    H238733   6.868   2.161  12.662  1.5836  0.8052  0.6479
 5748TIP3   OH238734   5.235   6.446   3.717  0.9404  0.3065  0.6221
 5748TIP3    H138735   5.225   6.460   3.623  1.0889  0.2167  0.5938
 5748TIP3    H238736   5.221   6.532   3.756  0.4025  0.2559  0.5524
 5749TIP3   OH238737   1.857   2.928  15.687  0.3371 -0.5339 -0.5461
 5749TIP3    H138738   1.888   2.904  15.599  0.1070  0.7495 -0.9939
 5749TIP3    H238739   1.763   2.908  15.685  0.2026  0.1142 -0.8192
 5750TIP3   OH238740   5.318   5.858  17.146  0.1118  0.0725  0.0017
 5750TIP3    H138741   5.374   5.893  17.077  1.6061 -1.9561  0.1004
 5750TIP3    H238742   5.242   5.823  17.100 -0.0269  0.8187 -0.3554
 5751TIP3   OH238743   0.988   1.267  14.293  0.4200 -0.1929  0.1535
 5751TIP3    H138744   0.996   1.206  14.220 -3.8894  0.2702 -0.9721
 5751TIP3    H238745   0.979   1.211  14.370  1.7866 -0.7818 -0.0995
 5752TIP3   OH238746   5.583   6.190  10.853 -0.7528 -0.0643 -0.3872
 5752TIP3    H138747   5.552   6.111  10.897  0.8515 -1.5723 -1.7563
 5752TIP3    H238748   5.514   6.255  10.867 -2.3520 -1.8422  0.4271
 5753TIP3   OH238749   6.545   3.408   5.077  0.0227  0.2048 -0.2332
 5753TIP3    H138750   6.626   3.358   5.069  0.8263  1.5945 -1.5649
 5753TIP3    H238751   6.570   3.487   5.125 -1.4198 -0.9681  2.6658
 5754TIP3   OH238752   1.943   4.348   0.330  0.4329  0.2071  0.0983
 5754TIP3    H138753   1.968   4.278   0.391 -0.0168  0.0786  0.1369
 5754TIP3    H238754   2.020   4.359   0.274  0.6831  0.0139  0.4024
 5755TIP3   OH238755   0.955   6.592  14.115 -0.1703 -0.4854  0.2460
 5755TIP3    H138756   0.897   6.652  14.069  0.5018 -1.1875 -1.6435
 5755TIP3    H238757   1.042   6.633  14.109 -0.0828 -0.5464  0.9945
 5756TIP3   OH238758   1.102   3.780   3.496 -0.4367 -0.0798  0.4965
 5756TIP3    H138759   1.186   3.797   3.539  0.3205  1.2948 -1.3938
 5756TIP3    H238760   1.121   3.787   3.403 -2.2471 -1.9040 -0.0591
 5757TIP3   OH238761   4.614   6.315   3.376  0.6286  0.3368 -0.0673
 5757TIP3    H138762   4.580   6.273   3.297  2.0237 -3.4668  1.1587
 5757TIP3    H238763   4.709   6.299   3.373  0.6211 -0.7067  2.7462
 5758TIP3   OH238764   2.521   2.239  12.850 -0.0979  0.1128  0.4815
 5758TIP3    H138765   2.509   2.325  12.811  3.2821  0.6212  0.2966
 5758TIP3    H238766   2.597   2.202  12.805  0.2656 -1.7835  2.4731
 5759TIP3   OH238767   2.816   4.216  14.106 -0.4685 -0.0802 -0.1366
 5759TIP3    H138768   2.825   4.228  14.200  0.2019  4.5363 -0.5509
 5759TIP3    H238769   2.723   4.193  14.093 -1.0276  1.0518  1.5758
 5760TIP3   OH238770   0.516   0.119   4.923  0.3029 -0.6829  0.4120
 5760TIP3    H138771   0.530   0.160   5.009 -0.7596  0.6240 -0.0095
 5760TIP3    H238772   0.431   0.076   4.931 -0.7989  1.1789 -0.5704
 5761TIP3   OH238773   5.187   3.676  16.931 -0.3982  0.3849 -0.3926
 5761TIP3    H138774   5.156   3.739  16.996  0.4780  0.8702 -0.4355
 5761TIP3    H238775   5.239   3.614  16.982  1.4604  1.5525 -0.7969
 5762TIP3   OH238776   2.120   3.924   3.270 -0.6832 -0.0845  0.1133
 5762TIP3    H138777   2.216   3.929   3.269 -0.6540  0.7017 -2.5902
 5762TIP3    H238778   2.100   3.836   3.236 -0.8090  0.7520 -2.1936
 5763TIP3   OH238779   2.732   2.027  11.320  0.4998  0.0903  0.0172
 5763TIP3    H138780   2.702   1.990  11.236  2.1440 -0.3253 -0.4196
 5763TIP3    H238781   2.654   2.028  11.375 -0.3883 -0.5927 -1.1883
 5764TIP3   OH238782   3.173   0.030   3.091  0.5917  0.2700  0.5747
 5764TIP3    H138783   3.257   0.065   3.122  1.6880 -2.0559  0.3995
 5764TIP3    H238784   3.197  -0.039   3.029 -1.4969  0.4302 -0.4881
 5765TIP3   OH238785   1.891   5.270  12.690  0.3569 -0.4930 -0.4334
 5765TIP3    H138786   1.919   5.219  12.766  1.5671  0.7229 -0.0181
 5765TIP3    H238787   1.964   5.328  12.672 -1.1116  1.4175 -0.6046
 5766TIP3   OH238788   0.212   6.772   5.988 -0.1870  0.0079 -1.2374
 5766TIP3    H138789   0.291   6.820   6.014 -0.8113  0.7199 -0.5692
 5766TIP3    H238790   0.237   6.680   5.993  0.5181  0.2162 -0.7198
 5767TIP3   OH238791   0.066   2.202   6.050  0.3323  0.0065 -0.6688
 5767TIP3    H138792  -0.003   2.267   6.039  1.4755  1.4479  0.3024
 5767TIP3    H238793   0.021   2.123   6.079 -0.9165  0.8828 -0.1619
 5768TIP3   OH238794   1.401   4.763  13.174 -0.1843 -0.4541  0.0992
 5768TIP3    H138795   1.418   4.817  13.096  1.4505 -0.1656  0.6236
 5768TIP3    H238796   1.318   4.795  13.207 -0.6844 -0.2582 -1.2592
 5769TIP3   OH238797   2.453   2.000  16.089  0.5369 -0.6709 -0.2707
 5769TIP3    H138798   2.452   1.911  16.126  0.4603 -0.3103  0.6381
 5769TIP3    H238799   2.392   1.996  16.016  0.2991 -1.2882 -0.0485
 5770TIP3   OH238800   4.614   2.348   0.696  0.4862  0.1389 -0.5654
 5770TIP3    H138801   4.644   2.262   0.667  2.3498 -1.0439  4.0553
 5770TIP3    H238802   4.519   2.340   0.701  0.6704 -1.9910  0.5505
 5771TIP3   OH238803   3.339   4.571  14.307  0.5902  0.0999 -0.1533
 5771TIP3    H138804   3.381   4.601  14.226 -0.9216  0.6430 -0.7625
 5771TIP3    H238805   3.327   4.650  14.359  2.2039 -0.3398  0.9561
 5772TIP3   OH238806   5.961   4.672   2.954 -0.0030  0.3362  0.3761
 5772TIP3    H138807   6.057   4.676   2.959 -0.0623  1.3445  1.1377
 5772TIP3    H238808   5.938   4.738   2.889 -0.1618 -0.3548 -0.2807
 5773TIP3   OH238809   0.638   0.748  13.370 -1.0051 -0.2941 -0.0402
 5773TIP3    H138810   0.546   0.748  13.347 -1.0227 -0.1601  0.0261
 5773TIP3    H238811   0.646   0.816  13.437 -0.4643  1.2542 -1.6163
 5774TIP3   OH238812   6.596   5.513   3.062 -0.6749 -0.2244 -0.0291
 5774TIP3    H138813   6.558   5.490   2.977 -3.8155 -0.3613  1.3054
 5774TIP3    H238814   6.681   5.551   3.040 -0.6319 -1.7779 -3.0982
 5775TIP3   OH238815   6.677   5.690  13.068  0.0170  0.4072  1.0525
 5775TIP3    H138816   6.740   5.762  13.065 -1.5045  1.7893 -0.8774
 5775TIP3    H238817   6.607   5.718  13.008  0.4780 -3.7896 -1.8124
 5776TIP3   OH238818   4.834   5.620  12.782 -0.2625 -0.1071 -0.0899
 5776TIP3    H138819   4.760   5.589  12.731 -1.0478  0.6400  0.5816
 5776TIP3    H238820   4.805   5.703  12.819  0.4759 -0.3845  1.1468
 5777TIP3   OH238821   5.725   0.557  14.691 -0.1111  0.2846  0.0671
 5777TIP3    H138822   5.803   0.501  14.694 -1.2847 -1.3882  1.5277
 5777TIP3    H238823   5.759   0.643  14.669  2.2042 -0.3203  0.9451
 5778TIP3   OH238824   2.315   3.071   2.208 -0.3004  0.3122  0.1707
 5778TIP3    H138825   2.303   3.035   2.120  0.2650  0.3520  0.0745
 5778TIP3    H238826   2.271   3.009   2.266 -0.9427  0.4399 -0.1634
 5779TIP3   OH238827   4.758   4.741   4.260 -0.5371  0.2203  0.3173
 5779TIP3    H138828   4.700   4.815   4.276  0.3130  0.9047  0.2758
 5779TIP3    H238829   4.809   4.767   4.183 -2.9320 -2.0128 -2.3022
 5780TIP3   OH238830   2.232   2.719  15.254 -0.0828  0.1654  0.0474
 5780TIP3    H138831   2.167   2.661  15.213  0.0088  0.1210 -0.0361
 5780TIP3    H238832   2.183   2.799  15.276 -0.1114  0.2296 -0.2447
 5781TIP3   OH238833   1.186   1.957  14.983  0.2349  0.2257 -0.4207
 5781TIP3    H138834   1.108   1.905  14.964 -0.4575  0.1912  2.1526
 5781TIP3    H238835   1.151   2.039  15.020  1.4017  0.6197 -0.1637
 5782TIP3   OH238836   1.794   6.293  12.998  0.5552  0.4683 -0.4590
 5782TIP3    H138837   1.802   6.209  12.955  1.0324 -0.5813  1.5492
 5782TIP3    H238838   1.882   6.331  12.995  1.0061 -0.3787  0.9968
 5783TIP3   OH238839   2.987   4.198   4.386  0.4982  0.0380 -0.7752
 5783TIP3    H138840   3.027   4.134   4.327  0.0787  0.4927 -1.5610
 5783TIP3    H238841   3.062   4.242   4.427  0.8674 -2.5195  1.5962
 5784TIP3   OH238842   3.716   6.273  16.540  0.0615  0.6263  0.6788
 5784TIP3    H138843   3.771   6.326  16.597  0.6722 -0.5524  1.2378
 5784TIP3    H238844   3.662   6.336  16.493  1.9164  1.8366  0.0688
 5785TIP3   OH238845   3.488   5.624  15.037  0.1994  0.1430  0.1235
 5785TIP3    H138846   3.437   5.680  14.978 -0.3124 -0.4444 -0.0055
 5785TIP3    H238847   3.480   5.665  15.123 -1.2757 -0.4261  0.2943
 5786TIP3   OH238848   1.732   3.400  12.894  0.9763  0.1500  0.2859
 5786TIP3    H138849   1.690   3.411  12.809 -1.2077 -2.3773  0.8804
 5786TIP3    H238850   1.790   3.325  12.883  0.5818 -0.2779  1.0130
 5787TIP3   OH238851   0.194   5.411   2.271 -0.3035  0.1035  0.6831
 5787TIP3    H138852   0.230   5.327   2.240 -0.7953  0.0589  0.2264
 5787TIP3    H238853   0.271   5.466   2.284 -0.0051 -0.2756  0.5599
 5788TIP3   OH238854   3.929   0.242   2.009  0.0897 -0.4308  0.2887
 5788TIP3    H138855   3.916   0.303   1.937 -2.4767 -0.2248  0.8529
 5788TIP3    H238856   3.942   0.157   1.966  0.5459 -0.0108 -0.4289
 5789TIP3   OH238857   5.664   6.425  15.740  0.1419  0.2198  0.4448
 5789TIP3    H138858   5.619   6.491  15.687  0.1328  0.0369  0.2233
 5789TIP3    H238859   5.607   6.412  15.816  0.0713  0.3567  0.4162
 5790TIP3   OH238860   6.614   2.214   6.272  0.3438  0.5868 -0.0053
 5790TIP3    H138861   6.672   2.278   6.230  0.8103  1.8373  2.3541
 5790TIP3    H238862   6.533   2.262   6.290 -1.1702 -0.8802 -2.3851
 5791TIP3   OH238863   0.652   6.475   5.989 -0.7922 -0.2731  0.0173
 5791TIP3    H138864   0.674   6.397   5.937  0.2256 -0.7962  1.1782
 5791TIP3    H238865   0.723   6.481   6.053 -0.4228  2.0776 -0.5346
 5792TIP3   OH238866   5.432   4.106   2.518  0.1060 -0.3177  0.3685
 5792TIP3    H138867   5.387   4.060   2.447 -1.0782  0.2141  0.7427
 5792TIP3    H238868   5.426   4.199   2.494  0.2973 -0.1832  0.8297
 5793TIP3   OH238869   1.214   5.341   1.541 -0.0804 -0.3791  0.3761
 5793TIP3    H138870   1.301   5.347   1.582  0.6483  1.5563 -1.2908
 5793TIP3    H238871   1.176   5.427   1.554 -1.2809 -0.8465  0.0290
 5794TIP3   OH238872   3.622   3.978   4.680 -0.0071 -0.0565 -0.7971
 5794TIP3    H138873   3.566   4.052   4.704  0.8289  0.4827 -0.4739
 5794TIP3    H238874   3.562   3.914   4.641 -0.8413  0.5086 -0.4603
 5795TIP3   OH238875   1.778   5.929   4.561 -0.4450 -0.8710  0.2635
 5795TIP3    H138876   1.868   5.952   4.537 -0.3975 -2.2210 -1.0445
 5795TIP3    H238877   1.753   5.993   4.627  0.8727  0.6056 -0.6132
 5796TIP3   OH238878   0.172   0.973  10.616  0.0133  0.7143  0.4454
 5796TIP3    H138879   0.163   0.893  10.563 -2.5258  0.9405  0.4037
 5796TIP3    H238880   0.178   1.044  10.552  0.7804  0.7015  0.4903
 5797TIP3   OH238881   5.960   5.697  15.481  0.2782  0.2530  0.7535
 5797TIP3    H138882   6.010   5.778  15.471  1.0139 -0.3688 -0.9725
 5797TIP3    H238883   6.005   5.649  15.551  1.1739  0.3826  0.2758
 5798TIP3   OH238884   5.319   0.425  11.352 -0.5105 -0.0811  0.5535
 5798TIP3    H138885   5.254   0.406  11.419 -0.3515 -0.3165  0.6430
 5798TIP3    H238886   5.377   0.349  11.353 -0.7093 -0.2483 -0.0877
 5799TIP3   OH238887   4.894   1.448   3.035 -0.2383  0.1397 -0.1918
 5799TIP3    H138888   4.893   1.524   3.093 -1.4497 -0.5128  0.7023
 5799TIP3    H238889   4.957   1.388   3.075  0.3746  0.4712 -0.6439
 5800TIP3   OH238890   1.140   1.620   1.042  0.1228 -0.0766 -0.0131
 5800TIP3    H138891   1.204   1.616   0.971  0.9786 -0.7616  0.7688
 5800TIP3    H238892   1.190   1.651   1.117 -0.8377  0.9275  0.2350
 5801TIP3   OH238893   3.978   0.415   3.969  0.4544  0.6116 -0.3738
 5801TIP3    H138894   4.074   0.411   3.966  0.4755  1.2033 -0.4873
 5801TIP3    H238895   3.950   0.365   3.893  0.6290 -1.0031  0.5662
 5802TIP3   OH238896   2.954   4.654  16.908  0.3360 -0.2080 -0.1769
 5802TIP3    H138897   2.905   4.595  16.965  0.9180 -0.9513 -0.4244
 5802TIP3    H238898   2.937   4.742  16.943  1.2582 -0.6925  1.5989
 5803TIP3   OH238899   4.957   2.256  12.036  0.3434 -0.7961  0.0784
 5803TIP3    H138900   4.915   2.340  12.053 -0.4188 -0.6961 -2.0163
 5803TIP3    H238901   4.885   2.195  12.024  0.8939 -1.8910  1.9920
 5804TIP3   OH238902   2.027   6.406  11.499 -0.1056  0.0515 -0.8107
 5804TIP3    H138903   2.054   6.476  11.440 -0.3148  1.2600  0.4655
 5804TIP3    H238904   2.035   6.326  11.447 -0.5930  1.0878 -2.5519
 5805TIP3   OH238905   6.759   0.526  12.918  0.0789 -0.1117  0.4798
 5805TIP3    H138906   6.820   0.592  12.885  0.3509 -0.8032 -0.4431
 5805TIP3    H238907   6.684   0.577  12.949 -0.1892  0.6147 -1.2165
 5806TIP3   OH238908   2.265   5.522  13.215 -0.1630  0.2513  0.0782
 5806TIP3    H138909   2.228   5.590  13.271  0.1537  1.2653 -0.8991
 5806TIP3    H238910   2.207   5.520  13.138 -1.2948 -1.9446  0.8954
 5807TIP3   OH238911   1.498   1.188  13.405  0.3751  0.1008  0.4634
 5807TIP3    H138912   1.578   1.144  13.376  0.3890 -0.0093  0.6694
 5807TIP3    H238913   1.452   1.122  13.457 -0.4494 -0.2689 -0.6773
 5808TIP3   OH238914   2.260   2.339  11.000 -0.0617  0.1411  0.1269
 5808TIP3    H138915   2.280   2.345  11.093 -0.0639  1.6112  0.0596
 5808TIP3    H238916   2.316   2.268  10.968  1.4531  0.9528  0.8642
 5809TIP3   OH238917   6.105   6.206   3.387  0.2647  0.2081  0.7787
 5809TIP3    H138918   6.143   6.192   3.300  2.7010  0.3338  1.7462
 5809TIP3    H238919   6.065   6.122   3.409  0.6058 -0.1750 -0.0063
 5810TIP3   OH238920   5.374   4.575   5.960  0.0554  0.2489 -0.5629
 5810TIP3    H138921   5.325   4.544   6.036  1.2474  1.8135  0.9275
 5810TIP3    H238922   5.332   4.658   5.937 -0.0081  0.0058 -1.3313
 5811TIP3   OH238923   2.976   3.067   5.299 -0.6033 -0.1848 -0.5668
 5811TIP3    H138924   3.053   3.104   5.256  1.0521 -2.0983  0.5838
 5811TIP3    H238925   2.950   3.134   5.363 -0.9589  1.1776 -2.0712
 5812TIP3   OH238926   1.149   4.598   4.301  0.0957  0.1895  0.1510
 5812TIP3    H138927   1.122   4.508   4.282  2.5465 -0.7964  0.8862
 5812TIP3    H238928   1.078   4.634   4.354 -0.6808 -1.4995  0.3194
 5813TIP3   OH238929   0.109   0.532   4.573 -0.7858  0.4074  0.3117
 5813TIP3    H138930   0.188   0.581   4.549 -0.3268 -0.4341  0.0352
 5813TIP3    H238931   0.109   0.532   4.669  0.7975 -1.4184  0.3899
 5814TIP3   OH238932   0.365   2.464  16.681  0.0134 -0.4338 -0.1745
 5814TIP3    H138933   0.341   2.373  16.663  0.1998 -0.9916  2.1544
 5814TIP3    H238934   0.375   2.503  16.594 -0.4672 -2.5108 -1.2338
 5815TIP3   OH238935   2.621   1.922  15.686  0.6299 -0.1488  0.2083
 5815TIP3    H138936   2.601   1.981  15.759  3.0666  0.6760  0.2983
 5815TIP3    H238937   2.695   1.869  15.716  0.3795 -1.2062 -0.9420
 5816TIP3   OH238938   3.931   5.423  14.872  0.4468  0.2397  0.4838
 5816TIP3    H138939   3.843   5.415  14.835  0.7036  1.4253 -0.4417
 5816TIP3    H238940   3.984   5.363  14.820  0.2855 -0.0921  0.7018
 5817TIP3   OH238941   0.708   3.286   1.647  0.1818 -0.4499 -0.2166
 5817TIP3    H138942   0.797   3.264   1.674  0.8390  1.1434 -0.9675
 5817TIP3    H238943   0.719   3.336   1.566 -1.4196 -0.3711 -0.4204
 5818TIP3   OH238944   4.540   0.469   1.534  0.0035 -0.0387 -0.2313
 5818TIP3    H138945   4.617   0.495   1.484 -0.3500 -1.0231 -1.3391
 5818TIP3    H238946   4.572   0.460   1.624  1.2693 -0.7465 -0.7203
 5819TIP3   OH238947   6.617   0.195   1.998 -0.7650  0.1295  0.9263
 5819TIP3    H138948   6.586   0.127   1.939 -0.6303  2.3342 -1.9122
 5819TIP3    H238949   6.712   0.188   1.995 -0.7500 -1.1732  2.7927
 5820TIP3   OH238950   5.595   2.065  12.568  0.1376  0.1028 -0.4558
 5820TIP3    H138951   5.617   2.118  12.491  1.5144 -1.2921 -1.0812
 5820TIP3    H238952   5.502   2.045  12.556  1.0160 -3.1825 -3.9067
 5821TIP3   OH238953   4.656   4.301  16.049  1.0778 -0.2371 -0.7137
 5821TIP3    H138954   4.638   4.211  16.076  1.1544 -0.3426 -1.0069
 5821TIP3    H238955   4.732   4.294  15.990 -0.5950 -0.3257 -2.9922
 5822TIP3   OH238956   1.645   6.256   5.123 -0.2575 -0.6880  0.1200
 5822TIP3    H138957   1.624   6.235   5.031 -0.3127  0.6539 -0.1920
 5822TIP3    H238958   1.721   6.314   5.117 -0.2971 -0.5504  0.9286
 5823TIP3   OH238959   6.285   3.538  15.873  0.0846 -0.1322 -0.1620
 5823TIP3    H138960   6.299   3.569  15.783  1.1084  0.9141  0.3317
 5823TIP3    H238961   6.194   3.562  15.892  0.1153  0.3835 -0.6343
 5824TIP3   OH238962   0.421   1.578  14.544 -0.2146  0.2137 -0.4914
 5824TIP3    H138963   0.503   1.622  14.521 -0.8318  1.8076  0.1612
 5824TIP3    H238964   0.361   1.650  14.565 -0.8950 -0.9510  1.9616
 5825TIP3   OH238965   4.989   0.297  14.635  0.1134 -0.3254  0.9010
 5825TIP3    H138966   4.949   0.344  14.561  0.2561  0.3009  1.2151
 5825TIP3    H238967   5.083   0.300  14.617  0.1316 -0.3840  0.9887
 5826TIP3   OH238968   4.305   6.642  14.287 -0.1669  0.2635 -0.1742
 5826TIP3    H138969   4.286   6.637  14.194 -0.4643 -0.1494 -0.0923
 5826TIP3    H238970   4.227   6.682  14.326  0.9821  2.9881 -0.4292
 5827TIP3   OH238971   0.627   5.451  16.104  0.4920  0.2362 -0.0293
 5827TIP3    H138972   0.588   5.537  16.090 -1.2153 -0.3737  0.6974
 5827TIP3    H238973   0.552   5.392  16.114  1.5896 -1.6928 -2.3592
 5828TIP3   OH238974   6.704   0.456  16.848  0.0270 -0.2789 -0.5973
 5828TIP3    H138975   6.713   0.546  16.879 -0.1975 -0.5553  0.3008
 5828TIP3    H238976   6.664   0.409  16.921 -2.0797 -0.6161 -1.8978
 5829TIP3   OH238977   4.998   1.899   3.372  0.4471  0.0149 -0.1978
 5829TIP3    H138978   5.076   1.902   3.316  0.9911  0.9805  0.5841
 5829TIP3    H238979   4.985   1.989   3.400 -1.1822 -0.0717 -0.5818
 5830TIP3   OH238980   3.833   3.533   6.290  0.3155  0.5490 -0.3043
 5830TIP3    H138981   3.787   3.463   6.245 -2.1459  0.8459  1.5091
 5830TIP3    H238982   3.764   3.592   6.320  2.2606  3.9404 -1.9114
 5831TIP3   OH238983   5.498   3.897  13.689  0.5498  0.1589  0.3343
 5831TIP3    H138984   5.428   3.951  13.726 -1.8660 -1.7622 -1.0810
 5831TIP3    H238985   5.495   3.915  13.595  1.6211 -0.3425  0.1890
 5832TIP3   OH238986   0.937   2.825  11.014  0.2517  0.3203 -0.2786
 5832TIP3    H138987   0.988   2.905  11.030  0.6348 -0.1758  1.1230
 5832TIP3    H238988   1.001   2.765  10.975  0.0696  0.5371 -0.9317
 5833TIP3   OH238989   1.239   1.143   1.176 -0.1693  0.2586 -0.0369
 5833TIP3    H138990   1.187   1.211   1.135  0.3757  1.3226  0.9719
 5833TIP3    H238991   1.259   1.081   1.106 -1.0924  0.8766 -0.8564
 5834TIP3   OH238992   6.234   6.190  12.780  0.5934 -0.6825 -0.1682
 5834TIP3    H138993   6.324   6.157  12.768  0.2132 -1.8769  0.1328
 5834TIP3    H238994   6.225   6.201  12.874 -0.0214 -1.9222 -0.0657
 5835TIP3   OH238995   6.089   4.295  12.361 -0.1417 -0.6209 -0.2925
 5835TIP3    H138996   6.094   4.336  12.275  0.9702 -1.5217 -0.6756
 5835TIP3    H238997   6.173   4.316  12.403 -1.4629  1.6413  1.4630
 5836TIP3   OH238998   0.104   0.988  15.204 -0.1270  0.2646  0.6331
 5836TIP3    H138999   0.079   0.996  15.296  3.0968 -0.4374  1.6678
 5836TIP3    H239000   0.184   0.936  15.204  0.0633  0.3276 -2.5884
 5837TIP3   OH239001   4.472   0.305  15.893 -0.2186  0.2354  0.5459
 5837TIP3    H139002   4.461   0.267  15.980  0.6689  0.2333  0.6658
 5837TIP3    H239003   4.442   0.396  15.903 -0.6932  0.0656  0.6954
 5838TIP3   OH239004   0.803   4.459  15.710  0.2871  0.1986  0.3142
 5838TIP3    H139005   0.736   4.521  15.681  1.1485 -0.6955 -4.4137
 5838TIP3    H239006   0.756   4.377  15.724 -0.0600  0.4727  0.7879
 5839TIP3   OH239007   2.737   5.896   0.991 -0.1291  0.2624 -0.2838
 5839TIP3    H139008   2.791   5.893   0.912  0.2301 -1.4791 -0.0158
 5839TIP3    H239009   2.647   5.887   0.958 -0.0181  0.0431 -0.5334
 5840TIP3   OH239010   2.228   6.741  12.302 -0.1094  0.6101  0.3270
 5840TIP3    H139011   2.309   6.747  12.252 -0.7657 -2.7478 -1.4903
 5840TIP3    H239012   2.209   6.830  12.330  4.8273  1.3984  2.0314
 5841TIP3   OH239013   4.390   3.658  14.692 -0.0173 -0.0035 -0.1901
 5841TIP3    H139014   4.353   3.746  14.682  0.8581  0.2618 -1.2736
 5841TIP3    H239015   4.484   3.673  14.703  0.0457 -0.7769  0.4243
 5842TIP3   OH239016   1.062   6.664   2.767 -0.1867 -0.8085  0.0259
 5842TIP3    H139017   1.113   6.645   2.688 -0.0916 -1.7114  0.2851
 5842TIP3    H239018   0.973   6.676   2.735  0.4813  3.7980 -0.8472
 5843TIP3   OH239019   4.767   6.423   3.959  0.5135 -0.5705 -0.8951
 5843TIP3    H139020   4.842   6.416   3.900 -0.9350 -0.6408 -2.8563
 5843TIP3    H239021   4.701   6.365   3.920 -1.0423  0.5679 -0.0865
 5844TIP3   OH239022   4.885   4.392   2.107  0.2345  0.0724 -0.4200
 5844TIP3    H139023   4.935   4.446   2.168  0.2110  0.0015 -0.3373
 5844TIP3    H239024   4.927   4.407   2.022 -1.5404  2.4388 -0.9515
 5845TIP3   OH239025   3.773   0.491  12.194 -0.1303 -0.2504  0.1992
 5845TIP3    H139026   3.695   0.543  12.213 -0.5470 -1.3386  1.7101
 5845TIP3    H239027   3.741   0.417  12.143  0.3388  0.5250 -1.2771
 5846TIP3   OH239028   0.119   0.250  12.445 -0.4786  0.4803 -0.6130
 5846TIP3    H139029   0.052   0.219  12.383 -2.1375 -1.8786  2.0879
 5846TIP3    H239030   0.072   0.309  12.504  0.4494  0.8211 -0.1936
 5847TIP3   OH239031   1.576   4.793  12.905 -0.1102  0.0491 -0.7841
 5847TIP3    H139032   1.597   4.865  12.845 -2.1080  1.3395 -0.0259
 5847TIP3    H239033   1.603   4.825  12.991 -1.1475 -0.0208 -0.4187
 5848TIP3   OH239034   1.376   0.629   0.027  0.2772  1.2548  0.4457
 5848TIP3    H139035   1.447   0.680  -0.011  1.4980 -0.4723  0.2886
 5848TIP3    H239036   1.313   0.621  -0.045  1.9327 -0.8014 -0.9128
 5849TIP3   OH239037   6.752   1.274  14.673 -0.3362 -0.0217 -0.3250
 5849TIP3    H139038   6.776   1.348  14.729 -2.3089  0.7877 -0.4473
 5849TIP3    H239039   6.656   1.274  14.673 -0.4469 -3.1627  0.4060
 5850TIP3   OH239040   5.407   5.138  11.527  0.0149  0.0780  0.5855
 5850TIP3    H139041   5.409   5.185  11.444  1.8040 -1.4910 -0.3477
 5850TIP3    H239042   5.438   5.050  11.505  0.9803 -0.2548  2.9857
 5851TIP3   OH239043   5.885   1.566   3.155 -0.2145  0.2164  0.1790
 5851TIP3    H139044   5.791   1.549   3.157 -0.0604 -0.6684  0.2773
 5851TIP3    H239045   5.892   1.660   3.138 -1.1757  1.0545  3.7254
 5852TIP3   OH239046   6.571   5.034  15.691 -0.3353  0.1060 -0.2235
 5852TIP3    H139047   6.609   4.955  15.652  0.4713  0.6610 -0.5711
 5852TIP3    H239048   6.598   5.030  15.783  0.1064  0.2232 -0.3479
 5853TIP3   OH239049   1.476   3.444   4.569 -0.1616 -0.2897  0.1009
 5853TIP3    H139050   1.422   3.522   4.578 -1.8024 -1.4728  1.3589
 5853TIP3    H239051   1.484   3.411   4.659  0.3294 -1.6429 -0.4169
 5854TIP3   OH239052   2.973   3.597   5.291 -0.2752  0.2157 -0.0500
 5854TIP3    H139053   2.920   3.559   5.361  2.1937 -2.6691  0.4682
 5854TIP3    H239054   3.028   3.662   5.334 -1.7936  1.6560 -0.2032
 5855TIP3   OH239055   3.215   6.497   3.074 -0.0116  0.6306 -0.6471
 5855TIP3    H139056   3.178   6.456   2.996 -2.0515  1.1776 -0.0257
 5855TIP3    H239057   3.256   6.578   3.042 -1.1295  1.0213 -1.1312
 5856TIP3   OH239058   3.445   4.121  13.676  0.1920 -0.6627  0.1030
 5856TIP3    H139059   3.503   4.180  13.723  0.1275  0.7582 -1.5228
 5856TIP3    H239060   3.494   4.096  13.598 -1.6508  1.4431 -1.8837
 5857TIP3   OH239061   6.711   1.848  11.922 -0.3271  0.1842 -0.0451
 5857TIP3    H139062   6.785   1.864  11.981 -1.6993 -0.1551  1.8943
 5857TIP3    H239063   6.706   1.753  11.915 -1.2647  0.1382  0.8599
 5858TIP3   OH239064   6.101   3.604  16.553  0.6131  0.2994  0.2643
 5858TIP3    H139065   6.080   3.515  16.580 -1.1436  0.3467 -0.7429
 5858TIP3    H239066   6.103   3.654  16.634 -0.4366 -0.2918  0.6813
 5859TIP3   OH239067   4.538   3.219   1.296  0.5635  0.0640 -0.0248
 5859TIP3    H139068   4.506   3.131   1.315 -1.2369  1.0029  1.5435
 5859TIP3    H239069   4.621   3.225   1.344 -1.6379  0.7641  4.1379
 5860TIP3   OH239070   2.042   3.558  16.005 -0.2312 -0.0864 -0.5124
 5860TIP3    H139071   1.960   3.607  16.008  0.5037  1.1379  0.7024
 5860TIP3    H239072   2.039   3.501  16.081  1.4623  2.4786  1.6602
 5861TIP3   OH239073   5.403   1.509  11.561  0.1563 -0.0777  0.0838
 5861TIP3    H139074   5.309   1.493  11.574 -0.1318  0.6931 -0.9647
 5861TIP3    H239075   5.445   1.454  11.627 -1.0852  0.8565  1.7260
 5862TIP3   OH239076   1.828   3.258   5.865 -0.1387  0.1210  0.1540
 5862TIP3    H139077   1.738   3.242   5.835 -0.0798  0.9200 -0.4878
 5862TIP3    H239078   1.822   3.340   5.914  0.5716  1.2854 -1.6141
 5863TIP3   OH239079   6.192   6.159   1.235  0.3622 -0.2462 -0.5077
 5863TIP3    H139080   6.228   6.071   1.222 -0.5139 -0.6669 -0.1100
 5863TIP3    H239081   6.178   6.192   1.146  1.3023 -0.2425 -0.6669
 5864TIP3   OH239082   4.405   0.666   4.137 -0.2563  0.0327 -0.2432
 5864TIP3    H139083   4.313   0.670   4.111 -0.8751  0.3841  1.7954
 5864TIP3    H239084   4.433   0.757   4.141  0.0531 -0.0531 -0.4793
 5865TIP3   OH239085   2.836   0.074   6.075 -0.3447  0.2561  0.1860
 5865TIP3    H139086   2.913   0.129   6.059 -1.2912  0.9883 -2.3101
 5865TIP3    H239087   2.870  -0.004   6.119  2.1872 -0.2920 -2.4569
 5866TIP3   OH239088   0.718   4.267   0.846  0.2065  0.2103  0.4879
 5866TIP3    H139089   0.659   4.261   0.921 -0.0725 -1.1470  0.1995
 5866TIP3    H239090   0.687   4.198   0.786  2.2038 -0.6915  0.4234
 5867TIP3   OH239091   4.418   5.575   3.444 -0.4794 -0.6086  0.5068
 5867TIP3    H139092   4.354   5.562   3.513 -1.9133 -0.0872 -0.6818
 5867TIP3    H239093   4.485   5.632   3.483 -1.4049 -0.0930  1.3781
 5868TIP3   OH239094   1.752   1.560   5.849  0.1711  0.2916  0.1461
 5868TIP3    H139095   1.697   1.482   5.851  0.2223  0.2262 -0.9224
 5868TIP3    H239096   1.836   1.531   5.813 -0.3181  1.1244 -1.8010
 5869TIP3   OH239097   4.643   3.639   0.948 -0.0178 -0.0486 -0.0407
 5869TIP3    H139098   4.605   3.560   0.909  1.3629 -1.3455  1.1236
 5869TIP3    H239099   4.572   3.702   0.948 -1.6179 -1.7610  0.3262
 5870TIP3   OH239100   0.311   5.655  12.408  0.4170  0.8816 -0.1673
 5870TIP3    H139101   0.330   5.564  12.386 -1.6944  0.4177 -0.2431
 5870TIP3    H239102   0.298   5.656  12.503  2.0645  1.4720  0.1015
 5871TIP3   OH239103   3.578   1.351   2.179 -0.2589  0.1914  0.2307
 5871TIP3    H139104   3.613   1.429   2.221 -0.4749  0.8255 -0.7179
 5871TIP3    H239105   3.586   1.282   2.244  1.0136  0.7409  0.6872
 5872TIP3   OH239106   4.726   5.111  12.321  0.0043  0.1831  0.1689
 5872TIP3    H139107   4.725   5.172  12.395  3.1270 -1.2615  1.5998
 5872TIP3    H239108   4.638   5.074  12.319 -0.9036  2.0484  1.5370
 5873TIP3   OH239109   6.672   5.718   3.326 -0.0527  0.2906  0.1527
 5873TIP3    H139110   6.719   5.713   3.409  0.5931  1.8319 -0.0978
 5873TIP3    H239111   6.661   5.626   3.300  2.1738 -0.1613  0.5978
 5874TIP3   OH239112   6.202   3.934  12.827  0.0540 -0.3582  0.9841
 5874TIP3    H139113   6.225   4.017  12.868 -2.6017  1.1998 -0.4108
 5874TIP3    H239114   6.120   3.908  12.870 -0.6558 -0.7469 -0.5478
 5875TIP3   OH239115   3.249   5.870   2.241 -0.2540  0.2029 -0.2730
 5875TIP3    H139116   3.291   5.791   2.207  0.1530 -0.0460  0.7566
 5875TIP3    H239117   3.165   5.840   2.275  0.7855 -0.2531  2.1050
 5876TIP3   OH239118   0.800   2.254  16.642 -0.4804  0.3114 -0.7901
 5876TIP3    H139119   0.838   2.170  16.616  0.3235  0.5216 -0.3553
 5876TIP3    H239120   0.876   2.309  16.661 -0.9388  0.0735  2.3270
 5877TIP3   OH239121   1.757   4.251  12.612 -0.0260 -0.1357  0.0414
 5877TIP3    H139122   1.670   4.273  12.577 -0.5565 -1.6903  0.3007
 5877TIP3    H239123   1.740   4.223  12.702  0.8801  0.4126  0.3997
 5878TIP3   OH239124   6.714   5.944   2.555  0.4859  0.0984  0.8021
 5878TIP3    H139125   6.736   6.031   2.590 -2.0025  0.3166  2.0204
 5878TIP3    H239126   6.628   5.924   2.592  0.1520 -2.0953 -0.9450
 5879TIP3   OH239127   3.135   1.937   4.685 -0.3304  0.3668 -0.9968
 5879TIP3    H139128   3.113   2.022   4.647 -2.3338  1.6717  2.5884
 5879TIP3    H239129   3.210   1.955   4.742  0.3346 -0.7198 -1.4897
 5880TIP3   OH239130   6.396   0.866   3.062 -0.1954  0.1163 -0.7852
 5880TIP3    H139131   6.351   0.946   3.035 -0.7589 -0.3225 -1.1757
 5880TIP3    H239132   6.470   0.897   3.115 -1.5359  0.8278  0.7549
 5881TIP3   OH239133   0.883   3.744   3.188  0.1978 -0.0553  0.3115
 5881TIP3    H139134   0.928   3.825   3.213  0.2874 -0.1811  0.5608
 5881TIP3    H239135   0.945   3.675   3.211  0.1541 -0.1895  0.0207
 5882TIP3   OH239136   3.617   0.938  16.321  0.2975 -0.4421  0.1251
 5882TIP3    H139137   3.642   0.982  16.402  0.8576  0.6671 -0.6337
 5882TIP3    H239138   3.544   0.989  16.287  2.0772  1.0847 -1.6848
 5883TIP3   OH239139   3.920   2.723   4.266  0.7874 -0.1058 -0.2393
 5883TIP3    H139140   3.970   2.643   4.253  0.8288 -0.3693  1.3520
 5883TIP3    H239141   3.978   2.779   4.318 -0.4893 -0.3851  1.5821
 5884TIP3   OH239142   2.523   5.608  13.240  0.0389  0.2902 -0.5192
 5884TIP3    H139143   2.433   5.576  13.232  0.5459 -1.7545  0.9962
 5884TIP3    H239144   2.517   5.686  13.295 -0.7350 -0.4268  0.4429
 5885TIP3   OH239145   0.439   2.042  13.948  0.8840 -0.0502  0.0627
 5885TIP3    H139146   0.482   2.107  13.892 -0.2257 -0.1858 -0.9698
 5885TIP3    H239147   0.469   2.064  14.036  1.6144  0.9968 -0.4236
 5886TIP3   OH239148   1.127   4.625   0.293 -0.2053 -0.5427  0.0164
 5886TIP3    H139149   1.034   4.647   0.290 -0.4950 -1.7908 -1.1438
 5886TIP3    H239150   1.140   4.586   0.379 -0.6469  0.0762  0.3655
 5887TIP3   OH239151   0.875   5.167   0.589 -0.4484  0.3127  1.0638
 5887TIP3    H139152   0.809   5.107   0.623 -0.6122 -0.3601 -0.3853
 5887TIP3    H239153   0.951   5.111   0.571 -1.2177  0.1013 -2.0839
 5888TIP3   OH239154   4.572   2.857   4.111 -0.5554  0.7681 -0.0355
 5888TIP3    H139155   4.578   2.917   4.185  1.2635  1.6458 -0.8224
 5888TIP3    H239156   4.577   2.769   4.150 -0.4686  1.1916  0.9275
 5889TIP3   OH239157   1.745   1.080   0.398 -0.3112  0.4146  0.1431
 5889TIP3    H139158   1.650   1.075   0.405 -0.3983  0.9380 -0.6057
 5889TIP3    H239159   1.771   1.147   0.461 -0.5119  0.7854 -0.1640
 5890TIP3   OH239160   5.835   3.473  15.465 -0.0414 -0.2791 -0.2946
 5890TIP3    H139161   5.746   3.440  15.479 -0.1804  1.4358  4.7109
 5890TIP3    H239162   5.823   3.555  15.415 -0.5817 -2.2981 -3.8262
 5891TIP3   OH239163   4.791   1.928   2.722  0.7089 -0.0536  0.5900
 5891TIP3    H139164   4.721   1.993   2.718  0.8055 -0.0035 -1.3342
 5891TIP3    H239165   4.836   1.946   2.804 -0.2007  1.3155  0.8220
 5892TIP3   OH239166   4.160   2.868  16.019  0.7788 -0.2030  0.5037
 5892TIP3    H139167   4.181   2.863  16.112 -3.2161 -1.9062  1.5160
 5892TIP3    H239168   4.164   2.777  15.988  0.3786  0.1252 -0.5653
 5893TIP3   OH239169   3.113   4.584   6.142 -0.1874 -1.0390 -0.3975
 5893TIP3    H139170   3.177   4.553   6.205  0.2428  1.1836  0.3527
 5893TIP3    H239171   3.164   4.634   6.078 -0.6823 -2.7609 -2.2624
 5894TIP3   OH239172   5.544   0.766   5.213 -0.3534 -0.2030 -0.3243
 5894TIP3    H139173   5.459   0.725   5.195 -0.5007  0.6146 -1.5783
 5894TIP3    H239174   5.607   0.693   5.211 -1.0976 -0.9708  1.5696
 5895TIP3   OH239175   2.017   0.633  13.212  0.2037 -0.0503 -0.6577
 5895TIP3    H139176   2.020   0.627  13.308  0.5200 -2.5808 -0.7611
 5895TIP3    H239177   1.964   0.711  13.194 -1.4610 -0.5710  1.5772
 5896TIP3   OH239178   5.634   6.492   3.330 -0.1945  0.4267 -0.4827
 5896TIP3    H139179   5.697   6.437   3.378 -1.9018  0.0943  1.5351
 5896TIP3    H239180   5.550   6.447   3.342 -1.3385  2.4968 -0.3550
 5897TIP3   OH239181   2.359   4.689  14.629  0.6756 -0.4581  0.1688
 5897TIP3    H139182   2.278   4.738  14.613  0.3997 -0.9821 -0.0528
 5897TIP3    H239183   2.411   4.746  14.685  0.5912  0.3280 -0.5361
 5898TIP3   OH239184   3.202   2.383  15.028  0.2613 -0.1693 -0.3080
 5898TIP3    H139185   3.203   2.468  15.071  1.4836 -0.4187  0.2102
 5898TIP3    H239186   3.263   2.330  15.079 -2.7096 -2.3559  1.2955
 5899TIP3   OH239187   4.684   0.545   1.879 -0.4879  0.1088  0.1688
 5899TIP3    H139188   4.680   0.457   1.919 -0.8829 -0.4249 -1.0118
 5899TIP3    H239189   4.642   0.602   1.944 -0.3229 -0.5821  0.9046
 5900TIP3   OH239190   3.806   5.692  17.014 -0.3914  0.3096 -0.3663
 5900TIP3    H139191   3.744   5.754  17.053  0.7015  1.7160 -0.8071
 5900TIP3    H239192   3.892   5.724  17.041  0.4109  1.0142 -3.3702
 5901TIP3   OH239193   6.002   3.071  13.319 -0.2871 -0.1993 -0.1967
 5901TIP3    H139194   5.984   3.150  13.269 -1.9228 -0.4310 -0.0288
 5901TIP3    H239195   6.096   3.055  13.307  0.3737  2.4584  0.8201
 5902TIP3   OH239196   6.138   5.846  14.073 -0.0386  0.0880 -0.9151
 5902TIP3    H139197   6.110   5.812  14.158  0.2841 -1.1361 -1.2816
 5902TIP3    H239198   6.079   5.803  14.010  0.5623 -0.0173 -1.4107
 5903TIP3   OH239199   6.493   5.390  14.088 -0.1046  0.1194 -0.0365
 5903TIP3    H139200   6.467   5.382  13.996  0.5359  1.0689 -0.3121
 5903TIP3    H239201   6.588   5.386  14.087 -0.1252 -3.5331  0.9956
 5904TIP3   OH239202   4.707   5.722   0.433  0.1986  0.5410  0.5122
 5904TIP3    H139203   4.746   5.635   0.431 -0.4538  0.2214 -2.2020
 5904TIP3    H239204   4.613   5.707   0.422  0.0624  1.5832  0.1312
 5905TIP3   OH239205   0.693   5.646  17.145 -0.2160 -0.5546  0.3195
 5905TIP3    H139206   0.700   5.741  17.154  0.0205 -0.4992 -0.3983
 5905TIP3    H239207   0.600   5.631  17.124 -0.1706 -0.4424  0.0297
 5906TIP3   OH239208   5.408   3.831   0.723 -0.7134 -0.3534 -0.2566
 5906TIP3    H139209   5.346   3.830   0.795 -0.7866 -0.3923 -0.3195
 5906TIP3    H239210   5.420   3.739   0.699 -0.3995 -0.3706 -0.0488
 5907TIP3   OH239211   0.580   1.709   3.034  0.0747  0.2664  0.2812
 5907TIP3    H139212   0.565   1.749   2.949 -0.2752 -0.3068  0.0658
 5907TIP3    H239213   0.662   1.661   3.024 -0.6565 -0.9508 -0.1842
 5908TIP3   OH239214   2.965   3.023  11.391  0.4973 -0.4487 -0.1273
 5908TIP3    H139215   2.967   3.003  11.297  1.5090 -0.3876 -0.1279
 5908TIP3    H239216   2.940   2.941  11.433  0.1050 -0.4942 -0.4452
 5909TIP3   OH239217   4.130   3.758  15.584 -0.1361 -0.1098  0.0750
 5909TIP3    H139218   4.183   3.801  15.516  0.1065  0.5925  0.6918
 5909TIP3    H239219   4.156   3.666  15.580 -0.9217 -0.2909 -1.5104
 5910TIP3   OH239220   1.830   1.028  10.503  0.6681  0.2758 -0.1272
 5910TIP3    H139221   1.870   0.952  10.462  0.1987 -0.2884  0.4348
 5910TIP3    H239222   1.803   0.997  10.590 -2.6659  0.0492 -1.1189
 5911TIP3   OH239223   0.446   2.202  10.374  0.1798 -0.9100 -0.3577
 5911TIP3    H139224   0.417   2.265  10.307 -0.1548 -0.1063  0.5087
 5911TIP3    H239225   0.425   2.245  10.457  0.8259 -1.7724  0.2688
 5912TIP3   OH239226   5.001   4.141   0.027  0.2075  0.4426  0.1660
 5912TIP3    H139227   4.916   4.133  -0.017 -0.9986  1.3251  2.1965
 5912TIP3    H239228   4.984   4.112   0.117  2.1345  0.4121  0.5581
 5913TIP3   OH239229   5.040   3.078   3.362 -0.4358  0.0779  0.1032
 5913TIP3    H139230   5.062   3.163   3.325  0.8705  0.7284  2.1926
 5913TIP3    H239231   5.120   3.025   3.350 -0.6625 -0.3124  0.2763
 5914TIP3   OH239232   3.606   6.833   0.061  0.3085  0.2395  0.1562
 5914TIP3    H139233   3.645   6.887  -0.008  1.6122 -1.7155 -0.7098
 5914TIP3    H239234   3.526   6.798   0.022  0.0378  0.6566  0.3312
 5915TIP3   OH239235   5.880   5.692   3.990  0.3136 -0.2654  0.5092
 5915TIP3    H139236   5.942   5.653   4.051  0.1584 -2.1269 -0.4508
 5915TIP3    H239237   5.924   5.688   3.905 -0.3965  0.0866  0.1194
 5916TIP3   OH239238   5.619   1.606   5.190 -0.5140  0.2560 -0.3624
 5916TIP3    H139239   5.662   1.633   5.271  1.9865  0.3862 -1.6325
 5916TIP3    H239240   5.526   1.604   5.212  0.1847 -4.1523  3.8135
 5917TIP3   OH239241   1.818   4.615  12.405 -0.3455  0.0815 -0.0420
 5917TIP3    H139242   1.814   4.521  12.389 -0.8114  0.3865 -2.0355
 5917TIP3    H239243   1.907   4.630  12.435 -0.2861 -0.9962  0.3679
 5918TIP3   OH239244   0.886   3.278  15.236 -0.0632  0.1791  0.6882
 5918TIP3    H139245   0.838   3.304  15.158  3.6035  0.2889 -1.8077
 5918TIP3    H239246   0.944   3.352  15.254  0.2056 -0.4508  2.6690
 5919TIP3   OH239247   0.155   1.046  16.849  0.2534 -0.3815  0.2867
 5919TIP3    H139248   0.171   0.971  16.906  1.3799 -0.1231  0.3355
 5919TIP3    H239249   0.211   1.031  16.773  0.6131  0.4746  0.3699
 5920TIP3   OH239250   5.549   3.073  10.638 -0.3850 -0.0121 -0.4948
 5920TIP3    H139251   5.470   3.126  10.650 -0.2721  0.3440 -1.2914
 5920TIP3    H239252   5.620   3.131  10.667 -0.4134 -0.3503  0.2713
 5921TIP3   OH239253   4.523   4.508  10.953 -0.1820 -0.0973 -0.3971
 5921TIP3    H139254   4.531   4.459  11.035  1.6446 -0.2412 -0.6227
 5921TIP3    H239255   4.476   4.588  10.977  0.4423 -0.0760  0.8045
 5922TIP3   OH239256   4.864   6.435  13.675  0.3298  0.6551 -0.0135
 5922TIP3    H139257   4.788   6.395  13.718 -0.0943  0.8553 -0.5695
 5922TIP3    H239258   4.826   6.499  13.616  0.8694 -0.0816 -1.1821
 5923TIP3   OH239259   3.754   5.847   2.526 -0.7631 -0.7960  0.1434
 5923TIP3    H139260   3.673   5.825   2.571 -0.8807  0.9061  0.8438
 5923TIP3    H239261   3.752   5.794   2.446 -2.3950 -1.0394  0.3022
 5924TIP3   OH239262   6.473   0.538   4.693 -0.0624 -0.4743 -0.6438
 5924TIP3    H139263   6.380   0.556   4.677 -0.2415 -0.2574  0.5734
 5924TIP3    H239264   6.479   0.443   4.694 -0.5981 -0.5126  0.9774
 5925TIP3   OH239265   4.416   4.298   4.778  0.4434  0.4711 -0.1131
 5925TIP3    H139266   4.322   4.297   4.798  0.2963 -1.3809 -0.6695
 5925TIP3    H239267   4.457   4.263   4.856  0.3878 -1.2991 -0.8304
 5926TIP3   OH239268   3.788   4.826   3.807 -0.6035 -0.2758 -0.1486
 5926TIP3    H139269   3.832   4.785   3.732 -2.8552 -0.6057 -1.4184
 5926TIP3    H239270   3.703   4.853   3.772 -1.6386 -0.1807  2.2372
 5927TIP3   OH239271   1.640   4.521  14.284  0.1183  0.0031 -0.1578
 5927TIP3    H139272   1.574   4.481  14.227 -1.0685 -0.5520  1.5389
 5927TIP3    H239273   1.593   4.588  14.332  1.4812  1.5975 -0.9659
 5928TIP3   OH239274   5.169   2.823   5.231  0.3464 -0.1382  0.6462
 5928TIP3    H139275   5.153   2.731   5.249 -2.2253 -0.1393 -1.0970
 5928TIP3    H239276   5.215   2.824   5.148 -1.8034  0.1018 -0.6220
 5929TIP3   OH239277   0.957   0.470   3.726 -0.8052 -0.5883  0.1798
 5929TIP3    H139278   1.021   0.405   3.698 -0.0552  0.4287 -0.5240
 5929TIP3    H239279   0.956   0.462   3.822  0.7579 -0.2698  0.2452
 5930TIP3   OH239280   2.450   0.966  13.895 -0.1491  0.1145  0.0988
 5930TIP3    H139281   2.463   0.998  13.985  0.1235  0.0076  0.0979
 5930TIP3    H239282   2.488   1.034  13.840 -0.4476  0.2476  0.0593
 5931TIP3   OH239283   6.665   6.213  11.294 -0.1010 -0.4520  0.0008
 5931TIP3    H139284   6.710   6.247  11.217  1.2736 -0.0492  0.9406
 5931TIP3    H239285   6.655   6.120  11.277 -1.6466 -0.0646 -1.5110
 5932TIP3   OH239286   0.447   4.174  13.929 -0.7032 -0.6449  0.4215
 5932TIP3    H139287   0.485   4.145  13.847  0.1403 -0.4674  0.7455
 5932TIP3    H239288   0.352   4.169  13.914 -0.5613 -0.7768 -0.4942
 5933TIP3   OH239289   4.343   2.339   5.032  0.3361  0.8386  0.7195
 5933TIP3    H139290   4.389   2.264   5.068 -0.2051  1.8908  3.9087
 5933TIP3    H239291   4.253   2.308   5.018  0.2664  0.7269  1.4133
 5934TIP3   OH239292   0.175   5.649  14.077 -0.3122 -0.3291 -0.2412
 5934TIP3    H139293   0.239   5.683  14.015  0.5929 -0.2582  0.6927
 5934TIP3    H239294   0.177   5.554  14.065  0.6484 -0.4033  0.3890
 5935TIP3   OH239295   6.250   0.168   5.004 -0.4616 -0.1972 -0.0916
 5935TIP3    H139296   6.243   0.085   5.051 -1.4603 -1.3127 -2.0582
 5935TIP3    H239297   6.163   0.182   4.968 -0.2493  1.6322  0.0343
 5936TIP3   OH239298   6.294   0.267   0.929 -0.4254 -0.1931 -0.4828
 5936TIP3    H139299   6.354   0.257   0.855 -0.6602  0.8805 -0.8430
 5936TIP3    H239300   6.267   0.178   0.950  0.0815 -0.5616 -1.3270
 5937TIP3   OH239301   0.285   2.759  16.254 -0.2065 -0.0959 -0.0437
 5937TIP3    H139302   0.343   2.817  16.204 -0.5834  0.0848 -0.2797
 5937TIP3    H239303   0.295   2.674  16.212 -1.0319  0.2018 -0.8690
 5938TIP3   OH239304   4.718   5.814   5.213  0.3209 -0.4565 -0.0835
 5938TIP3    H139305   4.806   5.780   5.229 -0.4905 -2.2374  0.9388
 5938TIP3    H239306   4.717   5.834   5.120  2.4883  1.7944  0.2699
 5939TIP3   OH239307   2.982   0.064  11.268  0.4514 -0.0788  0.2213
 5939TIP3    H139308   3.070   0.068  11.232  0.5206 -0.5171  0.3265
 5939TIP3    H239309   2.924   0.088  11.195  0.7079  1.2433  0.4381
 5940TIP3   OH239310   1.492   3.348   2.626 -0.1827  0.1847 -0.1842
 5940TIP3    H139311   1.454   3.431   2.597 -0.2047 -0.3183 -1.7030
 5940TIP3    H239312   1.517   3.363   2.717 -0.2862  1.8146 -0.3959
 5941TIP3   OH239313   2.126   0.785   3.299 -0.5467  0.3224  0.3235
 5941TIP3    H139314   2.143   0.691   3.304 -2.3696 -0.0201  0.8963
 5941TIP3    H239315   2.178   0.823   3.369  1.5937  0.0217 -0.9981
 5942TIP3   OH239316   6.749   0.002  13.482  0.2321 -0.0859 -0.0136
 5942TIP3    H139317   6.664  -0.003  13.438 -0.2096 -1.6909  0.9462
 5942TIP3    H239318   6.765   0.096  13.493 -1.4818  0.2431 -0.0972
 5943TIP3   OH239319   0.057   1.089   2.460 -0.0454  0.3393 -0.2680
 5943TIP3    H139320   0.059   1.098   2.555 -1.1451  0.9833 -0.2913
 5943TIP3    H239321  -0.019   1.034   2.442  0.7997 -0.7052 -0.7250
 5944TIP3   OH239322   2.383   6.024  11.451  0.1982 -0.0597 -0.2772
 5944TIP3    H139323   2.342   6.033  11.365  1.9486 -0.0469 -1.1468
 5944TIP3    H239324   2.397   6.114  11.481  0.8140 -0.0430 -0.6008
 5945TIP3   OH239325   1.182   0.138  15.609 -0.1670 -0.5990 -0.3059
 5945TIP3    H139326   1.143   0.177  15.530 -0.1308 -0.4045 -0.2291
 5945TIP3    H239327   1.176   0.208  15.675 -2.7764 -1.6322  0.7125
 5946TIP3   OH239328   1.833   5.596  17.129  0.1766 -0.4993  0.2865
 5946TIP3    H139329   1.829   5.617  17.222  0.9306 -0.6472  0.3601
 5946TIP3    H239330   1.746   5.564  17.107 -0.1579  0.0319  0.8231
 5947TIP3   OH239331   6.267   1.694  10.943  0.2585 -0.6595 -0.5634
 5947TIP3    H139332   6.354   1.689  10.902 -0.0662 -1.3017 -1.2078
 5947TIP3    H239333   6.206   1.682  10.870 -0.4346  1.5002 -0.3973
 5948TIP3   OH239334   4.866   4.658   1.866  0.2494 -0.1013  0.5853
 5948TIP3    H139335   4.945   4.616   1.902 -0.3679  0.1114  2.2780
 5948TIP3    H239336   4.893   4.749   1.851  0.0223  0.2704  2.2923
 5949TIP3   OH239337   0.870   0.302   1.620  0.0926 -0.4816 -0.5151
 5949TIP3    H139338   0.964   0.282   1.618  0.1068 -0.8666  1.5872
 5949TIP3    H239339   0.864   0.392   1.587  1.7526  1.0888  2.9896
 5950TIP3   OH239340   6.181   6.819   0.933  0.4530  0.0351 -0.2152
 5950TIP3    H139341   6.121   6.755   0.971  0.6827 -1.2238 -1.8547
 5950TIP3    H239342   6.254   6.767   0.899  2.4990  1.5093  1.6403
 5951TIP3   OH239343   6.658   6.418  12.752 -0.1297  0.0289  0.3626
 5951TIP3    H139344   6.687   6.377  12.671  1.1834  0.9265  0.3535
 5951TIP3    H239345   6.733   6.412  12.811 -1.8232 -2.9483  2.5041
 5952TIP3   OH239346   3.288   1.523  14.886 -0.9677 -0.7407 -0.7188
 5952TIP3    H139347   3.319   1.547  14.973 -2.7365 -0.3289 -0.1505
 5952TIP3    H239348   3.334   1.581  14.826  0.6354 -1.3627 -0.1309
 5953TIP3   OH239349   5.873   1.528  17.120  0.3758 -0.6429  0.1955
 5953TIP3    H139350   5.857   1.435  17.130 -0.4250 -0.4640  0.6195
 5953TIP3    H239351   5.794   1.571  17.154  0.6741  0.1843 -0.1148
 5954TIP3   OH239352   3.222   2.563  14.070 -0.0202  0.2440  0.2359
 5954TIP3    H139353   3.255   2.536  13.985  3.5655 -0.5905  1.7114
 5954TIP3    H239354   3.231   2.658  14.071 -0.7002  0.3241 -0.5143
 5955TIP3   OH239355   5.517   3.709  10.323  0.0927 -0.6482 -1.2849
 5955TIP3    H139356   5.591   3.660  10.287  1.2520 -0.1779  0.3316
 5955TIP3    H239357   5.482   3.757  10.249  2.2907  0.1815 -1.8814
 5956TIP3   OH239358   3.969   5.010   6.099 -0.2435  0.0937 -0.0366
 5956TIP3    H139359   3.964   5.106   6.103 -1.2013  0.0805 -0.6898
 5956TIP3    H239360   3.970   4.983   6.191  2.3058  0.7999  0.2151
 5957TIP3   OH239361   3.045   4.911  15.031 -0.2508  0.1727 -0.0828
 5957TIP3    H139362   3.112   4.964  14.989 -0.4798  0.2656 -0.3371
 5957TIP3    H239363   3.093   4.854  15.091  0.0812  0.0132 -0.5016
 5958TIP3   OH239364   3.967   2.288   0.573 -0.0984 -0.1810 -0.2327
 5958TIP3    H139365   3.973   2.207   0.623 -1.5324 -0.1641  0.0064
 5958TIP3    H239366   3.941   2.354   0.637  1.8619  0.6856 -0.2555
 5959TIP3   OH239367   2.915   1.208  16.205 -0.3295  0.1142  0.4700
 5959TIP3    H139368   2.872   1.278  16.156  2.3982  1.0489 -0.8085
 5959TIP3    H239369   2.992   1.185  16.152  0.4045 -1.8955  2.2522
 5960TIP3   OH239370   4.841   3.723  11.259  0.0396 -0.3852 -0.1480
 5960TIP3    H139371   4.758   3.719  11.211 -0.3819 -0.2724  0.5513
 5960TIP3    H239372   4.868   3.815  11.254 -1.3702  0.2177  2.0415
 5961TIP3   OH239373   2.349   1.854   0.889 -0.0324 -0.1314 -0.0629
 5961TIP3    H139374   2.283   1.921   0.874 -0.7711 -1.0002 -0.7845
 5961TIP3    H239375   2.372   1.822   0.802 -1.2077 -2.2393  0.3439
 5962TIP3   OH239376   4.474   6.835   2.386 -0.1782 -0.8331 -0.3516
 5962TIP3    H139377   4.492   6.927   2.407 -0.3603 -1.0232  0.6764
 5962TIP3    H239378   4.380   6.826   2.397 -0.4309 -0.7469 -2.1218
 5963TIP3   OH239379   1.745   3.309  15.648 -0.6388  0.1823 -0.0401
 5963TIP3    H139380   1.799   3.248  15.698  0.9501 -0.4970 -2.4300
 5963TIP3    H239381   1.782   3.395  15.667  0.9522 -0.2180 -1.1657
 5964TIP3   OH239382   4.976   1.282  12.419 -0.2830  0.2445 -0.4512
 5964TIP3    H139383   4.949   1.373  12.402  1.8746  0.6494 -2.1760
 5964TIP3    H239384   5.067   1.289  12.447  0.3083 -1.4727 -1.8070
 5965TIP3   OH239385   1.028   0.377   4.614  0.0626  0.4505 -0.4065
 5965TIP3    H139386   0.942   0.416   4.621  0.0486  0.6348 -1.5116
 5965TIP3    H239387   1.049   0.379   4.520  0.6127 -0.9835 -0.3399
 5966TIP3   OH239388   2.190   6.169   3.869 -0.1381 -0.1059  0.6239
 5966TIP3    H139389   2.210   6.218   3.789 -2.0177 -0.6896 -0.2622
 5966TIP3    H239390   2.104   6.201   3.896  0.9633  0.9823  3.1798
 5967TIP3   OH239391   3.469   1.119  15.162 -0.4895  0.0893 -1.4516
 5967TIP3    H139392   3.432   1.059  15.226  3.1123 -0.8336  0.0290
 5967TIP3    H239393   3.515   1.062  15.100  2.9777  1.0565 -0.0384
 5968TIP3   OH239394   0.574   0.574   2.401  0.4658  0.4413 -0.1993
 5968TIP3    H139395   0.629   0.648   2.427 -1.0962  1.3314  0.7871
 5968TIP3    H239396   0.546   0.535   2.484 -0.3016 -0.0458 -0.6735
 5969TIP3   OH239397   0.134   3.379  13.150 -0.3472 -0.7788 -0.1293
 5969TIP3    H139398   0.084   3.302  13.123 -0.9555  0.1732 -1.9481
 5969TIP3    H239399   0.209   3.344  13.197 -1.1397 -2.4167 -0.0075
 5970TIP3   OH239400   4.318   1.275   5.692 -0.3296 -0.6891  0.1642
 5970TIP3    H139401   4.289   1.313   5.775  1.1991 -0.4554  0.6155
 5970TIP3    H239402   4.390   1.330   5.664  0.4752 -1.9396 -0.3135
 5971TIP3   OH239403   3.081   6.031   5.964 -0.0368  0.2239 -0.1983
 5971TIP3    H139404   3.059   5.938   5.958 -0.0096  0.1375  0.8892
 5971TIP3    H239405   3.081   6.061   5.873 -2.9060 -0.1800 -0.4259
 5972TIP3   OH239406   1.901   4.585   3.719  0.1555 -0.2307 -0.3683
 5972TIP3    H139407   1.943   4.499   3.724  1.6929  0.5581  1.1328
 5972TIP3    H239408   1.947   4.630   3.649 -0.5901 -0.5611 -1.0933
 5973TIP3   OH239409   6.380   2.704  12.010  0.3904 -0.4370 -0.1171
 5973TIP3    H139410   6.473   2.711  11.990 -0.0482 -0.4222 -2.4346
 5973TIP3    H239411   6.341   2.667  11.931 -1.4664 -1.3822  1.1487
 5974TIP3   OH239412   4.423   0.362   2.224  0.3431  0.5437 -0.3291
 5974TIP3    H139413   4.422   0.451   2.260  0.0356  0.7244 -0.7796
 5974TIP3    H239414   4.336   0.351   2.185  0.7811  0.4767 -1.3144
 5975TIP3   OH239415   6.724   6.282  11.773 -0.4902 -0.1657 -0.0430
 5975TIP3    H139416   6.810   6.242  11.767 -0.8091 -0.7399 -1.3209
 5975TIP3    H239417   6.740   6.374  11.794  0.4447 -0.2136 -0.5306
 5976TIP3   OH239418   5.990   4.931   0.736 -0.0196 -0.0847  1.1408
 5976TIP3    H139419   5.981   4.950   0.829 -2.0035  0.5387  0.8875
 5976TIP3    H239420   5.904   4.954   0.699  0.4107 -1.1898 -0.6852
 5977TIP3   OH239421   2.759   4.682  14.042  0.0210  0.0881 -0.1456
 5977TIP3    H139422   2.772   4.752  13.978  0.5633 -1.6242 -2.0045
 5977TIP3    H239423   2.829   4.620  14.024  0.8218  0.0129  2.8613
 5978TIP3   OH239424   1.824   5.330   4.455 -0.4095 -0.5070 -0.3040
 5978TIP3    H139425   1.741   5.286   4.435 -0.2602 -1.6086  1.3387
 5978TIP3    H239426   1.891   5.264   4.438  0.2246  0.4878 -1.9781
 5979TIP3   OH239427   1.479   4.283   3.484 -0.0381 -0.0754  0.0887
 5979TIP3    H139428   1.425   4.344   3.435  1.2360  1.0735  0.0517
 5979TIP3    H239429   1.485   4.321   3.572 -2.4625 -2.2107  1.2911
 5980TIP3   OH239430   6.551   0.217  16.039 -0.2557  0.4909  0.2129
 5980TIP3    H139431   6.620   0.183  16.097  0.9452  1.2711 -0.7181
 5980TIP3    H239432   6.488   0.145  16.033  1.0987 -0.7448  0.0883
 5981TIP3   OH239433   6.572   3.296   2.477  0.3169 -0.1717 -0.3154
 5981TIP3    H139434   6.583   3.225   2.413  1.3332 -0.1303 -0.2098
 5981TIP3    H239435   6.620   3.267   2.554 -0.2828  0.1057  0.1684
 5982TIP3   OH239436   4.748   3.750   1.588 -0.1783 -0.4159 -0.0692
 5982TIP3    H139437   4.734   3.749   1.682  0.0946 -0.6111 -0.0294
 5982TIP3    H239438   4.779   3.838   1.569  2.7881 -1.2133  0.4881
 5983TIP3   OH239439   4.128   0.274   2.475  0.5695  0.7706 -0.2211
 5983TIP3    H139440   4.162   0.186   2.494  1.4369  1.0276 -0.5288
 5983TIP3    H239441   4.161   0.293   2.387  0.2049  1.3181 -0.2372
 5984TIP3   OH239442   0.706   2.881  11.992  0.1402  0.1868  0.3877
 5984TIP3    H139443   0.690   2.827  12.069  0.5689  2.0301  1.8610
 5984TIP3    H239444   0.618   2.904  11.960 -0.2027  2.1816  2.4722
 5985TIP3   OH239445   6.124   3.660   0.052 -0.3676 -0.5206 -0.5782
 5985TIP3    H139446   6.112   3.568   0.027 -1.1429 -0.3904 -0.6915
 5985TIP3    H239447   6.184   3.695  -0.014 -1.1048 -0.6069 -1.3096
 5986TIP3   OH239448   4.187   3.576   1.604  0.5292 -0.2604 -0.2798
 5986TIP3    H139449   4.121   3.576   1.535  0.7251 -1.5789 -0.5021
 5986TIP3    H239450   4.167   3.654   1.656  1.0144  1.3724 -2.3808
 5987TIP3   OH239451   6.006   2.029  14.904  0.5151 -0.0689 -0.3506
 5987TIP3    H139452   6.019   1.993  14.992  0.2341  0.3540 -0.1343
 5987TIP3    H239453   5.969   1.957  14.854 -2.1157  0.4841  0.6356
 5988TIP3   OH239454   6.522   3.830  14.441  0.1806  0.2020  0.0184
 5988TIP3    H139455   6.568   3.896  14.390  0.5756 -0.0783  0.0089
 5988TIP3    H239456   6.467   3.785  14.377  1.6146 -0.9903 -0.4343
 5989TIP3   OH239457   0.487   1.965  10.770  0.0195 -0.3912 -0.5758
 5989TIP3    H139458   0.487   1.976  10.675  1.3965 -1.1776 -0.6957
 5989TIP3    H239459   0.579   1.953  10.793 -0.3697 -1.0300  0.7638
 5990TIP3   OH239460   6.531   2.737  16.369 -0.3489 -0.0271 -0.2269
 5990TIP3    H139461   6.498   2.819  16.333 -2.4962  0.2178  1.9748
 5990TIP3    H239462   6.548   2.756  16.461 -0.5693 -1.9445  0.2632
 5991TIP3   OH239463   1.234   2.879  12.260  0.0569  0.5061 -0.2624
 5991TIP3    H139464   1.309   2.824  12.285 -1.1736 -0.2516  2.0008
 5991TIP3    H239465   1.197   2.835  12.184  0.3549 -0.6153  0.2196
 5992TIP3   OH239466   1.481   4.177   2.326  0.1938  0.1300 -0.2093
 5992TIP3    H139467   1.539   4.220   2.263  0.3607  0.9955  0.5197
 5992TIP3    H239468   1.472   4.087   2.293 -0.2350  0.7383 -1.8192
 5993TIP3   OH239469   3.034   4.653   4.701 -0.1862 -0.0239  0.2304
 5993TIP3    H139470   3.012   4.659   4.608  1.2560 -0.1132 -0.1349
 5993TIP3    H239471   2.960   4.695   4.746 -0.8884  0.0407 -0.9481
 5994TIP3   OH239472   3.245   1.458  12.500 -0.4323  0.1257  0.3409
 5994TIP3    H139473   3.324   1.481  12.451 -0.3261  0.3441  0.6073
 5994TIP3    H239474   3.183   1.427  12.434 -0.6892  1.4676 -0.0837
 5995TIP3   OH239475   6.068   6.046  16.251 -0.4693 -0.3332 -0.2042
 5995TIP3    H139476   6.103   6.125  16.291 -0.8688 -0.5553  0.5907
 5995TIP3    H239477   5.973   6.062  16.244 -0.4991 -0.5836 -0.4098
 5996TIP3   OH239478   3.613   3.410  15.085 -0.5299 -0.6656 -0.0855
 5996TIP3    H139479   3.589   3.494  15.048 -3.2967 -1.1680  0.3697
 5996TIP3    H239480   3.579   3.412  15.175  3.6014 -0.5042  1.6927
 5997TIP3   OH239481   1.657   1.387   0.295  0.0946  0.1981 -0.0919
 5997TIP3    H139482   1.745   1.390   0.258  0.3638 -1.4551  0.3258
 5997TIP3    H239483   1.603   1.433   0.232  1.1692  0.8043 -0.6001
 5998TIP3   OH239484   6.590   2.594   0.046  0.0135 -0.1271 -0.3577
 5998TIP3    H139485   6.621   2.601   0.136 -1.5068  0.3506  0.1684
 5998TIP3    H239486   6.666   2.564  -0.004  0.9265 -0.2409  1.0494
 5999TIP3   OH239487   1.835   6.697  15.857  0.2468  0.1712 -0.2596
 5999TIP3    H139488   1.808   6.644  15.932 -0.5135  1.1193  0.1547
 5999TIP3    H239489   1.799   6.651  15.781 -0.5729  0.1871  0.1070
 6000TIP3   OH239490   0.527   1.614   3.291 -0.0689 -0.0442 -0.6941
 6000TIP3    H139491   0.615   1.617   3.327 -0.3884  1.6426  0.0103
 6000TIP3    H239492   0.533   1.660   3.207 -0.4366  0.8635 -0.2378
 6001TIP3   OH239493   5.720   6.610   5.338  0.6694  0.1998  0.3983
 6001TIP3    H139494   5.793   6.558   5.372  0.1158 -1.2347 -0.5063
 6001TIP3    H239495   5.756   6.655   5.262  0.4402 -1.1712 -0.5601
 6002TIP3   OH239496   1.419   5.129  15.647 -0.0008 -0.3907  0.0477
 6002TIP3    H139497   1.412   5.145  15.741 -0.0220  0.1386 -0.0407
 6002TIP3    H239498   1.332   5.147  15.613 -0.4488 -2.1624  0.1397
 6003TIP3   OH239499   4.626   0.811   5.680  0.1513 -0.5718 -0.2095
 6003TIP3    H139500   4.634   0.820   5.775  0.2311  0.0309 -0.2642
 6003TIP3    H239501   4.547   0.861   5.658  1.0009  0.6358 -0.6312
 6004TIP3   OH239502   5.410   0.118  16.871 -0.3455  0.2585 -0.1763
 6004TIP3    H139503   5.380   0.150  16.785 -0.0598 -0.4559 -0.5532
 6004TIP3    H239504   5.426   0.197  16.922  2.2889  0.8579 -1.7256
 6005TIP3   OH239505   2.527   1.604  10.392  0.1651  0.7843  0.4408
 6005TIP3    H139506   2.612   1.589  10.350  0.4101 -0.9466  1.4275
 6005TIP3    H239507   2.471   1.535  10.358  0.7847 -1.6598  3.8349
 6006TIP3   OH239508   2.418   3.916   1.919 -0.1825  0.2460 -0.2967
 6006TIP3    H139509   2.479   3.894   1.989 -0.3078  3.2944  0.9496
 6006TIP3    H239510   2.337   3.869   1.941  0.3177 -0.2161  0.6075
 6007TIP3   OH239511   2.906   0.437   2.226  0.3313  0.0681  0.3585
 6007TIP3    H139512   2.837   0.455   2.290  2.5046  0.5172  2.7191
 6007TIP3    H239513   2.987   0.451   2.274  2.1013 -0.5667 -2.2715
 6008TIP3   OH239514   6.516   6.827  11.611 -0.2221  0.3356 -0.1481
 6008TIP3    H139515   6.549   6.908  11.650  0.5072  0.1551 -0.3644
 6008TIP3    H239516   6.590   6.793  11.561 -0.1390 -1.0415  0.8379
 6009TIP3   OH239517   5.104   0.675   1.316  0.7701 -0.6824 -0.0923
 6009TIP3    H139518   5.135   0.739   1.252  1.8429 -1.6309 -0.5538
 6009TIP3    H239519   5.140   0.704   1.399  1.6382 -0.9389 -0.3746
 6010TIP3   OH239520   4.070   3.317  16.960  0.7183  0.0554 -0.3147
 6010TIP3    H139521   4.058   3.372  17.037 -0.7337 -0.4511 -0.1519
 6010TIP3    H239522   4.057   3.377  16.886  2.1208  0.5436 -0.2053
 6011TIP3   OH239523   0.597   5.044  12.865 -0.0623 -0.0385 -0.6961
 6011TIP3    H139524   0.629   5.129  12.836 -0.5337 -0.5856 -3.0775
 6011TIP3    H239525   0.665   4.982  12.837 -0.5323 -0.6254 -0.5568
 6012TIP3   OH239526   2.327   4.146  12.328  1.2063 -0.7018 -0.4449
 6012TIP3    H139527   2.317   4.237  12.355 -0.1879 -1.0905  0.4346
 6012TIP3    H239528   2.251   4.129  12.272  2.0474 -1.0323 -1.5369
 6013TIP3   OH239529   4.847   2.960  16.774 -0.3969  0.3214  0.0171
 6013TIP3    H139530   4.875   2.898  16.706  1.1089  0.5952  0.3690
 6013TIP3    H239531   4.887   3.043  16.750 -0.6531  0.6583  0.7167
 6014TIP3   OH239532   5.059   3.043   1.101  0.5083 -0.6237 -0.0988
 6014TIP3    H139533   4.965   3.028   1.112 -0.2092  2.4066 -1.1326
 6014TIP3    H239534   5.099   2.996   1.174 -2.0844  0.5078  2.2562
 6015TIP3   OH239535   3.275   2.355   2.598 -0.1545  0.3156  0.1033
 6015TIP3    H139536   3.236   2.435   2.563  0.1595 -0.0847 -1.1959
 6015TIP3    H239537   3.348   2.386   2.651 -0.4404  0.9141  0.1625
 6016TIP3   OH239538   5.068   3.361  13.495 -0.4878  0.4501  0.1819
 6016TIP3    H139539   5.080   3.295  13.427  0.0912 -0.9173  1.5403
 6016TIP3    H239540   4.992   3.412  13.467 -0.0115  0.1880 -1.6597
 6017TIP3   OH239541   2.640   2.286   2.102 -0.0554  0.2531 -0.4663
 6017TIP3    H139542   2.731   2.312   2.113 -0.1171 -0.1781  1.4746
 6017TIP3    H239543   2.602   2.295   2.189 -1.9645  0.6967 -1.2914
 6018TIP3   OH239544   3.785   4.103   0.992  0.3419 -0.2578  0.5629
 6018TIP3    H139545   3.778   4.197   0.979 -0.2770 -0.5044 -1.2753
 6018TIP3    H239546   3.715   4.081   1.053 -1.4274  0.1314 -1.2335
 6019TIP3   OH239547   4.548   5.583   4.363  0.2603 -0.0019  0.3238
 6019TIP3    H139548   4.624   5.638   4.342  0.6770 -0.5369  0.3907
 6019TIP3    H239549   4.580   5.523   4.430 -0.2392 -0.2066  0.3827
 6020TIP3   OH239550   0.808   4.422   5.188 -0.0315 -0.0071  0.1116
 6020TIP3    H139551   0.845   4.480   5.254  0.2702 -1.7486  1.5420
 6020TIP3    H239552   0.714   4.434   5.195 -0.0461 -0.7014  1.4028
 6021TIP3   OH239553   4.054   2.209   3.906 -0.0512 -0.0028 -0.8196
 6021TIP3    H139554   4.128   2.149   3.916  0.6103  1.0585  1.1850
 6021TIP3    H239555   3.993   2.162   3.849  0.7117 -2.2841  0.1221
 6022TIP3   OH239556   1.694   0.460   0.353  0.5649 -0.2869  0.1836
 6022TIP3    H139557   1.688   0.400   0.427  0.3821 -0.0737  0.3454
 6022TIP3    H239558   1.617   0.439   0.299  1.0632 -0.8966 -0.2934
 6023TIP3   OH239559   5.693   3.528   1.580 -0.6324 -0.0738  0.2515
 6023TIP3    H139560   5.626   3.475   1.537 -2.0295 -0.9219  3.2457
 6023TIP3    H239561   5.717   3.478   1.657  0.6901  1.9962  1.2456
 6024TIP3   OH239562   4.120   6.265   0.016 -0.9784 -0.7782  0.1686
 6024TIP3    H139563   4.059   6.297   0.083 -0.6957  0.4875 -0.1507
 6024TIP3    H239564   4.202   6.254   0.064 -1.1188 -1.2085  0.3167
 6025TIP3   OH239565   1.190   5.903  13.468 -0.2144 -0.5009 -0.3020
 6025TIP3    H139566   1.280   5.912  13.438  1.1464 -0.2348  3.3740
 6025TIP3    H239567   1.164   5.815  13.440  1.0270 -0.4447 -1.7290
 6026TIP3   OH239568   3.899   6.128   3.652  0.3785 -0.2483 -0.5595
 6026TIP3    H139569   3.917   6.090   3.566 -0.9137 -1.1752 -0.4436
 6026TIP3    H239570   3.820   6.180   3.639  1.8414  2.1275 -0.6002
 6027TIP3   OH239571   6.233   0.468  17.038 -0.5685 -0.1902  0.0445
 6027TIP3    H139572   6.161   0.509  17.084 -0.0979 -0.2187  0.8239
 6027TIP3    H239573   6.229   0.376  17.064  0.6862  0.0884  1.3782
 6028TIP3   OH239574   5.936   5.856  10.470  0.0105 -0.1949 -0.5543
 6028TIP3    H139575   6.013   5.802  10.485 -0.2036 -0.2654  0.3751
 6028TIP3    H239576   5.871   5.796  10.433  0.3457 -0.1684 -1.1919
 6029TIP3   OH239577   0.762   6.665  10.502  0.4526 -0.8347  0.0912
 6029TIP3    H139578   0.685   6.646  10.555  0.7438 -0.6681  0.5898
 6029TIP3    H239579   0.729   6.707  10.423  0.2186  2.7996  1.9072
 6030TIP3   OH239580   6.352   0.376   5.572 -0.3950  0.4112  0.7435
 6030TIP3    H139581   6.354   0.368   5.667 -0.3193  1.1070  0.8085
 6030TIP3    H239582   6.442   0.355   5.544 -0.5355 -0.2592  0.7766
 6031TIP3   OH239583   5.033   6.190   6.477  0.0220 -0.5780  0.3819
 6031TIP3    H139584   4.945   6.164   6.452 -1.3506  2.0479  1.9562
 6031TIP3    H239585   5.062   6.249   6.407  0.7210 -1.7343 -0.3229
 6032TIP3   OH239586   1.866   1.626   3.894 -1.2231 -0.1353  0.0564
 6032TIP3    H139587   1.805   1.692   3.927 -0.4646  0.1916  0.8672
 6032TIP3    H239588   1.917   1.672   3.828 -1.2984 -0.1725 -0.0281
 6033TIP3   OH239589   5.153   2.829  16.674  0.1448  0.5716 -0.8378
 6033TIP3    H139590   5.233   2.777  16.680  0.8447  1.6383 -0.5377
 6033TIP3    H239591   5.093   2.776  16.621  0.4226 -1.0108  0.3458
 6034TIP3   OH239592   2.148   4.806  11.848  0.1524  0.1961  0.3863
 6034TIP3    H139593   2.213   4.756  11.896  0.0598 -1.8024 -1.4348
 6034TIP3    H239594   2.199   4.873  11.801  0.9964 -1.3829 -1.0656
 6035TIP3   OH239595   0.134   4.614   3.602  0.2214 -0.7865  0.3261
 6035TIP3    H139596   0.117   4.707   3.617 -1.6439 -1.2025  1.1410
 6035TIP3    H239597   0.174   4.583   3.684  0.6812 -0.7502  0.1193
 6036TIP3   OH239598   1.869   0.737   3.185  0.0188 -0.2112 -0.6527
 6036TIP3    H139599   1.875   0.679   3.108 -0.2238  0.7738 -1.4290
 6036TIP3    H239600   1.960   0.757   3.206  0.0855 -0.4481 -0.7078
 6037TIP3   OH239601   0.888   2.532   4.326 -0.5528  0.5334 -0.1187
 6037TIP3    H139602   0.870   2.497   4.413 -0.0650 -0.6785 -0.4942
 6037TIP3    H239603   0.805   2.572   4.298 -1.4209 -1.1422 -0.0488
 6038TIP3   OH239604   3.104   1.234   2.711  0.0922  0.4652  0.0593
 6038TIP3    H139605   3.177   1.284   2.747 -1.9748  3.4698  0.3873
 6038TIP3    H239606   3.069   1.187   2.787  1.4726 -0.8640 -0.0668
 6039TIP3   OH239607   6.333   5.659  14.651  0.1837 -0.3743 -0.1776
 6039TIP3    H139608   6.404   5.722  14.645 -0.5082  0.3478 -1.1673
 6039TIP3    H239609   6.342   5.620  14.738  0.2272  1.5610  0.7282
 6040TIP3   OH239610   2.669   4.573  14.557 -0.8109  0.4267 -0.3522
 6040TIP3    H139611   2.575   4.579  14.575 -1.0552 -0.2339 -1.3479
 6040TIP3    H239612   2.689   4.479  14.560 -0.2694  0.5273 -0.5882
 6041TIP3   OH239613   6.565   1.983  14.126  0.0040  0.2205 -0.0428
 6041TIP3    H139614   6.558   1.905  14.181  0.2790  0.9387  1.0417
 6041TIP3    H239615   6.522   1.959  14.044 -1.6438 -0.4336  0.9758
 6042TIP3   OH239616   2.848   4.407  11.571 -0.0668  0.1055  0.2909
 6042TIP3    H139617   2.812   4.348  11.637  0.6368  0.4029  0.9475
 6042TIP3    H239618   2.907   4.353  11.519  1.7655  0.5181  1.8401
 6043TIP3   OH239619   2.912   4.455   2.511 -0.7330 -0.0377 -0.1886
 6043TIP3    H139620   2.879   4.461   2.422 -0.1412 -2.4011 -0.6545
 6043TIP3    H239621   2.910   4.361   2.531 -0.0062  0.3315  1.9665
 6044TIP3   OH239622   2.188   1.106   1.525  0.0318  0.5522  0.3314
 6044TIP3    H139623   2.192   1.202   1.526  0.6418  0.5455  2.0358
 6044TIP3    H239624   2.217   1.082   1.438 -0.6043  1.9288 -0.3033
 6045TIP3   OH239625   6.636   0.683   5.748 -0.2483 -0.5616 -0.1937
 6045TIP3    H139626   6.646   0.601   5.796  0.4071  0.4242  1.4400
 6045TIP3    H239627   6.662   0.751   5.811 -0.7106  0.8965 -1.5161
 6046TIP3   OH239628   3.353   3.491   3.622 -0.3272  0.3066  0.3851
 6046TIP3    H139629   3.276   3.511   3.568 -0.1146 -0.8174 -0.3622
 6046TIP3    H239630   3.319   3.482   3.711 -1.1386 -0.5765 -0.0010
 6047TIP3   OH239631   1.247   1.298   5.436  0.3989  0.1377  0.4007
 6047TIP3    H139632   1.292   1.215   5.450 -0.0325 -0.4277 -1.2685
 6047TIP3    H239633   1.316   1.364   5.434  1.1506 -0.6454 -1.5831
 6048TIP3   OH239634   2.272   6.147   0.425 -0.1564  0.2731 -0.1583
 6048TIP3    H139635   2.193   6.095   0.438 -1.2929  2.3067  1.6635
 6048TIP3    H239636   2.314   6.149   0.511  1.8359 -0.5855 -1.0471
 6049TIP3   OH239637   1.789   4.785  14.387 -0.7867 -0.1657  0.6445
 6049TIP3    H139638   1.772   4.739  14.305 -0.4042  0.6336  0.0940
 6049TIP3    H239639   1.752   4.729  14.455  1.7350 -2.4523  0.2684
 6050TIP3   OH239640   1.914   3.039  13.917  0.1318 -0.1392  1.1530
 6050TIP3    H139641   1.932   2.989  13.838  0.2064  1.5313  0.0438
 6050TIP3    H239642   2.000   3.064  13.950  0.0877  0.4399  0.8607
 6051TIP3   OH239643   1.300   2.724  10.979  0.2615 -0.4721 -0.1450
 6051TIP3    H139644   1.255   2.648  10.942  1.2711 -0.8353 -0.6571
 6051TIP3    H239645   1.365   2.686  11.039 -0.2973  0.0585  0.8352
 6052TIP3   OH239646   4.584   3.049  17.007  0.5497 -0.2625 -0.3178
 6052TIP3    H139647   4.533   3.130  16.995 -0.2733 -0.8035 -0.6162
 6052TIP3    H239648   4.596   3.042  17.102  0.1017 -0.0953 -0.2431
 6053TIP3   OH239649   3.119   5.976  11.831 -0.1309  0.0927 -0.0314
 6053TIP3    H139650   3.097   5.944  11.744 -1.4376  0.5497  0.1039
 6053TIP3    H239651   3.123   5.898  11.886 -0.2345 -0.1147 -0.3197
 6054TIP3   OH239652   6.125   2.676  14.874 -0.2202 -0.2551 -0.2728
 6054TIP3    H139653   6.197   2.707  14.820 -0.0027 -2.2663 -1.2252
 6054TIP3    H239654   6.046   2.690  14.821 -0.1615 -0.9503 -0.5533
 6055TIP3   OH239655   1.555   0.393  14.101  0.6319  0.4705  0.2005
 6055TIP3    H139656   1.517   0.377  14.187 -1.9276  1.6102 -0.6272
 6055TIP3    H239657   1.645   0.421  14.119  0.2954  0.2395  2.4575
 6056TIP3   OH239658   4.436   6.530   3.789 -0.3146  0.2912  0.2236
 6056TIP3    H139659   4.459   6.490   3.704  0.7734  3.1283 -0.9382
 6056TIP3    H239660   4.372   6.597   3.767 -2.1297 -0.7214  2.1113
 6057TIP3   OH239661   3.906   1.117   6.122  0.0322 -0.5955  0.1122
 6057TIP3    H139662   3.977   1.177   6.100  0.8220 -1.0387  1.3337
 6057TIP3    H239663   3.855   1.109   6.042  2.8995 -2.3721 -1.7085
 6058TIP3   OH239664   4.294   1.777  16.339  0.4808 -0.2544  0.0133
 6058TIP3    H139665   4.262   1.697  16.298  1.4262 -1.2905  1.2116
 6058TIP3    H239666   4.373   1.800  16.290  2.0053 -1.8803  1.5688
 6059TIP3   OH239667   5.946   1.452   5.874 -0.0589  0.4181 -0.5083
 6059TIP3    H139668   6.019   1.464   5.935  0.6844  1.0127 -1.4896
 6059TIP3    H239669   5.957   1.520   5.809 -0.7870 -0.2595 -1.3736
 6060TIP3   OH239670   6.348   1.030  15.361  0.2850 -0.8850  0.1764
 6060TIP3    H139671   6.317   1.115  15.330  1.0528 -0.0586  1.5580
 6060TIP3    H239672   6.281   0.968  15.334 -1.6864  0.5506  1.4938
 6061TIP3   OH239673   6.369   2.725  11.485 -0.4807  0.4231 -0.4659
 6061TIP3    H139674   6.392   2.818  11.478 -2.6947  1.0593  0.1029
 6061TIP3    H239675   6.454   2.680  11.491  0.7090  2.2228 -2.3256
 6062TIP3   OH239676   0.805   6.261   2.949 -0.2440 -0.8073 -0.3715
 6062TIP3    H139677   0.780   6.281   2.859 -2.3302 -1.8952 -0.0779
 6062TIP3    H239678   0.742   6.308   3.003  1.1416  0.0360  0.5742
 6063TIP3   OH239679   0.244   4.576  14.698 -0.8866 -0.0403  0.0503
 6063TIP3    H139680   0.312   4.535  14.751  0.2696  0.5598 -0.9129
 6063TIP3    H239681   0.287   4.594  14.613 -1.7579  1.7541 -0.0697
 6064TIP3   OH239682   3.359   5.143  10.600 -0.3404 -0.1967  0.1696
 6064TIP3    H139683   3.317   5.079  10.542 -0.6638 -0.5597  0.7914
 6064TIP3    H239684   3.317   5.226  10.578  0.1667 -0.1743 -0.7275
 6065TIP3   OH239685   2.957   2.875  12.449 -0.2559 -0.7056 -0.5652
 6065TIP3    H139686   2.869   2.857  12.418 -0.0486 -1.3668 -0.7967
 6065TIP3    H239687   2.968   2.970  12.440 -1.5285 -0.3771  1.0407
 6066TIP3   OH239688   5.920   0.131  16.424  0.2375 -0.2542  0.0750
 6066TIP3    H139689   5.995   0.190  16.434  0.1134  0.1097 -0.9965
 6066TIP3    H239690   5.909   0.122  16.329 -1.5692  0.3511  0.1898
 6067TIP3   OH239691   4.486   6.341  17.155  0.1754 -0.8265 -0.8326
 6067TIP3    H139692   4.581   6.349  17.161  0.4681 -1.6946 -3.3176
 6067TIP3    H239693   4.452   6.418  17.202  2.0793 -0.2945 -0.2497
 6068TIP3   OH239694   4.692   5.406  13.476  0.2433  0.3093 -0.1148
 6068TIP3    H139695   4.680   5.495  13.443  0.0886  0.4789  0.3992
 6068TIP3    H239696   4.726   5.418  13.564  0.4151 -0.1452 -0.1187
 6069TIP3   OH239697   6.648   1.549  15.444 -0.4973 -0.4043 -0.0841
 6069TIP3    H139698   6.627   1.475  15.500  0.3116 -1.2294 -0.8411
 6069TIP3    H239699   6.646   1.513  15.355  0.2060  0.3958 -0.4395
 6070TIP3   OH239700   1.767   4.091  10.101  0.2774  0.4824 -0.1816
 6070TIP3    H139701   1.819   4.023  10.057  0.5470  1.5151 -1.5486
 6070TIP3    H239702   1.705   4.043  10.155  2.7179 -0.8331  1.6586
 6071TIP3   OH239703   6.213   5.925   5.547 -0.3043  0.4214 -0.6568
 6071TIP3    H139704   6.216   5.869   5.625 -0.2225 -0.0785 -1.0144
 6071TIP3    H239705   6.304   5.945   5.528 -0.4027  2.1988  0.5366
 6072TIP3   OH239706   2.795   5.934  11.657  0.0766 -0.5303 -0.0733
 6072TIP3    H139707   2.702   5.910  11.649 -0.3859  1.1836 -0.2250
 6072TIP3    H239708   2.793   6.026  11.683  1.7485 -0.6741  0.6279
 6073TIP3   OH239709   4.684   6.462  11.452  0.1345 -0.0873 -0.2806
 6073TIP3    H139710   4.643   6.391  11.502 -1.5334  0.7977 -0.3106
 6073TIP3    H239711   4.625   6.536  11.463  1.1698  0.9381 -1.3080
 6074TIP3   OH239712   2.741   5.772  11.139 -0.3075  1.2571 -0.0628
 6074TIP3    H139713   2.730   5.863  11.167 -2.0151  0.7156  1.1946
 6074TIP3    H239714   2.658   5.750  11.097 -0.8459 -0.3792  1.7054
 6075TIP3   OH239715   5.661   0.516   5.206 -0.3361  0.2277 -0.2101
 6075TIP3    H139716   5.641   0.519   5.300 -2.0151 -2.3225 -0.3886
 6075TIP3    H239717   5.755   0.502   5.202 -0.5224 -1.9812  1.2456
 6076TIP3   OH239718   3.385   0.729  15.393 -0.4316 -0.1699  0.1044
 6076TIP3    H139719   3.299   0.706  15.356 -1.3264 -0.1945  2.0666
 6076TIP3    H239720   3.393   0.673  15.471 -0.2356  2.2686  1.9612
 6077TIP3   OH239721   5.254   3.514  15.867  0.3110  0.1498  0.3478
 6077TIP3    H139722   5.315   3.440  15.858  0.9614  0.6176  0.7977
 6077TIP3    H239723   5.247   3.549  15.778  0.1698 -0.3192  0.1709
 6078TIP3   OH239724   0.180   1.427  11.613  0.0949 -0.4505  0.0255
 6078TIP3    H139725   0.123   1.426  11.536 -1.1422  0.0373  0.9064
 6078TIP3    H239726   0.169   1.514  11.650 -0.1239 -1.0140  1.3286
 6079TIP3   OH239727   6.402   2.282  13.616 -0.2270  0.1906 -0.1416
 6079TIP3    H139728   6.471   2.220  13.592  0.0095  0.1577  0.5911
 6079TIP3    H239729   6.396   2.341  13.542  1.0705  0.6047  0.0568
 6080TIP3   OH239730   5.513   2.216  15.763 -0.4069 -0.3050 -0.4472
 6080TIP3    H139731   5.495   2.152  15.694  1.0698 -1.3884  0.1213
 6080TIP3    H239732   5.574   2.278  15.723 -1.2175  0.3130 -0.7512
 6081TIP3   OH239733   4.990   4.195  15.690 -0.0248 -0.2490 -0.0389
 6081TIP3    H139734   5.022   4.139  15.761  1.2242 -0.5990 -0.8454
 6081TIP3    H239735   5.009   4.284  15.719  2.1657 -0.4570 -0.6644
 6082TIP3   OH239736   6.397   1.563   0.736  0.5839 -0.2348  0.5400
 6082TIP3    H139737   6.328   1.509   0.775  1.8528 -1.3456  1.3873
 6082TIP3    H239738   6.413   1.632   0.801 -1.4937  1.6684 -0.8349
 6083TIP3   OH239739   3.937   5.305   0.071 -0.0402  0.0564 -0.0776
 6083TIP3    H139740   3.966   5.219   0.040 -0.1549  0.5683 -1.6729
 6083TIP3    H239741   4.018   5.353   0.086  0.0880  0.9387 -2.9735
 6084TIP3   OH239742   3.167   5.572  13.692 -0.3161 -0.0694 -0.3804
 6084TIP3    H139743   3.224   5.614  13.756 -1.2349 -0.4632  0.7220
 6084TIP3    H239744   3.225   5.512  13.644  0.6352  1.1377 -0.7980
 6085TIP3   OH239745   3.695   3.605   0.903 -0.3538  0.3680  0.1070
 6085TIP3    H139746   3.662   3.656   0.977 -0.5211 -0.8777  0.9142
 6085TIP3    H239747   3.772   3.559   0.938 -0.0943  0.1999 -0.6624
 6086TIP3   OH239748   3.532   1.112  11.766 -0.0217 -0.2057  0.4146
 6086TIP3    H139749   3.497   1.154  11.687 -1.6421 -1.7922  0.2177
 6086TIP3    H239750   3.586   1.040  11.733  0.0882 -0.2793  0.7530
 6087TIP3   OH239751   3.397   4.457   1.725 -0.3491 -0.3743 -0.1274
 6087TIP3    H139752   3.354   4.374   1.701 -0.6276 -0.2628 -0.0174
 6087TIP3    H239753   3.448   4.481   1.647 -0.1971 -0.6948 -0.1283
 6088TIP3   OH239754   4.208   3.471   5.669 -0.2310 -0.2123  0.1903
 6088TIP3    H139755   4.130   3.476   5.614 -0.1754  1.9223  0.2076
 6088TIP3    H239756   4.180   3.511   5.752  0.6127 -0.2957  0.5203
 6089TIP3   OH239757   0.172   3.187   2.821 -0.1525 -0.0889 -0.4724
 6089TIP3    H139758   0.077   3.186   2.823 -0.1724 -2.0487  0.1058
 6089TIP3    H239759   0.198   3.146   2.904  1.2381  1.6379  0.0063
 6090TIP3   OH239760   3.465   2.340  16.451  0.3257 -0.0303  0.8086
 6090TIP3    H139761   3.439   2.393  16.375 -1.1911 -1.2694  0.3964
 6090TIP3    H239762   3.549   2.302  16.426 -0.1944 -0.4910 -0.3336
 6091TIP3   OH239763   3.369   1.007   5.738  0.1796 -0.3548 -0.4923
 6091TIP3    H139764   3.281   0.987   5.769  0.7317 -1.0532  0.6848
 6091TIP3    H239765   3.402   1.073   5.799  0.3257  0.2294 -1.1870
 6092TIP3   OH239766   1.057   0.659   2.909 -0.2548  0.0198  0.3201
 6092TIP3    H139767   1.150   0.644   2.925 -0.3299 -1.4705 -0.4265
 6092TIP3    H239768   1.043   0.750   2.932  1.5951  0.5520 -0.4358
 6093TIP3   OH239769   0.275   6.316  15.967 -0.0061 -0.2957 -0.0546
 6093TIP3    H139770   0.220   6.320  16.046  0.5891  2.7778  0.3130
 6093TIP3    H239771   0.212   6.324  15.894 -0.4404 -1.8772  0.1149
 6094TIP3   OH239772   6.647   3.321  12.530  0.1700  0.3508 -0.0173
 6094TIP3    H139773   6.569   3.266  12.535 -0.0021  0.6004  0.0563
 6094TIP3    H239774   6.695   3.301  12.611  0.7377 -0.6243 -0.5798
 6095TIP3   OH239775   5.358   1.331   0.094  0.2292  0.4858 -0.5214
 6095TIP3    H139776   5.291   1.275   0.054 -1.5862  1.4710  0.9967
 6095TIP3    H239777   5.431   1.328   0.032 -1.5931  0.2158 -2.8110
 6096TIP3   OH239778   4.872   3.083  14.137  0.2035 -0.5649  0.5050
 6096TIP3    H139779   4.821   3.010  14.172 -1.0821  0.2064  0.3142
 6096TIP3    H239780   4.844   3.159  14.187 -0.8739  0.3659 -1.4023
 6097TIP3   OH239781   5.753   4.164   4.638  0.2977  0.3773  0.7055
 6097TIP3    H139782   5.811   4.238   4.658  0.4228  1.6683 -3.6069
 6097TIP3    H239783   5.686   4.200   4.580  0.5920 -2.8493 -1.9447
 6098TIP3   OH239784   4.653   6.815  13.078  0.2906  0.2282 -0.5866
 6098TIP3    H139785   4.564   6.786  13.057  0.4350 -0.4787 -0.2535
 6098TIP3    H239786   4.648   6.845  13.169  0.1978  1.0434 -0.8521
 6099TIP3   OH239787   3.922   5.665   1.624 -0.1162 -0.0009  0.3500
 6099TIP3    H139788   3.970   5.748   1.628 -0.0485  0.1507 -2.1402
 6099TIP3    H239789   3.978   5.603   1.672  0.5925  1.0330  0.9125
 6100TIP3   OH239790   0.713   6.448  16.287  0.2480  0.2128  0.1371
 6100TIP3    H139791   0.739   6.507  16.358  2.2008 -0.3838 -0.0053
 6100TIP3    H239792   0.693   6.506  16.214  1.9028  0.7722  0.0738
 6101TIP3   OH239793   4.453   6.260  12.495 -0.4940 -0.2242 -0.1023
 6101TIP3    H139794   4.424   6.350  12.476 -0.0196 -0.0947 -0.2393
 6101TIP3    H239795   4.481   6.263  12.587 -2.6907 -0.8249  0.6435
 6102TIP3   OH239796   3.284   1.767   3.589 -0.5350 -0.4261 -0.1491
 6102TIP3    H139797   3.351   1.816   3.638 -1.1470 -1.9884  2.4550
 6102TIP3    H239798   3.324   1.683   3.569 -1.6979 -1.5239  1.7555
 6103TIP3   OH239799   4.050   6.153  16.901  0.3901 -0.2361  0.3555
 6103TIP3    H139800   4.057   6.169  16.995  0.8626  1.4149  0.0608
 6103TIP3    H239801   4.079   6.234  16.860  1.8522 -1.4949 -1.2649
 6104TIP3   OH239802   1.916   3.602   0.310 -0.0441 -0.0871  1.0113
 6104TIP3    H139803   1.986   3.620   0.372  0.4521  0.9491  0.1792
 6104TIP3    H239804   1.846   3.663   0.335 -0.3064 -0.4769  1.2566
 6105TIP3   OH239805   4.277   6.078  13.007  0.2879  0.5137  0.0295
 6105TIP3    H139806   4.263   6.172  13.011 -1.3216  0.3054  0.1854
 6105TIP3    H239807   4.323   6.063  12.924 -0.8018  1.3103 -0.7414
 6106TIP3   OH239808   2.233   5.657   2.686 -0.2152  0.1382 -0.3835
 6106TIP3    H139809   2.191   5.703   2.758 -1.6911 -0.4513 -0.8400
 6106TIP3    H239810   2.228   5.717   2.612  0.0152  0.1775 -0.3695
 6107TIP3   OH239811   1.241   6.022   5.804  0.2725 -0.5709 -0.7487
 6107TIP3    H139812   1.299   6.011   5.879 -0.1331  2.6658  0.2139
 6107TIP3    H239813   1.153   6.016   5.840  0.0703 -0.1757 -1.1548
 6108TIP3   OH239814   5.384   3.110   2.455  0.1504  0.1312 -0.1493
 6108TIP3    H139815   5.427   3.184   2.412  2.4398 -1.0564 -0.1077
 6108TIP3    H239816   5.384   3.132   2.548 -1.7763  1.2609 -0.3784
 6109TIP3   OH239817   2.920   6.158  11.953  0.3916 -0.2587 -0.4476
 6109TIP3    H139818   2.994   6.118  11.909 -0.4620 -0.6124 -1.6224
 6109TIP3    H239819   2.850   6.158  11.887 -0.3931  0.8348  0.3465
 6110TIP3   OH239820   5.175   4.708   6.287 -0.3575  0.0996 -0.0533
 6110TIP3    H139821   5.241   4.668   6.345 -0.4924 -1.1998 -0.7684
 6110TIP3    H239822   5.094   4.707   6.339 -0.3985 -0.7335 -0.1189
 6111TIP3   OH239823   1.997   5.495   6.386 -0.2055  1.2934  0.0491
 6111TIP3    H139824   1.907   5.469   6.407  0.0484  0.7961  0.5448
 6111TIP3    H239825   2.007   5.580   6.429  0.0852  0.5937  1.4450
 6112TIP3   OH239826   1.396   0.717  12.678 -0.0224  0.0766 -0.5998
 6112TIP3    H139827   1.395   0.808  12.708 -1.7316 -0.0058 -0.3117
 6112TIP3    H239828   1.409   0.665  12.757 -1.6384 -0.0135 -0.3605
 6113TIP3   OH239829   6.022   0.831   4.135 -0.0765  0.5514  0.1166
 6113TIP3    H139830   5.993   0.742   4.117  1.3799  0.0493  0.0968
 6113TIP3    H239831   6.051   0.829   4.226  0.6586  0.8035 -0.1053
 6114TIP3   OH239832   1.197   1.091   2.344  0.3126  0.4373  0.1059
 6114TIP3    H139833   1.200   1.027   2.415 -1.3255  0.8606  0.5901
 6114TIP3    H239834   1.205   1.176   2.388  1.4913  0.6352 -0.4443
 6115TIP3   OH239835   6.635   0.156   5.205  0.1019  0.0760 -0.2241
 6115TIP3    H139836   6.578   0.231   5.193 -0.9802 -1.0339 -2.6715
 6115TIP3    H239837   6.664   0.133   5.117  0.4255 -2.3466  0.4375
 6116TIP3   OH239838   5.002   3.631  12.980  0.4524  0.5721  0.2751
 6116TIP3    H139839   5.051   3.548  12.981  0.9211  0.8370 -0.1309
 6116TIP3    H239840   4.913   3.606  12.958  1.1201  0.4199 -2.5914
 6117TIP3   OH239841   5.284   0.476   5.351  0.2661  0.2190 -0.3449
 6117TIP3    H139842   5.275   0.517   5.438 -1.8919  0.5718 -0.6828
 6117TIP3    H239843   5.304   0.549   5.293  2.1201 -0.0726 -0.1349
 6118TIP3   OH239844   6.674   4.249   1.240  0.3554  0.2180  0.4434
 6118TIP3    H139845   6.707   4.258   1.330  0.3840 -0.0085  0.4575
 6118TIP3    H239846   6.649   4.157   1.234  1.0053  0.0674 -0.0050
 6119TIP3   OH239847   3.742   5.102  13.843  0.3092  0.8567 -0.1008
 6119TIP3    H139848   3.648   5.091  13.858 -0.0536  0.6688 -2.1586
 6119TIP3    H239849   3.782   5.029  13.890 -0.6043  0.7117  0.4791
 6120TIP3   OH239850   5.955   4.281   3.994 -0.2120 -0.1374  0.9621
 6120TIP3    H139851   5.992   4.202   3.954 -1.4162 -1.4749  2.3834
 6120TIP3    H239852   5.861   4.273   3.981 -0.5888 -0.2507  3.3431
 6121TIP3   OH239853   5.647   5.542  12.392 -0.2838 -0.8511  0.2100
 6121TIP3    H139854   5.652   5.455  12.432 -0.4072 -1.0584 -0.2178
 6121TIP3    H239855   5.595   5.529  12.313  1.1601 -0.7286 -0.7939
 6122TIP3   OH239856   0.844   4.632  11.976 -0.3367  0.1497 -0.4566
 6122TIP3    H139857   0.797   4.716  11.978  1.3193  1.1070  0.1865
 6122TIP3    H239858   0.800   4.578  12.042 -1.5415  0.4225 -1.0081
 6123TIP3   OH239859   1.329   1.059  11.936  0.1283  0.7555  0.3459
 6123TIP3    H139860   1.271   1.000  11.984  2.0671 -1.3602  0.2474
 6123TIP3    H239861   1.361   1.007  11.863  1.6364  2.0642  0.0141
 6124TIP3   OH239862   5.450   3.482  16.278 -0.5833 -0.1726  0.3404
 6124TIP3    H139863   5.462   3.425  16.202 -1.7000 -0.8222  0.6228
 6124TIP3    H239864   5.474   3.569  16.248 -0.0438 -0.5826 -0.4591
 6125TIP3   OH239865   2.578   4.580   3.163  0.4765  0.1332 -0.7219
 6125TIP3    H139866   2.590   4.562   3.256  2.4239  1.1849 -0.7251
 6125TIP3    H239867   2.519   4.510   3.133 -1.9051  0.9314  1.6745
 6126TIP3   OH239868   2.780   4.666   2.328 -0.4337 -0.0392  0.0626
 6126TIP3    H139869   2.865   4.697   2.361 -0.9994 -0.8557  2.4956
 6126TIP3    H239870   2.748   4.738   2.274  0.3875  1.7038  1.7524
 6127TIP3   OH239871   4.387   2.778  14.780  0.6404 -0.1647  0.4595
 6127TIP3    H139872   4.296   2.802  14.762  0.4425 -0.8129  0.5871
 6127TIP3    H239873   4.434   2.801  14.699  0.5868  1.2599  0.8047
 6128TIP3   OH239874   6.597   6.477   1.730 -0.6070  0.6016 -0.4721
 6128TIP3    H139875   6.549   6.524   1.798  1.3063 -0.2183  1.5512
 6128TIP3    H239876   6.672   6.532   1.710  0.9577 -0.8772  0.9972
 6129TIP3   OH239877   0.466   2.857   3.814 -1.1047  0.2400  0.0939
 6129TIP3    H139878   0.429   2.819   3.734 -0.7130 -2.5193  1.1252
 6129TIP3    H239879   0.560   2.861   3.797 -1.0955  0.3443  0.1670
 6130TIP3   OH239880   0.171   0.386  10.641 -0.6007  0.0675 -0.2534
 6130TIP3    H139881   0.198   0.399  10.732 -0.5802  1.8867 -0.4753
 6130TIP3    H239882   0.221   0.452  10.593  1.2355 -2.3886 -1.9736
 6131TIP3   OH239883   0.834   1.581  16.570  0.5014  0.2832  0.4865
 6131TIP3    H139884   0.904   1.619  16.515  0.8199  0.2705  0.8792
 6131TIP3    H239885   0.753   1.612  16.529  0.7309  0.2149 -0.0380
 6132TIP3   OH239886   2.520   1.664  16.469  0.2452 -0.1816 -0.7337
 6132TIP3    H139887   2.611   1.667  16.440  0.9732  3.1887  1.3220
 6132TIP3    H239888   2.513   1.582  16.517  2.3547 -0.3352 -0.5893
 6133TIP3   OH239889   4.702   2.224   5.962 -0.0633  0.4764 -0.0423
 6133TIP3    H139890   4.744   2.155   6.013 -0.0482 -0.2701 -1.0318
 6133TIP3    H239891   4.654   2.276   6.026  0.8676  0.2438  0.8709
 6134TIP3   OH239892   0.913   0.185   4.294  0.1961 -0.2623  0.7586
 6134TIP3    H139893   0.912   0.276   4.324  1.2915 -0.3114  1.0143
 6134TIP3    H239894   0.924   0.134   4.375  2.9898 -0.4137  0.3788
 6135TIP3   OH239895   4.490   3.014  14.343 -0.2967  0.0587 -0.1345
 6135TIP3    H139896   4.503   3.095  14.293  2.8728  0.6397  1.4154
 6135TIP3    H239897   4.406   3.027  14.388  0.3412  2.7448  0.4534
 6136TIP3   OH239898   2.385   5.624  11.016 -0.7234 -0.0256 -0.7686
 6136TIP3    H139899   2.338   5.560  11.070  1.5017 -0.5891  0.6491
 6136TIP3    H239900   2.379   5.706  11.066 -0.1428 -0.1250 -0.5294
 6137TIP3   OH239901   2.771   4.325   4.272 -0.8508  0.1825  0.0674
 6137TIP3    H139902   2.700   4.263   4.254 -0.0688 -0.3203 -1.4168
 6137TIP3    H239903   2.843   4.270   4.304 -0.2497  0.3389 -0.9795
 6138TIP3   OH239904   5.485   2.567  11.449  0.6689  0.0858 -0.1125
 6138TIP3    H139905   5.507   2.582  11.541 -1.9355 -1.4981  0.8854
 6138TIP3    H239906   5.507   2.475  11.434  0.0668  0.0370 -0.7338
 6139TIP3   OH239907   2.863   3.462  15.107  0.0118  0.4642 -0.0508
 6139TIP3    H139908   2.855   3.380  15.058  0.3363  0.5317 -0.2206
 6139TIP3    H239909   2.809   3.449  15.185  0.1345  0.0504 -0.0304
 6140TIP3   OH239910   0.343   5.212   2.112 -0.5057  0.1022  0.7033
 6140TIP3    H139911   0.300   5.158   2.178  0.7422 -2.5974 -0.5260
 6140TIP3    H239912   0.287   5.203   2.035  1.8177 -3.2392 -0.8347
 6141TIP3   OH239913   6.058   2.753   3.356 -0.7960 -0.1182 -0.0153
 6141TIP3    H139914   5.980   2.724   3.403 -1.5438 -0.3559 -1.3595
 6141TIP3    H239915   6.131   2.723   3.410 -1.6213 -0.4471  0.9452
 6142TIP3   OH239916   0.160   4.815   1.456  0.1266 -0.4144 -0.1744
 6142TIP3    H139917   0.164   4.901   1.412  0.7784 -0.3459  0.0132
 6142TIP3    H239918   0.232   4.766   1.418  0.0228 -0.7338  0.0422
 6143TIP3   OH239919   1.477   0.672   0.843  0.6338  0.1817  0.1419
 6143TIP3    H139920   1.455   0.742   0.782 -2.8836 -1.6888 -1.0095
 6143TIP3    H239921   1.408   0.675   0.909  0.6425 -1.8412  0.3110
 6144TIP3   OH239922   5.428   2.793  16.345 -0.1005  0.2733 -0.4019
 6144TIP3    H139923   5.348   2.748  16.318 -0.0858 -0.6163  0.9234
 6144TIP3    H239924   5.397   2.860  16.406  0.0317  1.0335 -1.1522
 6145TIP3   OH239925   6.304   3.336  14.951 -0.0940  0.3420 -0.7256
 6145TIP3    H139926   6.242   3.351  15.023  0.0077  1.0051 -0.7639
 6145TIP3    H239927   6.354   3.418  14.946  1.7896 -0.6925  0.2643
 6146TIP3   OH239928   2.323   1.598  12.018  0.2394  0.2084  0.4539
 6146TIP3    H139929   2.284   1.677  12.055 -0.2051  0.1126  0.1926
 6146TIP3    H239930   2.358   1.627  11.934  1.1426  0.3981  0.8784
 6147TIP3   OH239931   1.889   4.105  17.064 -0.0373 -0.6356  0.7846
 6147TIP3    H139932   1.862   4.157  17.139  1.2029  1.4158 -0.1137
 6147TIP3    H239933   1.913   4.020  17.101 -1.7981 -0.5357  2.3407
 6148TIP3   OH239934   1.883   4.578  13.055 -0.2918 -0.5523 -0.0201
 6148TIP3    H139935   1.836   4.500  13.026 -0.7550 -0.6221  0.8845
 6148TIP3    H239936   1.814   4.636  13.088 -0.2230  1.0929 -2.4653
 6149TIP3   OH239937   4.011   5.322  15.156 -0.3774 -0.8067  0.5750
 6149TIP3    H139938   4.014   5.370  15.239 -1.2662  0.7006 -0.2300
 6149TIP3    H239939   3.961   5.378  15.097 -0.7839 -2.3878 -0.6547
 6150TIP3   OH239940   4.478   2.047  15.739 -0.1614  0.6012  0.2838
 6150TIP3    H139941   4.555   2.086  15.698  0.0638  1.5941  1.5862
 6150TIP3    H239942   4.427   2.122  15.771 -1.3733 -0.0639 -0.0228
 6151TIP3   OH239943   4.131   6.587   3.114 -0.2060 -0.2298  0.0510
 6151TIP3    H139944   4.073   6.532   3.168 -0.4239 -0.2757 -0.2273
 6151TIP3    H239945   4.168   6.526   3.050 -2.1414  0.3073 -1.6846
 6152TIP3   OH239946   6.648   1.005   0.658  0.4254 -0.2869  0.2503
 6152TIP3    H139947   6.638   0.977   0.567  1.3411  0.7486 -0.2008
 6152TIP3    H239948   6.629   0.927   0.709  0.2411 -0.9892 -0.8398
 6153TIP3   OH239949   0.373   0.289  15.210 -0.1081 -0.3295  0.1545
 6153TIP3    H139950   0.375   0.202  15.250  0.9330  0.9381  3.1869
 6153TIP3    H239951   0.288   0.325  15.235  0.6992  0.6162  1.7258
 6154TIP3   OH239952   6.169   1.124   5.250  0.4235 -0.2747 -0.1580
 6154TIP3    H139953   6.258   1.134   5.283  0.2935  0.4182  0.0007
 6154TIP3    H239954   6.146   1.210   5.215  0.3245 -0.8339 -1.4933
 6155TIP3   OH239955   4.573   5.128  13.613  0.1631  0.2367  0.1112
 6155TIP3    H139956   4.647   5.180  13.581 -0.2883  1.2437  0.6353
 6155TIP3    H239957   4.496   5.174  13.579 -0.2349 -0.4558  0.0707
 6156TIP3   OH239958   5.430   0.549  12.625  0.5588  0.7213  0.0808
 6156TIP3    H139959   5.378   0.475  12.658  0.4813  1.5593  1.9557
 6156TIP3    H239960   5.377   0.586  12.554  0.4631 -0.8181 -0.6898
 6157TIP3   OH239961   1.735   5.431   1.851 -0.1201  0.0723 -0.4981
 6157TIP3    H139962   1.810   5.394   1.804 -0.3621  1.3318 -1.9571
 6157TIP3    H239963   1.676   5.462   1.782 -0.6635  1.6800  0.6319
 6158TIP3   OH239964   3.468   0.025   4.402  0.5304 -0.0490 -0.6254
 6158TIP3    H139965   3.446   0.116   4.426  2.4081  0.6404 -1.3121
 6158TIP3    H239966   3.415   0.008   4.324 -2.1342 -0.6842  1.1923
 6159TIP3   OH239967   1.553   1.763  13.260  0.0861  0.2284  0.3816
 6159TIP3    H139968   1.506   1.733  13.338  1.0764  0.7815  1.2253
 6159TIP3    H239969   1.512   1.717  13.187  0.7556 -2.2217  1.4736
 6160TIP3   OH239970   2.866   2.321   4.520  0.4694  0.0307 -0.8041
 6160TIP3    H139971   2.844   2.260   4.449 -0.1125 -0.3235 -0.3348
 6160TIP3    H239972   2.809   2.294   4.593  1.6012 -0.1235  0.0576
 6161TIP3   OH239973   2.761   1.701  16.372  1.2205  0.2476  0.0149
 6161TIP3    H139974   2.824   1.631  16.353  0.1271 -0.1246 -2.5169
 6161TIP3    H239975   2.816   1.779  16.381  2.1207  0.1409 -3.1828
 6162TIP3   OH239976   2.586   1.959   5.932  0.2846  0.0372  0.7986
 6162TIP3    H139977   2.681   1.975   5.935  0.4272 -0.0963 -1.3843
 6162TIP3    H239978   2.547   2.047   5.938  0.6825  0.3597 -0.7745
 6163TIP3   OH239979   4.073   4.997  16.234 -0.0348  0.3867 -0.2799
 6163TIP3    H139980   4.039   5.079  16.270  0.6409  1.7653 -2.5453
 6163TIP3    H239981   4.084   4.940  16.310 -0.8402  2.2701  1.3420
 6164TIP3   OH239982   1.156   3.530  16.873  0.1773  0.3022 -0.7039
 6164TIP3    H139983   1.244   3.549  16.906 -0.1518 -3.6510  3.3792
 6164TIP3    H239984   1.097   3.573  16.935 -0.7927  0.8961 -1.9897
 6165TIP3   OH239985   5.252   0.838   1.524  0.0203  0.1294  0.2402
 6165TIP3    H139986   5.345   0.819   1.514 -0.1250 -0.1364 -0.6329
 6165TIP3    H239987   5.243   0.861   1.617  1.1691  1.4131  0.0684
 6166TIP3   OH239988   3.279   4.554  11.064  0.3197 -0.2154  0.2543
 6166TIP3    H139989   3.331   4.633  11.083  0.7119 -0.4650  0.2257
 6166TIP3    H239990   3.328   4.483  11.105 -1.1937 -0.1814  2.2671
 6167TIP3   OH239991   1.009   3.309  13.438 -0.0360  0.5289  0.1568
 6167TIP3    H139992   1.081   3.288  13.497  0.5228  2.3060  0.1817
 6167TIP3    H239993   1.051   3.323  13.353 -0.5451  0.1849 -0.1587
 6168TIP3   OH239994   0.435   4.180  12.117 -0.4147  0.2853 -0.3123
 6168TIP3    H139995   0.367   4.128  12.074  0.3251 -1.5857  0.6938
 6168TIP3    H239996   0.460   4.245  12.051 -0.8180 -1.1226 -1.9249
 6169TIP3   OH239997   3.075   0.783  12.063  0.0621 -0.1530 -0.5057
 6169TIP3    H139998   3.030   0.710  12.020 -0.2611 -0.6079  0.5660
 6169TIP3    H239999   3.106   0.747  12.146  2.1511  0.2519 -1.0728
 6170TIP3   OH240000   5.853   6.378   2.696 -0.1231  0.1701  0.1731
 6170TIP3    H140001   5.946   6.398   2.686  0.6069 -3.4797 -2.3614
 6170TIP3    H240002   5.845   6.349   2.787  0.5900  2.6736  1.1217
 6171TIP3   OH240003   3.759   1.367   5.721  1.0359 -0.0187  0.6552
 6171TIP3    H140004   3.807   1.444   5.692  0.6504 -0.1903 -0.5321
 6171TIP3    H240005   3.729   1.326   5.639 -0.7200 -0.1696  1.3369
 6172TIP3   OH240006   1.253   4.956   9.834  0.0693  0.1231 -0.3066
 6172TIP3    H140007   1.347   4.949   9.822  0.1032  0.6615 -0.3439
 6172TIP3    H240008   1.234   4.897   9.907  0.2020 -1.2827 -1.3388
 6173TIP3   OH240009   0.801   1.004   0.624 -0.2766  0.0165 -0.4087
 6173TIP3    H140010   0.788   1.035   0.534 -1.0715  1.2736  0.1043
 6173TIP3    H240011   0.843   1.078   0.668  1.4244 -1.0940 -0.0549
 6174TIP3   OH240012   4.542   2.376  10.303 -0.7913 -0.0305 -0.1703
 6174TIP3    H140013   4.537   2.437  10.377  1.4245  0.3697 -0.2976
 6174TIP3    H240014   4.531   2.290  10.343 -2.5197  0.3083  0.1951
 6175TIP3   OH240015   6.705   5.733   4.756 -0.3831 -0.5322  0.3658
 6175TIP3    H140016   6.709   5.813   4.808 -0.2345 -0.7308  0.6580
 6175TIP3    H240017   6.782   5.683   4.781  1.9322  1.0680 -2.8690
 6176TIP3   OH240018   5.434   4.717   3.886  0.1575 -0.2118  0.2047
 6176TIP3    H140019   5.494   4.726   3.960 -1.0355 -1.4998  1.3806
 6176TIP3    H240020   5.492   4.704   3.810  1.3794 -0.5612  1.1590
 6177TIP3   OH240021   2.492   5.690   6.190 -0.3502 -0.1951 -0.0935
 6177TIP3    H140022   2.519   5.659   6.104 -2.0267 -1.5105 -0.1948
 6177TIP3    H240023   2.572   5.723   6.230  0.7222 -0.8741 -1.5963
 6178TIP3   OH240024   0.348   3.578  16.717 -0.5512  0.0895 -0.4854
 6178TIP3    H140025   0.401   3.610  16.790 -0.9613 -1.9975  0.7845
 6178TIP3    H240026   0.387   3.494  16.694 -0.4063  0.7045 -2.7572
 6179TIP3   OH240027   3.957   5.084  15.237  1.1094 -0.3862  0.2915
 6179TIP3    H140028   3.990   5.172  15.223  0.2880 -0.1546 -0.3128
 6179TIP3    H240029   3.987   5.060  15.325 -1.9890  2.0637  2.2295
 6180TIP3   OH240030   2.224   3.919   2.675  0.2392 -0.0010  0.4411
 6180TIP3    H140031   2.266   3.868   2.606  0.2791 -0.7333  0.9946
 6180TIP3    H240032   2.251   3.876   2.756  3.0357  2.8326  1.2232
 6181TIP3   OH240033   6.097   0.824   6.181  0.1276 -0.4970 -0.1537
 6181TIP3    H140034   6.160   0.807   6.112  2.4933 -0.2819  1.8246
 6181TIP3    H240035   6.091   0.741   6.229 -0.2644 -0.1913  0.3396
 6182TIP3   OH240036   4.278   2.888  15.104  0.0030 -0.3297 -0.4302
 6182TIP3    H140037   4.226   2.810  15.122 -0.8003  0.2759 -0.1061
 6182TIP3    H240038   4.364   2.854  15.080 -0.4133 -1.3212 -0.5402
 6183TIP3   OH240039   1.833   6.541   3.126  0.2402  0.1942 -0.4581
 6183TIP3    H140040   1.783   6.468   3.090  1.7627 -0.7065 -0.8227
 6183TIP3    H240041   1.886   6.502   3.195 -1.8406  1.6955  2.1876
 6184TIP3   OH240042   0.500   4.880   0.357  0.3679  0.5354  0.0101
 6184TIP3    H140043   0.487   4.971   0.331 -1.1914 -0.0613 -1.4644
 6184TIP3    H240044   0.475   4.878   0.450 -2.7284  1.0682 -0.6976
 6185TIP3   OH240045   0.454   3.203   0.663  0.3805  0.5261  0.7716
 6185TIP3    H140046   0.410   3.278   0.704  0.1381  0.4742  0.6119
 6185TIP3    H240047   0.399   3.182   0.588  0.8411  0.6430  0.3971
 6186TIP3   OH240048   0.665   2.982   5.209  0.0398 -0.6775  0.2101
 6186TIP3    H140049   0.717   3.063   5.209 -3.0762  1.5324  0.6773
 6186TIP3    H240050   0.702   2.929   5.139  1.8456  1.4344 -0.5528
 6187TIP3   OH240051   2.890   6.226   0.816 -0.3458 -0.2065  0.0945
 6187TIP3    H140052   2.824   6.170   0.777 -1.8052  2.0629 -0.8944
 6187TIP3    H240053   2.921   6.281   0.743  0.7335  0.5344  1.0763
 6188TIP3   OH240054   5.523   3.409   0.181 -0.2324  0.0309 -0.1418
 6188TIP3    H140055   5.452   3.368   0.132 -1.2520 -0.0076  1.3306
 6188TIP3    H240056   5.533   3.355   0.259  0.0408  1.1974  0.6487
 6189TIP3   OH240057   4.079   2.344   4.905 -0.0992  0.2004 -0.7098
 6189TIP3    H140058   4.114   2.406   4.841 -0.4368 -0.5481 -1.6452
 6189TIP3    H240059   4.038   2.399   4.972 -0.7719  0.9925 -1.7330
 6190TIP3   OH240060   1.433   1.643  12.071  0.5033  0.4298 -0.5100
 6190TIP3    H140061   1.361   1.692  12.031  0.9690  1.0384 -0.6134
 6190TIP3    H240062   1.482   1.608  11.996 -0.7192 -1.5768 -0.4547
 6191TIP3   OH240063   6.623   3.400  15.853 -0.4923 -0.0210 -0.3251
 6191TIP3    H140064   6.608   3.430  15.942 -0.0758  0.5948 -0.4592
 6191TIP3    H240065   6.632   3.305  15.861  3.6076  0.3109  0.9028
 6192TIP3   OH240066   5.750   6.766   0.824 -0.1016  0.0849  0.4677
 6192TIP3    H140067   5.664   6.739   0.790 -0.3497  0.4389  0.8138
 6192TIP3    H240068   5.794   6.805   0.748  0.2811 -1.3196 -0.0520
 6193TIP3   OH240069   4.381   6.275   5.189  0.1210  0.0519  0.3172
 6193TIP3    H140070   4.400   6.216   5.261  1.2592 -0.0678 -0.0616
 6193TIP3    H240071   4.347   6.218   5.120  1.5997 -0.2549 -0.1932
 6194TIP3   OH240072   4.445   4.279   4.441 -0.6158  0.3605 -0.1055
 6194TIP3    H140073   4.379   4.231   4.491  0.5657 -1.2028  0.0232
 6194TIP3    H240074   4.519   4.219   4.434  0.1485  1.4063 -1.7410
 6195TIP3   OH240075   6.395   1.953  12.653 -0.3739 -0.1918 -0.1272
 6195TIP3    H140076   6.341   1.906  12.589 -1.0883 -0.2826  0.5249
 6195TIP3    H240077   6.362   2.043  12.651 -0.6011 -0.2591  0.3101
 6196TIP3   OH240078   1.961   0.141   0.241  0.0293  0.3209  0.2680
 6196TIP3    H140079   1.997   0.057   0.214  1.3801  0.0653  2.6357
 6196TIP3    H240080   1.916   0.123   0.323 -1.6936  1.5167 -0.3482
 6197TIP3   OH240081   4.910   3.169   4.224 -0.2540 -0.5865  0.4610
 6197TIP3    H140082   4.864   3.174   4.140 -1.9035  1.3741  1.3946
 6197TIP3    H240083   4.892   3.080   4.256 -2.1098 -0.3925  0.0698
 6198TIP3   OH240084   6.376   6.297  13.330  0.8844  0.6369 -0.1119
 6198TIP3    H140085   6.350   6.388  13.344  0.5957  0.4136  0.8809
 6198TIP3    H240086   6.412   6.270  13.415  0.0414 -0.4750 -0.0921
 6199TIP3   OH240087   1.797   3.322  13.825 -0.6544  0.5313 -0.3177
 6199TIP3    H140088   1.736   3.271  13.878 -0.7923 -1.3383 -2.1102
 6199TIP3    H240089   1.863   3.258  13.797 -1.3321  1.0173 -3.4439
 6200TIP3   OH240090   5.814   1.408  10.567  0.2467  0.0867 -0.1729
 6200TIP3    H140091   5.900   1.368  10.581  0.1088  0.0580  0.6163
 6200TIP3    H240092   5.828   1.501  10.582  0.1909  0.1127 -0.2805
 6201TIP3   OH240093   2.934   1.282  12.382 -0.0518  0.0839 -0.4321
 6201TIP3    H140094   2.878   1.319  12.314 -1.9546  0.8987  1.4483
 6201TIP3    H240095   2.959   1.196  12.349  0.2229  0.9782 -2.6941
 6202TIP3   OH240096   6.194   4.359  12.713 -0.2593 -0.3866 -0.2723
 6202TIP3    H140097   6.170   4.276  12.672 -1.0142 -0.1376 -0.3571
 6202TIP3    H240098   6.173   4.347  12.806  0.5395 -0.6149 -0.1108
 6203TIP3   OH240099   4.576   5.541  12.030  0.3046  0.5621  0.6455
 6203TIP3    H140100   4.524   5.554  11.950 -1.8014 -0.5945  1.7424
 6203TIP3    H240101   4.601   5.630  12.055  0.2563  1.0247 -0.8041
 6204TIP3   OH240102   5.119   1.150   0.368 -0.4845 -0.4025  0.0170
 6204TIP3    H140103   5.163   1.214   0.425 -2.6943  0.0367  1.3571
 6204TIP3    H240104   5.036   1.192   0.346 -1.5007 -2.3631 -0.0270
 6205TIP3   OH240105   3.542   1.479   5.862 -0.6707 -0.5674 -0.3130
 6205TIP3    H140106   3.508   1.547   5.805 -0.7867 -0.3405  0.0204
 6205TIP3    H240107   3.629   1.460   5.829  0.3619  1.4655  1.0332
 6206TIP3   OH240108   6.067   6.423  14.472  0.0646  0.0761  0.5088
 6206TIP3    H140109   6.159   6.397  14.480 -0.0227 -0.5123 -0.2716
 6206TIP3    H240110   6.031   6.362  14.409 -0.7368  0.6453  0.4067
 6207TIP3   OH240111   4.380   5.913  15.113  0.1303 -0.1755 -0.0561
 6207TIP3    H140112   4.398   5.957  15.195 -0.1509 -0.0304 -0.0694
 6207TIP3    H240113   4.407   5.822  15.128  0.8185  0.0251 -0.0695
 6208TIP3   OH240114   0.607   4.389  14.001  0.7223 -0.3570  0.0818
 6208TIP3    H140115   0.576   4.309  13.959  2.3222 -0.0222 -1.8974
 6208TIP3    H240116   0.576   4.460  13.945 -0.1632  0.4279  1.4809
 6209TIP3   OH240117   0.543   3.798  15.459 -0.1876 -0.5038  0.1387
 6209TIP3    H140118   0.495   3.789  15.542  1.9118  1.5243  1.6760
 6209TIP3    H240119   0.623   3.748  15.472  0.0029 -0.4735 -0.8464
 6210TIP3   OH240120   6.118   4.972   6.172  0.0154  0.0501  0.4575
 6210TIP3    H140121   6.210   4.956   6.195 -0.2015 -2.4925 -0.1432
 6210TIP3    H240122   6.097   5.056   6.212  2.5916  0.6946  0.6275
 6211TIP3   OH240123   6.086   3.699   1.721  0.1904 -0.0596 -0.0187
 6211TIP3    H140124   6.173   3.669   1.694  0.5953  0.0150  1.1317
 6211TIP3    H240125   6.061   3.762   1.654  0.9179 -0.2640 -0.4996
 6212TIP3   OH240126   5.765   1.973  14.632  0.1670  0.2602  0.3140
 6212TIP3    H140127   5.820   1.899  14.656  3.0306  2.0462 -0.2605
 6212TIP3    H240128   5.818   2.023  14.569 -2.7374  1.3832 -1.4359
 6213TIP3   OH240129   6.815   1.276   2.264 -0.5686 -0.1613 -0.4151
 6213TIP3    H140130   6.853   1.238   2.344  0.2439  0.9334 -0.2608
 6213TIP3    H240131   6.776   1.359   2.292 -0.7441 -0.0180 -1.0630
 6214TIP3   OH240132   5.020   0.707  14.391 -0.0333 -0.8095 -0.4479
 6214TIP3    H140133   4.972   0.765  14.449  1.9049 -0.6541  1.1114
 6214TIP3    H240134   5.068   0.765  14.333  1.0224 -0.8356  0.3681
 6215TIP3   OH240135   6.702   1.269   5.583  0.3453  0.1733 -0.4382
 6215TIP3    H140136   6.656   1.186   5.570  0.5106  0.0166 -0.0529
 6215TIP3    H240137   6.682   1.293   5.673  2.2301 -0.6836  0.2636
 6216TIP3   OH240138   3.566   6.736   3.301 -0.1775 -0.7842  0.4071
 6216TIP3    H140139   3.516   6.662   3.338 -0.3034 -0.6873  0.4311
 6216TIP3    H240140   3.635   6.753   3.365  0.1510 -1.1988  0.1706
 6217TIP3   OH240141   2.842   3.869  10.332 -0.5720 -0.1156 -0.5620
 6217TIP3    H140142   2.898   3.850  10.256 -1.0784  1.0365 -1.2439
 6217TIP3    H240143   2.823   3.783  10.369 -0.1235 -0.6849 -1.5965
 6218TIP3   OH240144   2.253   1.902  12.871  0.2682  0.3652 -0.2388
 6218TIP3    H140145   2.188   1.876  12.806 -1.4237  2.4489  0.5213
 6218TIP3    H240146   2.335   1.911  12.821 -0.3181 -0.8764 -1.4881
 6219TIP3   OH240147   4.440   3.444  14.296 -0.7532  0.6285  0.1709
 6219TIP3    H140148   4.505   3.487  14.241  1.4288 -2.0316  0.4530
 6219TIP3    H240149   4.387   3.393  14.234 -1.0844  1.0158  0.1389
 6220TIP3   OH240150   6.825   1.803  16.920 -0.0759  0.0732 -0.1598
 6220TIP3    H140151   6.899   1.830  16.865  0.4141  0.7734  0.8219
 6220TIP3    H240152   6.864   1.751  16.990 -0.8369 -1.9252 -1.1390
 6221TIP3   OH240153   2.645   4.649  16.884  0.2240 -0.0977  0.4223
 6221TIP3    H140154   2.664   4.620  16.795  2.3028 -1.8321  1.3340
 6221TIP3    H240155   2.597   4.576  16.923  0.6940 -0.0241  1.1579
 6222TIP3   OH240156   0.930   5.412   3.493  0.4747 -0.1189 -0.0516
 6222TIP3    H140157   0.941   5.327   3.450 -2.7641 -0.1921 -1.0278
 6222TIP3    H240158   0.965   5.475   3.431  0.1760 -0.5680 -0.6953
 6223TIP3   OH240159   4.534   2.206  11.828 -0.8352  0.4222 -0.1510
 6223TIP3    H140160   4.506   2.293  11.854 -0.0410  1.0178 -1.1952
 6223TIP3    H240161   4.462   2.148  11.855 -0.9754  1.2523  1.3667
 6224TIP3   OH240162   6.573   5.371   1.142 -0.5625 -0.6931 -0.0471
 6224TIP3    H140163   6.598   5.309   1.074  1.9556 -1.0598  1.0862
 6224TIP3    H240164   6.539   5.317   1.213  0.1870 -0.6794  0.3384
 6225TIP3   OH240165   5.198   0.772   6.221 -0.2991  0.2448  0.1149
 6225TIP3    H140166   5.135   0.776   6.293  0.9376  1.2903  1.1814
 6225TIP3    H240167   5.260   0.843   6.239  0.2896  0.2660 -1.7621
 6226TIP3   OH240168   5.027   2.285  13.137  0.1972 -0.3311  0.1034
 6226TIP3    H140169   5.025   2.223  13.210 -1.1008 -1.1867 -0.6196
 6226TIP3    H240170   5.079   2.241  13.070 -0.2016 -0.3694 -0.1822
 6227TIP3   OH240171   1.132   5.815  13.892 -0.3992  0.0264 -0.0643
 6227TIP3    H140172   1.084   5.856  13.820 -1.2740  0.9159  0.9621
 6227TIP3    H240173   1.212   5.782  13.853 -1.1323 -0.0678 -1.5495
 6228TIP3   OH240174   2.832   6.465  15.566  0.4128  0.3355  0.5649
 6228TIP3    H140175   2.747   6.505  15.546 -0.5426 -0.7818  2.1382
 6228TIP3    H240176   2.832   6.384  15.516  1.8157  1.6245 -1.6484
 6229TIP3   OH240177   4.522   4.978  14.571 -0.6146 -0.0693 -0.0495
 6229TIP3    H140178   4.504   4.905  14.630 -0.3651  1.4418  2.0457
 6229TIP3    H240179   4.438   5.024  14.565 -0.2232  0.7834  0.6616
 6230TIP3   OH240180   4.299   5.935   3.665 -0.0832 -0.3682 -0.5556
 6230TIP3    H140181   4.247   5.960   3.741  0.5338 -2.3123  0.5687
 6230TIP3    H240182   4.249   5.864   3.624  0.5223 -0.6304 -0.8476
 6231TIP3   OH240183   4.629   4.643   0.271 -0.6269 -0.0136  0.1682
 6231TIP3    H140184   4.644   4.599   0.188  1.2056 -0.8751  0.8962
 6231TIP3    H240185   4.537   4.624   0.292 -0.9717 -0.1730 -1.4039
 6232TIP3   OH240186   4.974   1.442   4.492  0.2015  0.3496  0.0677
 6232TIP3    H140187   5.014   1.513   4.542  0.5798  1.7228 -2.0554
 6232TIP3    H240188   4.892   1.424   4.538  0.9078  0.9519  1.6404
 6233TIP3   OH240189   2.627   4.344   2.920  0.3045  0.1275 -0.2589
 6233TIP3    H140190   2.722   4.341   2.920  0.2916 -1.2011  0.5575
 6233TIP3    H240191   2.601   4.273   2.978 -1.1657  1.5513  0.9073
 6234TIP3   OH240192   0.124   2.678   1.620 -0.3994  0.3546 -0.1900
 6234TIP3    H140193   0.139   2.583   1.624  1.4100  0.5416 -1.4295
 6234TIP3    H240194   0.131   2.699   1.527 -1.0794  1.6870  0.0339
 6235TIP3   OH240195   0.411   1.879  17.046  0.3795 -0.4826 -0.6518
 6235TIP3    H140196   0.498   1.917  17.046  0.0393  0.5063  2.2294
 6235TIP3    H240197   0.418   1.801  17.101 -0.2779 -1.1554 -1.4886
 6236TIP3   OH240198   4.294   5.950   2.698 -0.3574 -0.3966  0.2261
 6236TIP3    H140199   4.251   5.885   2.642 -0.4305 -0.6991  0.6279
 6236TIP3    H240200   4.387   5.940   2.680 -0.3841 -0.4401  0.1082
 6237TIP3   OH240201   1.489   0.914   1.295  0.1033 -0.0961  0.1843
 6237TIP3    H140202   1.542   0.943   1.369  1.0416 -1.3460  0.0458
 6237TIP3    H240203   1.399   0.918   1.327  0.3072  1.4378  0.6540
 6238TIP3   OH240204   1.910   5.048   6.120  0.1234 -0.1243 -0.3709
 6238TIP3    H140205   1.878   5.107   6.189 -1.0462 -0.0220 -0.9725
 6238TIP3    H240206   1.926   4.965   6.165 -0.3969  0.0116  0.0828
 6239TIP3   OH240207   1.681   6.663   3.562 -0.2244 -0.4222  0.4000
 6239TIP3    H140208   1.690   6.570   3.544  0.2842 -0.2460 -0.2854
 6239TIP3    H240209   1.768   6.699   3.546 -0.9698  0.5690 -1.7534
 6240TIP3   OH240210   4.433   5.057  13.316  0.0897  0.1400  0.4032
 6240TIP3    H140211   4.514   5.043  13.268  0.6238  0.4951  1.1854
 6240TIP3    H240212   4.417   4.973  13.360 -0.6080 -0.3164 -0.6611
 6241TIP3   OH240213   2.500   4.430  16.988 -0.2255 -0.8583  0.3158
 6241TIP3    H140214   2.457   4.367  17.046 -1.7088 -0.8479 -0.7085
 6241TIP3    H240215   2.542   4.376  16.922 -0.5085 -0.8153  0.0982
 6242TIP3   OH240216   0.607   6.391   3.065  0.6486 -0.2128 -0.1147
 6242TIP3    H140217   0.557   6.421   3.141  0.3262 -0.7806 -0.0944
 6242TIP3    H240218   0.624   6.470   3.015  0.7716  0.1549  0.4945
 6243TIP3   OH240219   4.027   6.242  10.877  0.1501 -0.3790 -0.7591
 6243TIP3    H140220   4.063   6.280  10.797  1.9406  3.5551  1.6110
 6243TIP3    H240221   3.934   6.268  10.877  0.3060  0.1942 -1.2787
 6244TIP3   OH240222   0.212   6.683   5.698  0.0199 -0.3454  0.0348
 6244TIP3    H140223   0.233   6.673   5.791 -0.3089 -0.6196  0.0824
 6244TIP3    H240224   0.294   6.664   5.653  0.1112 -0.4851  0.2570
 6245TIP3   OH240225   5.136   6.493   3.458 -0.1586  0.5399  0.9563
 6245TIP3    H140226   5.119   6.461   3.369 -1.0018  1.8809  0.6042
 6245TIP3    H240227   5.136   6.589   3.449 -0.2255  0.6913  2.3888
 6246TIP3   OH240228   2.829   5.804   1.218 -0.5188 -0.0306  0.2390
 6246TIP3    H140229   2.790   5.829   1.134  0.5778  2.0772  0.2797
 6246TIP3    H240230   2.803   5.713   1.230 -2.1391  0.1170 -1.5538
 6247TIP3   OH240231   3.768   3.210  17.033  0.4137 -0.6324 -0.3115
 6247TIP3    H140232   3.857   3.178  17.048  0.4652 -0.8849 -1.1300
 6247TIP3    H240233   3.774   3.259  16.951  0.2611  1.1886  0.7080
 6248TIP3   OH240234   5.431   5.598   5.658  0.1625 -0.1035 -0.2102
 6248TIP3    H140235   5.402   5.672   5.710 -2.2520 -1.8884  1.2057
 6248TIP3    H240236   5.359   5.581   5.598  0.7117 -1.2474 -0.5809
 6249TIP3   OH240237   3.951   5.077  12.086  0.1024  0.2856 -0.0641
 6249TIP3    H140238   3.930   5.143  12.021  2.5768  0.3823 -0.8779
 6249TIP3    H240239   3.903   4.999  12.058  0.3658  0.5998 -1.4573
 6250TIP3   OH240240   1.657   1.665  15.055  0.6840  0.4546 -0.1734
 6250TIP3    H140241   1.748   1.689  15.042  0.3039  2.2445  0.0980
 6250TIP3    H240242   1.610   1.749  15.054 -0.7688 -0.2834  1.1526
 6251TIP3   OH240243   4.320   2.155  15.090  0.3333 -0.5681 -0.2446
 6251TIP3    H140244   4.314   2.121  15.001  0.3375 -0.1300 -0.4098
 6251TIP3    H240245   4.303   2.248  15.082 -1.1153 -0.7487  0.3925
 6252TIP3   OH240246   5.593   1.306  13.094  1.1486  0.1524  0.4883
 6252TIP3    H140247   5.600   1.216  13.126 -0.6044  0.2101  1.1311
 6252TIP3    H240248   5.604   1.361  13.171  0.2735  0.4037  0.4500
 6253TIP3   OH240249   2.633   2.339   3.111 -0.1474 -0.0209  0.2889
 6253TIP3    H140250   2.574   2.357   3.185  0.8608  0.7324  0.9359
 6253TIP3    H240251   2.676   2.423   3.094 -0.1898 -0.2373 -1.0214
 6254TIP3   OH240252   1.732   0.536   0.014 -0.3948 -0.1118  0.5599
 6254TIP3    H140253   1.666   0.583  -0.036  0.0508 -0.2249 -0.1412
 6254TIP3    H240254   1.719   0.566   0.104 -2.5158 -1.4099  0.7468
 6255TIP3   OH240255   3.000   4.541  13.379  0.6731 -0.1545  0.2885
 6255TIP3    H140256   2.931   4.597  13.344  0.2915 -0.4949  0.4930
 6255TIP3    H240257   3.081   4.582  13.350  0.4026  0.6087  0.5984
 6256TIP3   OH240258   0.962   1.230  13.402  0.6021 -0.3195 -0.3121
 6256TIP3    H140259   1.023   1.236  13.475  0.9401  0.7540 -0.6477
 6256TIP3    H240260   0.896   1.298  13.420 -1.4001 -2.4325  0.8040
 6257TIP3   OH240261   3.582   3.914   0.649 -0.4266 -0.5296  0.6392
 6257TIP3    H140262   3.509   3.888   0.706 -1.2996 -0.5296 -0.4472
 6257TIP3    H240263   3.559   4.002   0.619  0.3965 -0.2260  0.8709
 6258TIP3   OH240264   4.676   0.886   2.388  0.4875  0.6538  0.2943
 6258TIP3    H140265   4.678   0.982   2.388  1.0102  0.6971  2.4057
 6258TIP3    H240266   4.597   0.864   2.436  1.4152  0.0745  1.6053
 6259TIP3   OH240267   3.520   0.235  14.871  0.2912 -0.6142  0.5011
 6259TIP3    H140268   3.449   0.173  14.887 -1.2008  0.4136 -1.6579
 6259TIP3    H240269   3.561   0.204  14.790  1.1106 -0.1414  0.7190
 6260TIP3   OH240270   2.952   4.722   6.304  0.1093 -0.0487  0.4801
 6260TIP3    H140271   3.001   4.752   6.380 -0.1435 -0.5161  0.8305
 6260TIP3    H240272   3.011   4.662   6.258 -0.4305 -1.2919  1.3729
 6261TIP3   OH240273   0.769   2.478  12.992 -0.0313  0.1670  0.8630
 6261TIP3    H140274   0.683   2.436  12.984  0.5105 -0.9059  0.4254
 6261TIP3    H240275   0.832   2.407  12.977  0.9265  1.1914 -0.2206
 6262TIP3   OH240276   1.927   2.975  16.512  0.1860  0.3972  1.0143
 6262TIP3    H140277   1.918   2.978  16.417 -2.2808  2.1740  1.2195
 6262TIP3    H240278   1.975   3.055  16.534 -0.0698  0.4658  1.3254
 6263TIP3   OH240279   0.114   4.721  15.682 -0.2090  0.5979 -0.4087
 6263TIP3    H140280   0.092   4.668  15.605 -0.1556  0.0599 -0.0603
 6263TIP3    H240281   0.199   4.687  15.711 -0.3282  0.6497  0.0086
 6264TIP3   OH240282   0.859   5.303  15.055  0.1146 -0.6014  0.1945
 6264TIP3    H140283   0.947   5.335  15.037 -0.7724  0.7582 -2.0783
 6264TIP3    H240284   0.801   5.370  15.020 -1.9163 -0.6552  3.0926
 6265TIP3   OH240285   6.096   5.575   4.805  0.3381  0.4127  0.2420
 6265TIP3    H140286   6.032   5.577   4.876  0.2947  1.3744  0.1905
 6265TIP3    H240287   6.156   5.648   4.825  1.1083 -0.1369  0.0052
 6266TIP3   OH240288   1.506   1.799   2.319 -0.3991 -0.6628  0.5749
 6266TIP3    H140289   1.495   1.893   2.336  0.8501 -0.0292 -1.7021
 6266TIP3    H240290   1.430   1.776   2.266  1.1351  0.0605 -2.1195
 6267TIP3   OH240291   4.547   3.319  14.511  0.3841  1.1853 -0.0360
 6267TIP3    H140292   4.487   3.319  14.585 -0.2701  3.3673 -0.4765
 6267TIP3    H240293   4.492   3.340  14.435  0.6235 -3.0648 -1.6567
 6268TIP3   OH240294   3.288   2.500   4.092 -0.2452 -0.0561  0.6706
 6268TIP3    H140295   3.277   2.522   4.185 -0.7021  1.2289  0.3387
 6268TIP3    H240296   3.302   2.585   4.049 -1.9278 -0.4103 -0.6718
 6269TIP3   OH240297   4.939   1.106   2.216  0.1285 -0.8713 -0.4154
 6269TIP3    H140298   5.014   1.163   2.230 -0.5993  0.1572 -0.6190
 6269TIP3    H240299   4.912   1.124   2.126 -1.8070  0.5529  0.4007
 6270TIP3   OH240300   6.361   6.429   1.031  0.3614  0.1197 -0.1892
 6270TIP3    H140301   6.326   6.480   1.104  0.1876 -0.7833  0.3629
 6270TIP3    H240302   6.284   6.394   0.987  0.5114 -0.5683  0.0886
 6271TIP3   OH240303   5.969   4.278   5.841  0.3759  0.1654 -0.7556
 6271TIP3    H140304   5.889   4.253   5.795  0.0071 -1.1411  0.4875
 6271TIP3    H240305   5.976   4.372   5.829 -1.9789  0.5061  0.0242
 6272TIP3   OH240306   1.555   4.788  11.231 -0.2371 -0.5769  0.4129
 6272TIP3    H140307   1.491   4.848  11.269  0.9211  0.3369  1.0004
 6272TIP3    H240308   1.549   4.709  11.285  1.5965  0.8038  2.8526
 6273TIP3   OH240309   4.070   2.398  16.419  0.8080  0.6335 -0.2140
 6273TIP3    H140310   4.103   2.435  16.337 -2.0680  0.3505 -1.5991
 6273TIP3    H240311   4.046   2.474  16.472 -0.6049  0.8366 -1.1052
 6274TIP3   OH240312   5.921   2.682   0.064  0.2197 -0.0203  0.1556
 6274TIP3    H140313   5.913   2.776   0.054  1.9626 -0.0137 -2.0708
 6274TIP3    H240314   5.899   2.646  -0.022 -0.6955 -1.6913  1.0310
 6275TIP3   OH240315   2.480   0.406   5.567  0.2633 -1.0277 -0.5695
 6275TIP3    H140316   2.568   0.436   5.545 -0.1079  0.5695 -0.0054
 6275TIP3    H240317   2.422   0.476   5.536 -0.5943 -0.7840  1.4422
 6276TIP3   OH240318   6.333   0.859   1.998  0.3892 -0.3079 -0.0555
 6276TIP3    H140319   6.282   0.805   1.937  0.0058 -1.1884  1.0140
 6276TIP3    H240320   6.360   0.798   2.067  0.3851  0.7688  0.9190
 6277TIP3   OH240321   6.148   2.900  15.088 -0.0785 -0.3541  0.7073
 6277TIP3    H140322   6.174   2.826  15.032 -0.0513 -0.4945  0.9044
 6277TIP3    H240323   6.089   2.952  15.033  1.0368  0.2645  0.0667
 6278TIP3   OH240324   1.796   0.747   5.317  0.0829 -0.2341 -0.0549
 6278TIP3    H140325   1.751   0.675   5.361 -0.3919  0.3352  0.4144
 6278TIP3    H240326   1.856   0.704   5.256  1.0672 -1.0702  1.4407
 6279TIP3   OH240327   2.718   5.320  16.695 -0.0132 -0.0594 -0.2586
 6279TIP3    H140328   2.632   5.324  16.653  0.4055  0.4435 -1.0989
 6279TIP3    H240329   2.778   5.291  16.626  0.5039 -0.3733  0.3061
 6280TIP3   OH240330   6.586   2.306  11.328 -0.3281  0.1164  0.4739
 6280TIP3    H140331   6.602   2.258  11.247 -2.0029  2.0327 -1.1208
 6280TIP3    H240332   6.571   2.238  11.394  0.6063 -1.5016 -0.9118
 6281TIP3   OH240333   1.236   4.218  13.354 -0.1850  0.8170  0.1211
 6281TIP3    H140334   1.140   4.221  13.354 -0.1757  1.3593  0.5238
 6281TIP3    H240335   1.261   4.256  13.269 -0.3146  2.0247  0.5941
 6282TIP3   OH240336   5.969   0.973   2.349 -0.4120 -0.3034 -0.4913
 6282TIP3    H140337   5.935   0.884   2.352  2.1117 -1.3443 -0.1578
 6282TIP3    H240338   5.979   0.992   2.256  1.4889 -1.4574 -0.5767
 6283TIP3   OH240339   6.765   4.741   1.302  0.5625  0.9961 -0.2364
 6283TIP3    H140340   6.734   4.663   1.349 -2.3031  1.1986 -1.5748
 6283TIP3    H240341   6.810   4.792   1.369  1.3075 -1.1510  1.0008
 6284TIP3   OH240342   6.792   6.414  12.501  0.4320 -0.2423  0.3802
 6284TIP3    H140343   6.813   6.506  12.513 -0.5982  0.0068  0.3475
 6284TIP3    H240344   6.795   6.400  12.407  1.7024 -0.5295  0.4458
 6285TIP3   OH240345   3.276   4.315   6.037 -0.0263  0.1097  0.0813
 6285TIP3    H140346   3.288   4.379   6.107 -1.3543  0.2473  0.2017
 6285TIP3    H240347   3.247   4.236   6.082 -1.1792  0.2883 -0.3345
 6286TIP3   OH240348   4.612   6.085   5.642 -0.0229 -0.8936 -0.3006
 6286TIP3    H140349   4.664   6.166   5.647 -1.4311  0.3250 -3.0026
 6286TIP3    H240350   4.566   6.081   5.726  0.5629  0.7897  0.1461
 6287TIP3   OH240351   3.543   2.529   0.942 -0.5507 -0.3100  0.0107
 6287TIP3    H140352   3.491   2.609   0.940 -0.1752  0.0848  2.8189
 6287TIP3    H240353   3.492   2.467   0.890 -1.7935  1.1991 -0.6599
 6288TIP3   OH240354   0.407   0.310  12.411  0.1552 -0.4206  0.1734
 6288TIP3    H140355   0.367   0.305  12.324  0.6684 -1.3053 -0.0279
 6288TIP3    H240356   0.348   0.260  12.467 -1.0319  1.4591  0.7088
 6289TIP3   OH240357   6.457   1.194   2.728  0.1043  0.5463 -0.1880
 6289TIP3    H140358   6.390   1.259   2.749  0.5835  1.0758 -0.2747
 6289TIP3    H240359   6.516   1.239   2.667 -0.8168 -0.7014 -2.0715
 6290TIP3   OH240360   6.810   1.134   3.649 -0.0980  0.3477  0.0902
 6290TIP3    H140361   6.781   1.171   3.732 -2.0233  1.0474 -0.8287
 6290TIP3    H240362   6.774   1.045   3.648  2.4960 -0.8290  1.2482
 6291TIP3   OH240363   1.368   5.867  13.710  0.1801  0.4999  0.0299
 6291TIP3    H140364   1.456   5.848  13.678 -0.3855 -1.3938 -0.5354
 6291TIP3    H240365   1.315   5.875  13.630 -0.6226 -0.9800  0.3837
 6292TIP3   OH240366   1.874   2.737   1.135 -0.1060 -0.5167 -0.0153
 6292TIP3    H140367   1.957   2.777   1.108  0.4734 -0.5597  1.5990
 6292TIP3    H240368   1.855   2.673   1.066  0.5735  0.3196 -1.0125
 6293TIP3   OH240369   5.105   2.912   3.810 -0.5757 -0.0707 -0.0585
 6293TIP3    H140370   5.076   2.908   3.902 -0.3769 -2.6526 -0.0175
 6293TIP3    H240371   5.027   2.936   3.761 -1.0379 -0.0526  0.6750
 6294TIP3   OH240372   2.006   6.023  12.979  0.1030  0.5380  0.3638
 6294TIP3    H140373   2.013   6.023  12.884 -0.9561  0.3703  0.2726
 6294TIP3    H240374   2.062   6.095  13.008  0.7037  0.3707 -0.3546
 6295TIP3   OH240375   3.018   4.167   0.656  0.3094 -0.4550  0.3848
 6295TIP3    H140376   3.003   4.182   0.563 -1.0514  1.3146  0.8373
 6295TIP3    H240377   2.935   4.192   0.698  1.4245  0.3810  2.2061
 6296TIP3   OH240378   1.015   0.245  14.245 -0.0953  0.3309 -0.4764
 6296TIP3    H140379   1.077   0.174  14.230 -1.7018 -1.0809 -0.7813
 6296TIP3    H240380   1.031   0.307  14.173  0.6970 -0.1874 -0.7605
 6297TIP3   OH240381   4.532   1.894  14.924 -0.0059 -0.0609  0.2776
 6297TIP3    H140382   4.476   1.823  14.954  1.2405 -0.4887  1.7227
 6297TIP3    H240383   4.526   1.891  14.828 -1.5753 -0.7613  0.3711
 6298TIP3   OH240384   0.986   1.842  16.357 -0.2795 -0.0118  0.4438
 6298TIP3    H140385   1.067   1.872  16.398  1.2740 -2.3600 -0.6693
 6298TIP3    H240386   1.014   1.797  16.277 -2.7917  0.0440 -0.5807
 6299TIP3   OH240387   3.099   2.187  16.845  0.0671  0.2578 -0.1760
 6299TIP3    H140388   3.062   2.119  16.902  1.6352  0.8504  1.6866
 6299TIP3    H240389   3.063   2.269  16.880 -0.5223  0.5176 -1.3601
 6300TIP3   OH240390   6.756   5.740   3.590 -0.0084 -0.2839 -0.1188
 6300TIP3    H140391   6.699   5.790   3.647  0.1608 -0.0810 -0.1290
 6300TIP3    H240392   6.819   5.698   3.649 -0.1890 -0.5386 -0.1037
 6301TIP3   OH240393   2.187   0.261  15.670  0.2660 -0.0740  0.0492
 6301TIP3    H140394   2.160   0.345  15.708  1.6378  0.4759 -0.1611
 6301TIP3    H240395   2.240   0.284  15.594 -1.3849 -1.1535 -1.5441
 6302TIP3   OH240396   5.795   1.731  15.340 -0.0717  0.4131  0.1109
 6302TIP3    H140397   5.709   1.692  15.356  0.5595 -2.0701 -1.8178
 6302TIP3    H240398   5.845   1.661  15.297  2.5283  2.1607  0.0744
 6303TIP3   OH240399   2.359   3.670   4.032 -0.1590  0.4388  0.2870
 6303TIP3    H140400   2.294   3.610   3.996  0.9154 -0.1166 -0.8186
 6303TIP3    H240401   2.314   3.715   4.103 -1.3263 -0.8704  0.4094
 6304TIP3   OH240402   5.332   4.445  10.830 -0.4760  0.1222  0.3794
 6304TIP3    H140403   5.346   4.407  10.917 -0.1363  1.5416  0.9675
 6304TIP3    H240404   5.363   4.535  10.837 -0.7788  0.3793 -1.1207
 6305TIP3   OH240405   4.177   0.064   5.020  0.2572 -0.0330 -0.7824
 6305TIP3    H140406   4.266   0.046   4.990  1.1971  1.2745  1.0760
 6305TIP3    H240407   4.146   0.134   4.962  1.4017  1.2423  0.0730
 6306TIP3   OH240408   2.344   2.147   1.749  0.3781  0.4703 -0.4347
 6306TIP3    H140409   2.433   2.139   1.715  0.1921 -3.5911 -0.4794
 6306TIP3    H240410   2.348   2.111   1.837 -1.3834 -1.2558 -0.9708
 6307TIP3   OH240411   3.583   4.481  10.911 -0.3872 -0.3927 -0.0105
 6307TIP3    H140412   3.585   4.515  10.822 -0.6322  2.2677  0.8986
 6307TIP3    H240413   3.602   4.557  10.966  0.5175 -2.0976  2.1997
 6308TIP3   OH240414   1.271   2.786   2.209  0.0590 -0.5995 -0.2773
 6308TIP3    H140415   1.323   2.864   2.192 -1.2123  0.2381 -0.4559
 6308TIP3    H240416   1.302   2.721   2.145  0.7459 -0.0676 -0.4922
 6309TIP3   OH240417   6.641   0.643   1.805 -0.2795 -0.0142  0.2365
 6309TIP3    H140418   6.619   0.563   1.851 -0.8030 -0.0967 -0.1590
 6309TIP3    H240419   6.645   0.618   1.713  0.9930  0.0975  0.2352
 6310TIP3   OH240420   0.355   4.111   0.060 -0.1797 -0.6255  0.1492
 6310TIP3    H140421   0.304   4.037   0.025 -1.4400  0.1616  0.2830
 6310TIP3    H240422   0.290   4.167   0.102  1.0427 -0.5160  1.9895
 6311TIP3   OH240423   4.580   0.306   0.055 -0.3108  0.4865  0.1749
 6311TIP3    H140424   4.602   0.369  -0.014 -0.9581 -0.4355 -0.9214
 6311TIP3    H240425   4.506   0.346   0.102 -0.4801  0.7099 -0.2771
 6312TIP3   OH240426   1.863   2.519  12.695 -0.4237 -0.4748  0.3155
 6312TIP3    H140427   1.805   2.466  12.750  1.0007 -1.1764  1.1740
 6312TIP3    H240428   1.864   2.605  12.736 -0.8197 -0.4674  0.3138
 6313TIP3   OH240429   0.962   4.088  14.670  0.2306  0.4854  0.9092
 6313TIP3    H140430   1.007   4.173  14.666  1.3640 -0.1092  0.4128
 6313TIP3    H240431   0.871   4.107  14.647  0.5222  1.5341  0.5915
 6314TIP3   OH240432   0.085   3.548  11.941  0.3169  0.1253  0.0090
 6314TIP3    H140433   0.072   3.641  11.957 -1.2170 -0.0089 -0.3109
 6314TIP3    H240434  -0.003   3.511  11.939  0.7982 -1.0675 -1.4388
 6315TIP3   OH240435   0.342   1.118  13.317  0.0797  0.1983 -0.1282
 6315TIP3    H140436   0.284   1.109  13.393 -0.4596 -0.3423 -0.5864
 6315TIP3    H240437   0.331   1.209  13.289  1.3543  0.8127  1.2631
 6316TIP3   OH240438   1.227   3.691   5.260 -0.3833  0.2407 -0.4392
 6316TIP3    H140439   1.179   3.674   5.179 -2.6382  0.1599  0.8429
 6316TIP3    H240440   1.185   3.768   5.298  1.5819  1.1698 -0.0082
 6317TIP3   OH240441   4.537   1.055   2.081 -0.8034  0.3213  0.1642
 6317TIP3    H140442   4.465   1.115   2.061 -0.6450  1.0510  1.5812
 6317TIP3    H240443   4.595   1.106   2.138 -0.0329 -0.7943  0.4182
 6318TIP3   OH240444   3.057   5.949  11.584  0.1359 -0.2950  0.0500
 6318TIP3    H140445   3.083   5.944  11.492  1.0244 -1.6421  0.3555
 6318TIP3    H240446   2.969   5.911  11.586  0.0127 -0.0334 -0.2762
 6319TIP3   OH240447   4.931   0.920  11.033 -0.7578 -0.6091 -0.0124
 6319TIP3    H140448   4.905   0.883  10.949 -0.5536  0.8677 -0.7659
 6319TIP3    H240449   4.896   1.009  11.032  2.3563  0.7533 -0.1806
 6320TIP3   OH240450   5.324   2.205   0.759  0.0714 -0.0010  0.2548
 6320TIP3    H140451   5.276   2.262   0.698 -0.6241 -0.9346 -0.1002
 6320TIP3    H240452   5.290   2.228   0.845  1.0022  1.2755  0.3052
 6321TIP3   OH240453   2.127   3.612  16.897 -0.3292  0.8354 -0.3322
 6321TIP3    H140454   2.072   3.684  16.865 -0.1222  0.8796 -0.5916
 6321TIP3    H240455   2.205   3.655  16.931 -1.0579  0.8990  1.3899
 6322TIP3   OH240456   1.761   1.287  11.841 -0.7173 -0.1643 -0.2073
 6322TIP3    H140457   1.826   1.316  11.905 -2.3402  0.6865  1.1484
 6322TIP3    H240458   1.685   1.264  11.894 -1.4303 -1.4453 -1.7101
 6323TIP3   OH240459   2.031   5.397  15.954  0.7272  0.0831  0.2755
 6323TIP3    H140460   1.952   5.448  15.971  0.4860  0.2457 -1.2019
 6323TIP3    H240461   2.003   5.330  15.891  1.2889 -1.2018  1.3580
 6324TIP3   OH240462   4.697   2.311   1.274 -0.5783 -0.3686 -0.3420
 6324TIP3    H140463   4.617   2.323   1.324 -0.9886 -0.2633 -1.0105
 6324TIP3    H240464   4.765   2.295   1.340 -1.3413 -1.5882  0.1751
 6325TIP3   OH240465   1.714   2.329  16.942  0.3392  0.0058 -0.2896
 6325TIP3    H140466   1.631   2.309  16.898  0.0748 -1.4348  0.7947
 6325TIP3    H240467   1.781   2.307  16.877 -0.0845 -0.5613 -0.5458
 6326TIP3   OH240468   4.418   1.438  12.375  0.2429  0.2977  0.1573
 6326TIP3    H140469   4.482   1.506  12.397  0.9366 -0.6776  1.2727
 6326TIP3    H240470   4.354   1.442  12.446  0.3747 -0.3009  0.3159
 6327TIP3   OH240471   4.199   1.633   6.247 -0.0638 -0.0331  0.1851
 6327TIP3    H140472   4.106   1.653   6.259 -0.3157  0.0092 -1.5973
 6327TIP3    H240473   4.245   1.701   6.296 -0.9503  1.9986 -1.6374
 6328TIP3   OH240474   4.620   3.048  12.835  0.1081 -0.0144  0.4727
 6328TIP3    H140475   4.715   3.040  12.827  0.0236  0.5500 -1.8558
 6328TIP3    H240476   4.593   3.093  12.754 -2.0187  0.8883  1.6115
 6329TIP3   OH240477   2.268   0.226  13.251 -0.1731 -0.2194 -0.2117
 6329TIP3    H140478   2.342   0.255  13.305  1.1527 -0.8253 -1.6033
 6329TIP3    H240479   2.261   0.292  13.182  1.5521 -1.9907 -2.2249
 6330TIP3   OH240480   4.762   2.759  17.001 -0.4312 -0.7542  0.0765
 6330TIP3    H140481   4.811   2.684  16.967 -1.0926 -1.0008 -0.3438
 6330TIP3    H240482   4.808   2.783  17.082  1.5014  0.1476 -1.1904
 6331TIP3   OH240483   2.098   1.992  16.703 -0.2962  0.1731 -0.1140
 6331TIP3    H140484   2.079   2.064  16.763  0.1933  1.2087 -1.1678
 6331TIP3    H240485   2.080   2.027  16.616  1.3005 -0.5143 -0.7611
 6332TIP3   OH240486   1.918   3.001  11.969  0.2037 -0.5963  0.6053
 6332TIP3    H140487   1.874   3.031  12.048  1.3430  1.0435  0.6591
 6332TIP3    H240488   1.910   3.073  11.907  2.3694 -0.3784  0.4768
 6333TIP3   OH240489   0.759   6.363   4.713  0.3524  0.2692  0.1437
 6333TIP3    H140490   0.677   6.339   4.670  0.7272 -0.6740 -0.0719
 6333TIP3    H240491   0.817   6.391   4.642  0.8832 -1.0370  0.0363
 6334TIP3   OH240492   0.972   5.238   1.397  0.3477 -0.2728 -0.0050
 6334TIP3    H140493   1.045   5.256   1.457  0.7692 -4.2909  0.9625
 6334TIP3    H240494   0.898   5.284   1.436  1.7063  1.4464  0.6732
 6335TIP3   OH240495   4.239   0.242  11.797 -0.3487  0.2839  0.0850
 6335TIP3    H140496   4.188   0.254  11.717  1.7701  0.6530 -1.2669
 6335TIP3    H240497   4.290   0.322  11.806 -2.3665  1.4016  3.2882
 6336TIP3   OH240498   3.559   5.559   2.317 -0.3748  0.4327 -0.3968
 6336TIP3    H140499   3.518   5.615   2.251 -0.1227  1.6422  0.4463
 6336TIP3    H240500   3.525   5.592   2.401 -0.7184 -1.0944  0.0914
 6337TIP3   OH240501   0.181   0.205   2.457 -0.8393 -0.5747  0.4010
 6337TIP3    H140502   0.150   0.166   2.538  0.9847  0.4051  1.6415
 6337TIP3    H240503   0.252   0.148   2.428 -1.1963 -0.6820 -0.3033
 6338TIP3   OH240504   0.048   3.143  12.388  0.7895  0.0324 -0.3451
 6338TIP3    H140505   0.063   3.088  12.465  1.5073  1.7723  0.8214
 6338TIP3    H240506  -0.040   3.119  12.358 -0.7577  1.3198  2.7952
 6339TIP3   OH240507   5.029   1.533   1.271  0.1947 -0.3990 -0.4325
 6339TIP3    H140508   4.974   1.459   1.296 -1.2376  0.8220  0.1966
 6339TIP3    H240509   5.012   1.546   1.178  0.4177 -0.8046 -0.5352
 6340TIP3   OH240510   2.265   1.929   5.721  0.2469 -0.4937  0.1806
 6340TIP3    H140511   2.191   1.956   5.776  0.6724 -0.5516  0.7821
 6340TIP3    H240512   2.305   1.856   5.768  2.0050  0.9014  0.9716
 6341TIP3   OH240513   4.577   3.584   3.176 -0.0719 -0.2554  0.0233
 6341TIP3    H140514   4.531   3.547   3.101  1.0521 -0.6609 -0.4987
 6341TIP3    H240515   4.565   3.519   3.245  1.1977 -1.2749 -0.6492
 6342TIP3   OH240516   2.815   6.781   2.764  0.3949 -0.1853  0.0825
 6342TIP3    H140517   2.823   6.859   2.818  0.4166 -0.6641  0.7783
 6342TIP3    H240518   2.774   6.813   2.683  1.2207  0.6990 -0.0076
 6343TIP3   OH240519   6.287   3.682   2.794  0.0962  0.3587 -0.3027
 6343TIP3    H140520   6.208   3.670   2.741  1.1442  1.2199 -2.1825
 6343TIP3    H240521   6.310   3.774   2.782  1.9440 -0.1074 -0.6727
 6344TIP3   OH240522   0.239   1.920  10.268  0.3760  0.1101 -0.7750
 6344TIP3    H140523   0.150   1.914  10.233  1.0319 -0.0114 -2.4992
 6344TIP3    H240524   0.278   1.993  10.220  0.8842  0.8839  0.7539
 6345TIP3   OH240525   1.283   2.652  15.606  0.4393  0.3207 -0.2584
 6345TIP3    H140526   1.210   2.594  15.582  1.3855 -0.7979 -0.5344
 6345TIP3    H240527   1.251   2.740  15.587 -1.4279  0.0038  1.1492
 6346TIP3   OH240528   1.361   2.826  11.601 -0.0813  0.2383 -0.2998
 6346TIP3    H140529   1.296   2.849  11.535 -1.5431 -0.2341  0.9466
 6346TIP3    H240530   1.356   2.897  11.665 -0.2771 -0.4414  0.4451
 6347TIP3   OH240531   1.958   3.498  13.105  0.1520 -0.3303  0.1683
 6347TIP3    H140532   1.995   3.508  13.192  0.2448 -0.2498  0.1201
 6347TIP3    H240533   1.879   3.445  13.118  0.0601 -0.1581  0.3294
 6348TIP3   OH240534   5.881   4.115   2.920 -0.2746 -0.4452 -0.4319
 6348TIP3    H140535   5.815   4.052   2.890  0.3968 -1.7111  0.6110
 6348TIP3    H240536   5.831   4.178   2.972 -0.6196 -1.8884  1.0988
 6349TIP3   OH240537   6.583   6.789   1.842  0.8497 -0.2529 -0.8779
 6349TIP3    H140538   6.664   6.747   1.813  0.4556 -1.7779  0.1228
 6349TIP3    H240539   6.537   6.722   1.892 -1.0766  0.5451 -1.4639
 6350TIP3   OH240540   3.070   5.520   3.300  0.1400 -0.4315  0.3981
 6350TIP3    H140541   3.031   5.471   3.228  1.2064  0.0062 -0.5080
 6350TIP3    H240542   3.093   5.454   3.364 -2.1177 -0.7099  1.0308
 6351TIP3   OH240543   6.603   6.281   1.293  0.1313  0.0815 -0.5482
 6351TIP3    H140544   6.562   6.331   1.364  0.2531 -0.6666  0.0700
 6351TIP3    H240545   6.694   6.312   1.291  0.6180 -1.1339  0.8454
 6352TIP3   OH240546   0.807   3.942  16.159 -0.6826  0.1839 -0.1855
 6352TIP3    H140547   0.801   4.006  16.088 -0.8367 -0.7065 -1.0061
 6352TIP3    H240548   0.901   3.928  16.170 -0.5727  1.6767  1.0755
 6353TIP3   OH240549   6.192   5.690   1.015 -0.1130 -0.0829  0.1362
 6353TIP3    H140550   6.261   5.659   0.956 -2.6048 -1.6579 -2.1538
 6353TIP3    H240551   6.162   5.772   0.974 -0.4809 -0.0935  0.3863
 6354TIP3   OH240552   4.728   0.624  16.359  0.1276 -0.4446 -0.4319
 6354TIP3    H140553   4.658   0.615  16.424  1.7456 -0.2813  1.4529
 6354TIP3    H240554   4.741   0.719  16.351  2.3192 -0.3996  1.9240
 6355TIP3   OH240555   5.883   1.542  12.721  0.1961  0.1483 -0.1455
 6355TIP3    H140556   5.940   1.574  12.791 -1.8377 -0.9719  2.1894
 6355TIP3    H240557   5.812   1.607  12.716  0.7836  0.6980 -1.8775
 6356TIP3   OH240558   1.554   5.077  10.022  0.0611 -0.2798 -0.5819
 6356TIP3    H140559   1.612   5.003  10.039  0.9865  0.2964 -1.1039
 6356TIP3    H240560   1.613   5.147   9.995 -0.7677  0.7305  0.1575
 6357TIP3   OH240561   1.973   2.569  10.164  0.8950  0.0104  0.7136
 6357TIP3    H140562   1.992   2.655  10.126 -0.3709  0.8626  1.9078
 6357TIP3    H240563   1.969   2.510  10.089  0.7552  1.1899 -0.2387
 6358TIP3   OH240564   2.380   0.321   4.652 -0.3592 -0.1211 -0.0808
 6358TIP3    H140565   2.346   0.232   4.644 -0.1423 -0.1793 -0.3445
 6358TIP3    H240566   2.469   0.317   4.619  0.1054 -0.0837  1.1127
 6359TIP3   OH240567   2.469   2.833   2.106  0.2227  0.4362 -0.8252
 6359TIP3    H140568   2.442   2.910   2.056  0.7115 -0.0260 -1.8271
 6359TIP3    H240569   2.427   2.760   2.060 -1.3247  0.1756  0.8700
 6360TIP3   OH240570   2.690   0.335   3.498 -0.0903 -0.1860  0.0308
 6360TIP3    H140571   2.701   0.268   3.430 -0.6914  0.2024 -0.4574
 6360TIP3    H240572   2.773   0.383   3.498  0.0700 -0.4623 -0.1321
 6361TIP3   OH240573   0.381   2.031  16.038  0.1458  0.4948  0.3171
 6361TIP3    H140574   0.309   2.048  16.098 -0.1610  2.3166 -0.4909
 6361TIP3    H240575   0.340   1.993  15.960 -0.0747  1.9447 -0.3225
 6362TIP3   OH240576   3.810   1.851   1.694  0.0750  0.0192 -0.1737
 6362TIP3    H140577   3.834   1.803   1.614  0.1084 -1.8919  0.9293
 6362TIP3    H240578   3.868   1.816   1.761  0.3953  1.9616  0.6347
 6363TIP3   OH240579   5.170   4.475  14.413 -0.6954  0.0378 -0.4115
 6363TIP3    H140580   5.227   4.518  14.477  0.0357  1.6438 -2.0553
 6363TIP3    H240581   5.090   4.456  14.462 -0.1394  1.1169  1.0078
 6364TIP3   OH240582   5.329   6.489   2.414 -0.3882 -0.2766  0.3127
 6364TIP3    H140583   5.268   6.493   2.488 -0.5508 -0.7774  0.2108
 6364TIP3    H240584   5.287   6.541   2.345  0.3218  1.2123  0.9548
 6365TIP3   OH240585   6.094   0.489  13.682  0.2910 -0.0857 -0.3069
 6365TIP3    H140586   6.174   0.516  13.638  0.2089 -1.8484 -1.6774
 6365TIP3    H240587   6.122   0.420  13.742  0.1872  1.3301  1.4382
 6366TIP3   OH240588   2.985   1.157  15.553 -0.8070 -0.1457  0.2586
 6366TIP3    H140589   3.002   1.086  15.615  0.3749  0.1746  0.3371
 6366TIP3    H240590   3.053   1.147  15.486 -1.5990 -0.0267 -0.5789
 6367TIP3   OH240591   4.863   2.695   5.384  0.1810 -0.8793  0.4201
 6367TIP3    H140592   4.814   2.623   5.424  0.6577 -0.9109  0.9729
 6367TIP3    H240593   4.846   2.686   5.290 -2.8843  0.6259  0.7198
 6368TIP3   OH240594   4.004   4.255   3.870 -0.4091  0.0494  0.3065
 6368TIP3    H140595   3.978   4.199   3.943 -1.5243 -1.4834 -1.1572
 6368TIP3    H240596   4.087   4.219   3.840 -0.6927 -0.2959 -0.0860
 6369TIP3   OH240597   4.961   4.761   0.242  0.5805 -0.1207  0.1367
 6369TIP3    H140598   4.872   4.726   0.239  0.7360 -0.5747  0.5861
 6369TIP3    H240599   4.952   4.848   0.280  0.2006  0.2919 -0.8756
 6370TIP3   OH240600   0.691   0.484  12.742 -0.2901 -0.3547 -0.5817
 6370TIP3    H140601   0.782   0.456  12.728  0.7940  2.3835  0.2001
 6370TIP3    H240602   0.670   0.535  12.663 -1.3039 -1.2152 -0.8941
 6371TIP3   OH240603   6.215   0.975   5.474  0.5100 -0.0229 -0.2511
 6371TIP3    H140604   6.123   0.984   5.448  0.4290 -1.8501 -0.7011
 6371TIP3    H240605   6.211   0.943   5.564  0.6951 -0.6239 -0.4553
 6372TIP3   OH240606   0.539   3.338  12.543  0.0849 -0.4194  0.1104
 6372TIP3    H140607   0.620   3.371  12.504 -1.0194  3.2661  0.6387
 6372TIP3    H240608   0.566   3.302  12.628  1.1600  1.4221  0.6067
 6373TIP3   OH240609   2.418   0.263   2.389  0.7770  0.0288  0.1684
 6373TIP3    H140610   2.413   0.353   2.356  0.8540  0.1308  0.4296
 6373TIP3    H240611   2.348   0.257   2.454 -0.7448 -0.8116 -1.4887
 6374TIP3   OH240612   3.959   5.870  16.488 -0.3102  0.1376  0.1573
 6374TIP3    H140613   4.051   5.897  16.484 -0.0267 -0.8124 -0.0701
 6374TIP3    H240614   3.910   5.951  16.474  0.4899  0.6415  0.1640
 6375TIP3   OH240615   5.482   6.682  13.714  0.4626 -0.0248 -0.0963
 6375TIP3    H140616   5.559   6.737  13.728 -0.2093  0.5779  1.4622
 6375TIP3    H240617   5.443   6.716  13.634  1.1380  0.4716 -0.2231
 6376TIP3   OH240618   3.206   2.476   3.405  0.1526  0.1184  0.6674
 6376TIP3    H140619   3.136   2.410   3.403 -0.0310  0.3170  0.3861
 6376TIP3    H240620   3.251   2.465   3.322  1.1170 -0.7040  1.2809
 6377TIP3   OH240621   1.694   1.792   1.598  0.3695  0.1837  0.6050
 6377TIP3    H140622   1.617   1.837   1.565  0.5045  1.2048  1.6119
 6377TIP3    H240623   1.739   1.761   1.519 -0.8108 -0.0282 -0.0116
 6378TIP3   OH240624   5.886   4.938   3.372  0.5538  0.4007 -0.7967
 6378TIP3    H140625   5.953   4.983   3.321  1.1640  0.3057 -0.0885
 6378TIP3    H240626   5.924   4.927   3.459 -0.5400  0.7250 -0.2576
 6379TIP3   OH240627   1.088   4.865  17.069 -0.9687  0.3340  0.3637
 6379TIP3    H140628   1.036   4.841  17.145  1.0601  0.0523  1.7455
 6379TIP3    H240629   1.156   4.798  17.064 -0.4112  0.9509 -1.0484
 6380TIP3   OH240630   5.191   0.484  14.249 -0.3913 -0.1252 -0.8479
 6380TIP3    H140631   5.105   0.524  14.255 -1.3961 -1.9821 -1.9044
 6380TIP3    H240632   5.174   0.396  14.214  1.8391 -0.8654 -0.2287
 6381TIP3   OH240633   1.292   6.344   0.027 -0.5474 -0.5045 -0.2050
 6381TIP3    H140634   1.232   6.270   0.011  0.2425 -0.9755 -1.1109
 6381TIP3    H240635   1.375   6.316  -0.011 -0.4768  1.2396 -1.4682
 6382TIP3   OH240636   1.453   6.245   4.879 -0.1773 -0.4830 -0.7266
 6382TIP3    H140637   1.367   6.216   4.849 -0.7984  0.9723 -0.4599
 6382TIP3    H240638   1.434   6.294   4.959  1.0457 -1.1845  0.0176
 6383TIP3   OH240639   4.158   5.046   1.027 -0.1362 -0.2853 -0.8715
 6383TIP3    H140640   4.183   5.121   1.081  2.3889  0.2368 -2.5815
 6383TIP3    H240641   4.123   5.084   0.947 -1.0635 -1.0095 -0.8282
 6384TIP3   OH240642   1.986   4.602  13.324 -1.1341 -0.6896  0.3141
 6384TIP3    H140643   1.934   4.609  13.244 -0.0982  1.6090 -0.2673
 6384TIP3    H240644   2.037   4.522  13.314  0.3334  0.4655 -2.2586
 6385TIP3   OH240645   1.622   3.406  15.154 -0.2819  0.7881  0.0035
 6385TIP3    H140646   1.562   3.425  15.226 -0.8552 -0.7297 -0.0279
 6385TIP3    H240647   1.641   3.491  15.114 -0.6687  1.5419  1.3772
 6386TIP3   OH240648   0.830   6.482   2.429  0.3654 -0.4069  0.2843
 6386TIP3    H140649   0.844   6.510   2.339  0.1552  0.2021  0.4277
 6386TIP3    H240650   0.747   6.524   2.454  1.1880  0.7389  1.2566
 6387TIP3   OH240651   3.124   2.266   0.240 -0.7014 -0.2538  0.2985
 6387TIP3    H140652   3.201   2.214   0.218 -0.7185 -1.5857  2.9420
 6387TIP3    H240653   3.056   2.234   0.181  0.5756  0.5214 -1.6693
 6388TIP3   OH240654   6.387   6.561  16.007  0.3394 -0.5911 -0.0101
 6388TIP3    H140655   6.301   6.562  15.964  0.5431 -0.4253 -0.4176
 6388TIP3    H240656   6.450   6.556  15.935  0.7067  0.4513  0.2186
 6389TIP3   OH240657   6.375   0.008   3.404 -0.1664  0.1504  0.1106
 6389TIP3    H140658   6.279   0.009   3.407 -0.1513  0.2267  1.6626
 6389TIP3    H240659   6.397  -0.071   3.354 -1.0389 -0.1576  0.1954
 6390TIP3   OH240660   4.987   3.596  16.552 -0.2400  0.3305  0.3756
 6390TIP3    H140661   4.985   3.687  16.525  2.3385  1.0354  2.1993
 6390TIP3    H240662   4.932   3.593  16.631 -1.1687  0.0338 -0.2620
 6391TIP3   OH240663   5.619   4.304   0.345  0.0324 -0.1728  0.2579
 6391TIP3    H140664   5.644   4.342   0.429  2.0835 -1.7070  0.4293
 6391TIP3    H240665   5.634   4.210   0.356  1.1236 -0.3399 -2.0360
 6392TIP3   OH240666   3.931   1.775  13.039 -0.2416  0.7019 -0.3410
 6392TIP3    H140667   3.931   1.689  12.997  1.2806 -0.2676  1.4927
 6392TIP3    H240668   3.842   1.786  13.072 -0.2465 -0.5698  0.1281
 6393TIP3   OH240669   0.083   6.565  12.218  0.2312  0.3040  0.1883
 6393TIP3    H140670   0.160   6.508  12.208  0.8455  1.3577 -1.4672
 6393TIP3    H240671   0.079   6.583  12.312 -0.0052 -2.4521  0.7794
 6394TIP3   OH240672   0.951   3.995   3.316  0.2154  0.1863  0.1023
 6394TIP3    H140673   1.017   3.980   3.384  0.1824 -0.3137  0.0308
 6394TIP3    H240674   0.885   4.050   3.359 -0.3037 -0.9322  0.8053
 6395TIP3   OH240675   5.407   0.033   6.450 -0.2107  0.0370  0.3717
 6395TIP3    H140676   5.438  -0.008   6.370 -0.1935 -0.5094  0.6519
 6395TIP3    H240677   5.475   0.014   6.515 -0.4597  0.0459  0.6372
 6396TIP3   OH240678   5.283   3.692   5.499 -0.0839  0.2320 -0.4754
 6396TIP3    H140679   5.315   3.652   5.417 -0.0385  2.2780 -1.5111
 6396TIP3    H240680   5.190   3.672   5.500 -0.4845  1.7558 -2.0496
 6397TIP3   OH240681   4.611   4.467  16.921  0.4079 -0.2458 -0.4664
 6397TIP3    H140682   4.629   4.410  16.995  2.9186  0.9040 -0.0843
 6397TIP3    H240683   4.539   4.523  16.950  0.9953 -0.1771  0.9123
 6398TIP3   OH240684   0.922   6.100   4.575  0.3258 -0.3823  0.0207
 6398TIP3    H140685   0.940   6.032   4.640 -1.7848 -0.5809  0.4726
 6398TIP3    H240686   0.838   6.076   4.538  0.6175  0.7706 -1.4632
 6399TIP3   OH240687   6.340   5.677  11.084 -0.2267 -0.1644 -0.2515
 6399TIP3    H140688   6.372   5.756  11.127  0.8876 -0.9154  0.3338
 6399TIP3    H240689   6.416   5.641  11.039 -0.2871 -1.7637  0.8261
 6400TIP3   OH240690   5.307   5.704   2.030  0.1548  0.5608 -0.1517
 6400TIP3    H140691   5.271   5.646   2.096 -0.3760  0.3503 -0.6261
 6400TIP3    H240692   5.232   5.732   1.978  0.5151  1.0323 -0.4322
 6401TIP3   OH240693   5.815   5.757  16.128 -0.0001  0.3339 -0.1688
 6401TIP3    H140694   5.827   5.692  16.059 -0.1487  1.0111 -0.8414
 6401TIP3    H240695   5.736   5.728  16.174 -0.1029  0.0712 -0.5066
 6402TIP3   OH240696   4.963   0.498  13.499 -0.2718  0.4172 -0.5635
 6402TIP3    H140697   4.932   0.434  13.435 -1.7543  1.5509 -1.0259
 6402TIP3    H240698   5.043   0.535  13.459 -0.5014  0.2436 -1.1953
 6403TIP3   OH240699   3.434   3.131  15.380  0.4906  0.7014  0.0980
 6403TIP3    H140700   3.425   3.138  15.475  0.0723  0.5206  0.0714
 6403TIP3    H240701   3.492   3.056  15.367 -0.7649 -0.2928  0.1628
 6404TIP3   OH240702   6.642   6.015  10.431  0.0242  0.3612  0.1881
 6404TIP3    H140703   6.602   5.956  10.367 -0.3047  0.3877  0.3673
 6404TIP3    H240704   6.602   6.100  10.414 -0.0675  0.3681  0.4328
 6405TIP3   OH240705   1.799   1.290  16.913  0.0317  0.1762  0.2527
 6405TIP3    H140706   1.747   1.209  16.917  2.1452 -1.2069  1.4577
 6405TIP3    H240707   1.745   1.350  16.860 -2.3504 -1.4299  0.6734
 6406TIP3   OH240708   1.120   5.724   2.333  0.0802  0.1593  0.0759
 6406TIP3    H140709   1.079   5.757   2.413  1.8362 -0.5866  1.3292
 6406TIP3    H240710   1.182   5.792   2.307 -0.2578  0.2597 -0.4900
 6407TIP3   OH240711   0.157   0.273  15.671 -0.4779 -0.5703  0.6409
 6407TIP3    H140712   0.171   0.250  15.762 -0.4980 -2.7037  0.1618
 6407TIP3    H240713   0.068   0.308  15.668  0.2594  1.5273  1.7406
 6408TIP3   OH240714   1.345   4.865  12.555 -0.6997  0.6958 -0.0015
 6408TIP3    H140715   1.428   4.913  12.560 -0.9027  1.0400  0.0980
 6408TIP3    H240716   1.278   4.933  12.560 -1.0519  0.2770  2.4939
 6409TIP3   OH240717   2.911   4.569   0.440 -1.0212  0.0707  0.7861
 6409TIP3    H140718   2.853   4.612   0.377 -0.2982  0.2619  0.2396
 6409TIP3    H240719   2.934   4.486   0.398 -0.2534  0.3539  0.6297
 6410TIP3   OH240720   2.457   4.140   2.401 -0.6031  0.2703  0.1844
 6410TIP3    H140721   2.408   4.195   2.341  0.0879 -0.1540 -0.7924
 6410TIP3    H240722   2.405   4.059   2.408 -0.2712 -0.0127 -0.5184
 6411TIP3   OH240723   5.470   4.398  16.202 -0.4007  0.2921  0.7867
 6411TIP3    H140724   5.386   4.378  16.161 -0.6911 -1.5565  2.1549
 6411TIP3    H240725   5.502   4.475  16.155 -1.7085 -0.4057 -1.3805
 6412TIP3   OH240726   0.334   2.801   3.569  0.6665  0.0347 -0.3375
 6412TIP3    H140727   0.330   2.885   3.523 -0.1800  0.9078  1.2404
 6412TIP3    H240728   0.354   2.737   3.501 -1.1086  1.1721 -2.0476
 6413TIP3   OH240729   4.967   1.704  17.114 -0.0010  0.3487  0.1928
 6413TIP3    H140730   5.005   1.703  17.027 -0.1228 -0.1610  0.1450
 6413TIP3    H240731   4.893   1.765  17.107 -0.0496  0.2603 -0.0766
 6414TIP3   OH240732   1.071   4.088   3.552  0.3191 -0.1596 -0.4124
 6414TIP3    H140733   1.162   4.078   3.523 -0.0722 -0.9716 -1.4533
 6414TIP3    H240734   1.077   4.139   3.633  1.7735 -1.0121  0.0642
 6415TIP3   OH240735   3.516   2.162  15.684  0.1921 -0.5632 -0.2473
 6415TIP3    H140736   3.490   2.237  15.632  1.0339  0.2662  0.4909
 6415TIP3    H240737   3.439   2.140  15.736 -0.3419 -0.7944 -1.1108
 6416TIP3   OH240738   1.019   5.062   2.523  0.1564 -0.2876 -0.5016
 6416TIP3    H140739   0.958   5.028   2.588  1.3069  1.1058  1.3957
 6416TIP3    H240740   1.103   5.023   2.546  1.1129  2.2028  0.5606
 6417TIP3   OH240741   4.938   2.165  11.027 -0.6214  0.1483 -0.1624
 6417TIP3    H140742   4.897   2.205  11.103 -1.4801 -0.3518 -0.3320
 6417TIP3    H240743   4.958   2.075  11.055  0.5811  0.4487 -0.0178
 6418TIP3   OH240744   3.262   6.651  16.644 -0.8480 -0.2823 -0.5912
 6418TIP3    H140745   3.182   6.598  16.645  0.2887 -2.2013  2.3612
 6418TIP3    H240746   3.332   6.587  16.628  0.3633  0.7525  0.4444
 6419TIP3   OH240747   4.313   4.764   4.421 -0.1493  0.1348 -0.1048
 6419TIP3    H140748   4.306   4.773   4.326 -3.9144 -1.0754 -0.1138
 6419TIP3    H240749   4.238   4.710   4.445  1.8640 -1.4537  3.3728
 6420TIP3   OH240750   6.081   3.654   2.623  0.0631  0.2520  0.1461
 6420TIP3    H140751   6.038   3.731   2.661 -0.6285  0.1117 -0.3243
 6420TIP3    H240752   6.009   3.602   2.588  0.4549 -0.9686  1.0826
 6421TIP3   OH240753   0.691   4.163  10.994 -0.1143  0.3926  0.5225
 6421TIP3    H140754   0.687   4.068  10.985  0.1829  0.3847  0.4699
 6421TIP3    H240755   0.776   4.180  11.034 -0.3149  0.6126  0.8614
 6422TIP3   OH240756   1.807   1.807   0.086 -0.3539 -0.9287 -0.1566
 6422TIP3    H140757   1.825   1.901   0.093 -0.3168 -0.9734  0.3579
 6422TIP3    H240758   1.741   1.800   0.017 -0.6406 -0.4868  0.0690
 6423TIP3   OH240759   6.460   2.777   2.568 -0.3196  0.4517 -0.6847
 6423TIP3    H140760   6.447   2.855   2.622  0.6095  0.3067 -0.2243
 6423TIP3    H240761   6.388   2.718   2.592  0.2002  0.3043  0.5742
 6424TIP3   OH240762   4.570   2.781  15.309 -0.4393  0.1113  0.2240
 6424TIP3    H140763   4.499   2.740  15.358  1.0363 -0.0819  2.3114
 6424TIP3    H240764   4.634   2.806  15.375  0.5255  2.1935 -1.3776
 6425TIP3   OH240765   3.740   0.644  16.615  0.0065  0.7183  0.1962
 6425TIP3    H140766   3.690   0.721  16.642 -0.1216  0.4686  0.6739
 6425TIP3    H240767   3.783   0.614  16.695 -1.8711 -1.1494  0.5851
 6426TIP3   OH240768   1.677   5.236  13.458 -0.0336  0.6237 -0.0697
 6426TIP3    H140769   1.633   5.165  13.411  0.1262 -0.2696  1.0802
 6426TIP3    H240770   1.760   5.248  13.411 -0.7780  1.2083 -1.2709
 6427TIP3   OH240771   4.284   2.143   0.399 -0.2479 -0.5270 -0.1013
 6427TIP3    H140772   4.283   2.187   0.484 -0.2123 -1.0531  0.1705
 6427TIP3    H240773   4.359   2.181   0.353 -0.7766  0.3938 -0.2394
 6428TIP3   OH240774   4.269   4.300   5.187 -0.1882 -0.5282 -0.5404
 6428TIP3    H140775   4.347   4.245   5.177  0.4956  0.6114 -1.7695
 6428TIP3    H240776   4.210   4.248   5.241  0.0331 -2.8975 -2.4189
 6429TIP3   OH240777   6.353   3.288  14.067  0.2070  0.2737  0.3223
 6429TIP3    H140778   6.261   3.276  14.088  0.1914  1.4331  1.0071
 6429TIP3    H240779   6.397   3.294  14.152  1.3637 -2.9743  0.0875
 6430TIP3   OH240780   1.429   3.300   1.926 -0.1477  0.1910  0.3287
 6430TIP3    H140781   1.470   3.381   1.897  3.0824 -1.2884  0.3843
 6430TIP3    H240782   1.420   3.248   1.846  1.4649 -0.8440  0.7715
 6431TIP3   OH240783   2.581   1.429  12.737 -0.8001 -0.0467  0.3284
 6431TIP3    H140784   2.642   1.381  12.680 -1.3611  0.1895 -0.4992
 6431TIP3    H240785   2.509   1.367  12.752 -1.5876  0.5481 -0.8501
 6432TIP3   OH240786   2.482   6.294   3.075  0.5143  0.0375 -0.2662
 6432TIP3    H140787   2.543   6.220   3.071  1.2318  0.6447 -0.7581
 6432TIP3    H240788   2.486   6.334   2.988  0.4625  0.9078  0.1203
 6433TIP3   OH240789   5.300   4.622   3.334  0.2354 -0.5221  0.2897
 6433TIP3    H140790   5.347   4.701   3.307 -2.6942  0.1476 -3.8043
 6433TIP3    H240791   5.233   4.653   3.395 -1.3055  0.4274 -1.7778
 6434TIP3   OH240792   0.350   2.568   3.408  0.1302  0.8622  0.2869
 6434TIP3    H140793   0.356   2.517   3.488  0.4736  1.5276  0.6925
 6434TIP3    H240794   0.346   2.503   3.338 -0.7097  0.2713  0.8751
 6435TIP3   OH240795   1.865   3.284   5.265 -0.5576  0.1617 -0.0201
 6435TIP3    H140796   1.771   3.302   5.270 -0.8065 -1.3518  2.4432
 6435TIP3    H240797   1.903   3.336   5.336  0.0970 -1.0674  0.5585
 6436TIP3   OH240798   1.413   4.458  12.311 -0.2797 -0.2734 -0.3993
 6436TIP3    H140799   1.320   4.468  12.293 -0.0717  0.5192 -1.0849
 6436TIP3    H240800   1.454   4.536  12.272  0.8041 -1.1872 -1.1688
 6437TIP3   OH240801   5.984   5.033  16.958 -0.0914 -0.3351  0.1246
 6437TIP3    H140802   5.970   4.955  17.012  0.1915 -1.4642 -1.3784
 6437TIP3    H240803   5.899   5.076  16.956 -0.4093 -0.9361  0.4670
 6438TIP3   OH240804   2.754   0.855   0.638  0.0587  0.4680  0.7211
 6438TIP3    H140805   2.744   0.923   0.704 -1.2332 -0.4663  1.5305
 6438TIP3    H240806   2.770   0.775   0.688 -2.3727 -0.5264  0.0634
 6439TIP3   OH240807   3.720   3.433  12.498 -0.3649  0.0542 -0.5233
 6439TIP3    H140808   3.799   3.479  12.470  0.1372 -0.6553 -0.2913
 6439TIP3    H240809   3.753   3.356  12.545 -1.1989 -0.4875 -0.8206
 6440TIP3   OH240810   4.011   2.748  13.184  0.1272  0.8048 -0.6120
 6440TIP3    H140811   4.026   2.791  13.099  0.7695  1.8261 -0.0007
 6440TIP3    H240812   4.099   2.739  13.222 -0.0726 -0.3938 -0.3967
 6441TIP3   OH240813   6.656   1.904   0.184 -0.3810 -0.4112  1.0801
 6441TIP3    H140814   6.603   1.825   0.197 -1.7083  0.3817  0.6928
 6441TIP3    H240815   6.592   1.973   0.169  0.7892  0.3860 -0.5023
 6442TIP3   OH240816   2.480   6.772   1.125  0.1377  0.2281  0.7116
 6442TIP3    H140817   2.530   6.854   1.122 -1.0064  0.9546  0.9237
 6442TIP3    H240818   2.536   6.709   1.079 -0.0032  1.6928 -1.6417
 6443TIP3   OH240819   2.683   3.381  13.398 -0.6610  0.3548 -0.3270
 6443TIP3    H140820   2.770   3.347  13.418 -0.2372  0.9362 -1.0927
 6443TIP3    H240821   2.696   3.432  13.318 -1.5449  1.1137 -0.0009
 6444TIP3   OH240822   2.017   6.071  11.923  0.2860 -0.1636  0.2885
 6444TIP3    H140823   2.047   6.015  11.994  0.7188  0.2275  0.4188
 6444TIP3    H240824   2.025   6.017  11.844  3.6929  0.6333 -0.0855
 6445TIP3   OH240825   2.239   5.185   3.659  0.2424  0.7659 -0.6437
 6445TIP3    H140826   2.302   5.205   3.728  0.1432  1.6014 -0.7894
 6445TIP3    H240827   2.208   5.270   3.629 -0.7396  0.3751 -0.7741
 6446TIP3   OH240828   6.629   2.761   0.690  0.8115 -0.2069  0.1610
 6446TIP3    H140829   6.672   2.698   0.632  2.3398  0.7451  0.2035
 6446TIP3    H240830   6.607   2.835   0.634  0.2204 -0.2241  0.3657
 6447TIP3   OH240831   0.711   2.476   2.747 -0.0130  0.2093  0.1603
 6447TIP3    H140832   0.698   2.416   2.821  0.6327  0.8424  0.8107
 6447TIP3    H240833   0.656   2.552   2.769  0.6082  0.6305  0.2673
 6448TIP3   OH240834   3.713   0.679  16.038  0.1127  1.0304 -0.0119
 6448TIP3    H140835   3.660   0.644  16.109 -2.4867 -0.8257 -2.6750
 6448TIP3    H240836   3.783   0.615  16.026 -0.0958  0.7697  0.1654
 6449TIP3   OH240837   5.941   0.112   1.326 -0.4430  0.3586 -0.4689
 6449TIP3    H140838   5.961   0.024   1.293  0.6589 -1.1752  3.6789
 6449TIP3    H240839   5.845   0.115   1.328 -0.5148 -1.3283  0.4679
 6450TIP3   OH240840   4.017   1.057  14.361  0.0010  0.3291  0.4139
 6450TIP3    H140841   3.946   1.078  14.422 -0.3400 -0.3736  0.2670
 6450TIP3    H240842   3.981   1.076  14.275 -0.4570 -1.1535  0.2426
 6451TIP3   OH240843   1.178   3.828  14.382  0.6447  0.5057 -0.6024
 6451TIP3    H140844   1.242   3.821  14.311 -0.1615  0.2578 -1.3238
 6451TIP3    H240845   1.115   3.892  14.351 -1.0258 -1.3040 -1.1966
 6452TIP3   OH240846   3.849   5.855  13.702  0.6614 -0.1423 -0.7363
 6452TIP3    H140847   3.780   5.799  13.737 -0.8807  2.3957  0.5883
 6452TIP3    H240848   3.916   5.856  13.770  1.1930 -1.1241 -1.2164
 6453TIP3   OH240849   6.671   1.165  15.969 -0.1440 -0.4321  0.1418
 6453TIP3    H140850   6.575   1.163  15.961 -0.3338 -0.4729  2.1146
 6453TIP3    H240851   6.699   1.078  15.940 -0.6532 -0.2945 -0.8142
 6454TIP3   OH240852   5.842   4.895   5.693 -0.3508  0.2284  0.7158
 6454TIP3    H140853   5.780   4.823   5.679  0.7883 -0.3412 -1.9281
 6454TIP3    H240854   5.908   4.859   5.752 -1.3871  0.1918  1.9168
 6455TIP3   OH240855   3.160   3.081  15.744  0.2002 -0.1651 -0.2549
 6455TIP3    H140856   3.072   3.046  15.730  0.3605 -0.4731 -0.4815
 6455TIP3    H240857   3.160   3.165  15.697 -0.5165  0.6591  1.1323
 6456TIP3   OH240858   5.180   0.430  12.204 -0.9471 -0.0581  0.1451
 6456TIP3    H140859   5.112   0.461  12.264 -0.2079 -0.9907  1.5336
 6456TIP3    H240860   5.179   0.334  12.215  0.9360 -0.0694  0.6454
 6457TIP3   OH240861   6.840   3.200   0.630 -0.2120 -0.1322 -0.6050
 6457TIP3    H140862   6.889   3.119   0.622 -0.4933 -0.3371 -0.2513
 6457TIP3    H240863   6.891   3.253   0.692 -1.7995 -1.3996  1.9256
 6458TIP3   OH240864   4.429   1.821   4.442 -0.1890 -0.1344 -0.7559
 6458TIP3    H140865   4.399   1.901   4.485  0.9410  0.1884 -0.5293
 6458TIP3    H240866   4.473   1.851   4.363  2.6466 -0.2481  0.6556
 6459TIP3   OH240867   1.198   6.065   2.407 -0.2322  0.2820 -0.6167
 6459TIP3    H140868   1.111   6.031   2.426 -0.3791  0.8569 -0.2397
 6459TIP3    H240869   1.183   6.145   2.357  0.0929  0.1332 -0.9615
 6460TIP3   OH240870   4.207   2.736  10.927  0.5247 -0.3617 -0.1162
 6460TIP3    H140871   4.237   2.805  10.867  0.4263  0.2629  0.5368
 6460TIP3    H240872   4.115   2.722  10.904  0.1242  0.7766  0.7046
 6461TIP3   OH240873   3.195   5.603  13.187 -0.3633 -0.0463  0.1205
 6461TIP3    H140874   3.141   5.539  13.141 -0.5090 -0.0051  0.2306
 6461TIP3    H240875   3.281   5.597  13.146 -0.7045  0.5697 -0.7211
 6462TIP3   OH240876   2.916   4.050  11.751  0.0236 -0.5745 -0.1436
 6462TIP3    H140877   2.930   4.098  11.669  0.0798 -1.1509 -0.4766
 6462TIP3    H240878   2.876   3.967  11.724 -0.9259 -0.3405  0.5015
 6463TIP3   OH240879   4.705   1.815  13.166  0.0325 -0.1414 -0.0810
 6463TIP3    H140880   4.786   1.839  13.122  1.6417 -1.9079  1.7547
 6463TIP3    H240881   4.655   1.767  13.100  1.0748 -0.1943 -0.8442
 6464TIP3   OH240882   1.308   1.951   1.717  0.0445 -0.0085  0.7497
 6464TIP3    H140883   1.274   2.038   1.739 -1.1724  0.0561 -1.0857
 6464TIP3    H240884   1.231   1.904   1.683  0.8832 -1.4663  0.8049
 6465TIP3   OH240885   1.510   1.467  16.993  0.0916  0.3985  0.6006
 6465TIP3    H140886   1.421   1.476  16.961  0.7319 -1.6334 -2.1403
 6465TIP3    H240887   1.565   1.497  16.921  1.6240 -2.2251  0.5655
 6466TIP3   OH240888   2.487   6.006   4.784 -0.1995  0.5143 -0.0105
 6466TIP3    H140889   2.446   6.091   4.799 -0.4396  0.7365 -1.7235
 6466TIP3    H240890   2.567   6.026   4.736 -0.1322 -0.1942 -0.2022
 6467TIP3   OH240891   5.508   5.822  11.254 -0.4089 -0.0453  0.0067
 6467TIP3    H140892   5.466   5.814  11.168  0.1002  1.3477 -0.3936
 6467TIP3    H240893   5.536   5.913  11.259  1.5373 -0.6333  0.7299
 6468TIP3   OH240894   3.658   0.271   4.888 -0.1929  0.4627  0.1525
 6468TIP3    H140895   3.658   0.338   4.956  1.4894  0.2809  0.3743
 6468TIP3    H240896   3.675   0.318   4.807  2.0785  0.2675  0.4393
 6469TIP3   OH240897   5.609   1.386  13.929  0.4178 -0.7377  0.2833
 6469TIP3    H140898   5.595   1.306  13.979  2.3689 -0.6331  1.0627
 6469TIP3    H240899   5.698   1.379  13.895  0.7111  1.1693  0.5110
 6470TIP3   OH240900   2.026   6.783  12.568 -0.3664  0.1371 -0.1522
 6470TIP3    H140901   2.102   6.837  12.543  0.4954  0.2896  2.5038
 6470TIP3    H240902   1.957   6.847  12.585 -0.3636  0.1622 -0.2326
 6471TIP3   OH240903   5.828   6.308  14.349 -0.0958 -0.0968 -0.0286
 6471TIP3    H140904   5.819   6.218  14.318  0.1761 -0.1327 -0.0093
 6471TIP3    H240905   5.801   6.363  14.275  0.4533 -0.1831 -0.2971
 6472TIP3   OH240906   4.119   1.945   0.701 -0.1874 -0.0751  0.3488
 6472TIP3    H140907   4.169   1.868   0.674 -0.3063  0.0045 -0.0939
 6472TIP3    H240908   4.029   1.914   0.708 -0.4764  0.3384 -1.1874
 6473TIP3   OH240909   0.154   4.333   3.526  0.0844 -0.6725 -0.4559
 6473TIP3    H140910   0.091   4.263   3.546  1.0152 -0.9047  2.0676
 6473TIP3    H240911   0.109   4.414   3.550  0.3738 -0.7733  0.5026
 6474TIP3   OH240912   0.526   6.658   4.968  0.3255 -0.4293  0.1214
 6474TIP3    H140913   0.594   6.591   4.977  0.7951 -0.0739 -0.6725
 6474TIP3    H240914   0.574   6.740   4.954 -0.2637 -0.2655 -1.0756
 6475TIP3   OH240915   0.034   3.259  13.452 -0.1838 -0.8784  0.1289
 6475TIP3    H140916   0.013   3.343  13.411 -1.2182 -0.1575  2.0178
 6475TIP3    H240917   0.060   3.203  13.379  2.1947  1.5193 -1.0547
 6476TIP3   OH240918   1.083   0.139  14.862  0.0803 -0.0732  0.1628
 6476TIP3    H140919   1.113   0.053  14.832 -0.0983  0.6684 -2.3825
 6476TIP3    H240920   1.142   0.162  14.934  0.6101 -1.9650  0.3727
 6477TIP3   OH240921   3.389   3.987   0.140  0.2173 -0.0593 -0.1196
 6477TIP3    H140922   3.441   4.041   0.081  0.8470 -1.9050 -1.3705
 6477TIP3    H240923   3.451   3.958   0.207  0.0581  0.1654  0.1278
 6478TIP3   OH240924   1.463   5.949  13.382  0.4453 -0.0185  0.3881
 6478TIP3    H140925   1.467   6.030  13.332 -0.7188  0.3190  0.8266
 6478TIP3    H240926   1.525   5.962  13.454  0.9556  0.0956 -0.0587
 6479TIP3   OH240927   1.893   4.940  13.481  0.1256 -0.3345  0.2119
 6479TIP3    H140928   1.878   5.017  13.535 -0.5578 -0.7557  0.6372
 6479TIP3    H240929   1.856   4.867  13.532  0.4320 -0.8879 -0.3419
 6480TIP3   OH240930   5.276   6.707  10.906  0.6860 -0.2904  0.3131
 6480TIP3    H140931   5.232   6.792  10.915  1.0254 -0.1597  0.7801
 6480TIP3    H240932   5.204   6.644  10.897  0.4452  0.1780 -1.4689
 6481TIP3   OH240933   5.541   4.962   5.910  0.2190  0.1937  0.3301
 6481TIP3    H140934   5.600   5.005   5.972 -0.9380 -0.1104  1.6923
 6481TIP3    H240935   5.470   4.927   5.964  0.3931 -2.2323 -0.8557
 6482TIP3   OH240936   5.457   0.655  13.630  0.0601  0.0055  0.0666
 6482TIP3    H140937   5.495   0.567  13.634  0.4161  0.1137 -0.8017
 6482TIP3    H240938   5.478   0.694  13.715  2.3118  0.2367 -0.5444
 6483TIP3   OH240939   1.295   6.469   4.015  0.1327 -0.1548  0.2075
 6483TIP3    H140940   1.273   6.520   4.092 -1.8344 -0.2047 -0.2848
 6483TIP3    H240941   1.378   6.427   4.038 -0.3067 -0.0357  2.2124
 6484TIP3   OH240942   0.975   6.274  12.858  0.0414 -0.1463 -0.4193
 6484TIP3    H140943   0.922   6.350  12.834  1.5207  0.8257 -0.7398
 6484TIP3    H240944   1.037   6.308  12.922  0.2969 -1.2565 -0.0589
 6485TIP3   OH240945   6.242   6.641  17.021  0.3140 -0.0650 -0.1004
 6485TIP3    H140946   6.275   6.671  17.106  0.3845 -0.1364 -0.1030
 6485TIP3    H240947   6.152   6.614  17.039 -0.1368  1.2282 -0.3240
 6486TIP3   OH240948   1.085   0.945  15.519  1.0638  0.6743 -0.1554
 6486TIP3    H140949   1.006   0.927  15.469 -0.4245  2.0038  1.5867
 6486TIP3    H240950   1.128   1.017  15.472  1.5280 -0.3538 -1.3546
 6487TIP3   OH240951   3.960   2.315  15.454 -0.1214 -0.2695  0.5232
 6487TIP3    H140952   3.866   2.312  15.441 -0.0363  0.3356 -0.3647
 6487TIP3    H240953   3.995   2.335  15.367  0.7797  0.1356  0.9650
 6488TIP3   OH240954   4.831   3.840  15.779 -0.3722 -0.0932  0.0712
 6488TIP3    H140955   4.755   3.808  15.827 -0.4759  1.0027  0.6676
 6488TIP3    H240956   4.906   3.809  15.831 -0.4930  2.1959  1.7818
 6489TIP3   OH240957   2.183   0.436  13.108 -0.4362 -0.2116 -0.3733
 6489TIP3    H140958   2.249   0.495  13.072 -0.5173  1.1572  1.5664
 6489TIP3    H240959   2.126   0.492  13.159 -1.7804 -1.7034 -0.1617
 6490TIP3   OH240960   6.488   4.309  13.039  0.2321  0.0983  0.2006
 6490TIP3    H140961   6.439   4.261  13.105 -0.2516 -1.2617 -1.1132
 6490TIP3    H240962   6.550   4.362  13.089  0.1553 -1.2036  1.7272
 6491TIP3   OH240963   3.437   4.780  11.057 -0.0424  0.1335 -0.1338
 6491TIP3    H140964   3.436   4.873  11.032  0.0683  0.0511 -0.4475
 6491TIP3    H240965   3.529   4.762  11.076 -0.2281  0.3949  1.1041
 6492TIP3   OH240966   6.557   0.514   2.377 -0.2029  0.3613  0.3542
 6492TIP3    H140967   6.575   0.424   2.404 -1.2449 -0.2515 -0.8863
 6492TIP3    H240968   6.643   0.558   2.379  0.0015  0.0455  3.2732
 6493TIP3   OH240969   5.037   4.844   3.754 -0.5981 -0.0670  0.7757
 6493TIP3    H140970   4.955   4.795   3.745  0.2394 -1.4200  0.2638
 6493TIP3    H240971   5.077   4.809   3.833  0.2489 -0.6039  0.1249
 6494TIP3   OH240972   4.565   5.551  12.737 -0.6437  0.0852 -0.5573
 6494TIP3    H140973   4.550   5.461  12.708  0.9793 -0.1868 -0.6337
 6494TIP3    H240974   4.479   5.582  12.765 -1.2879 -1.3649 -0.8541
 6495TIP3   OH240975   5.526   3.275   2.295 -0.5464 -0.9149  0.2557
 6495TIP3    H140976   5.462   3.309   2.232 -0.7434 -0.7559  0.5393
 6495TIP3    H240977   5.611   3.303   2.261 -0.7154  0.0800  0.6043
 6496TIP3   OH240978   4.720   2.083   6.252  0.0774  0.4464 -0.1866
 6496TIP3    H140979   4.722   2.004   6.307 -4.1134  1.5061  1.8564
 6496TIP3    H240980   4.768   2.148   6.303 -2.1444  0.8931  1.4707
 6497TIP3   OH240981   4.108   4.126   5.284 -0.4669 -0.3070  0.2558
 6497TIP3    H140982   4.137   4.039   5.312 -0.2342 -1.0082 -2.0019
 6497TIP3    H240983   4.054   4.110   5.207  1.9176  1.7127 -1.9967
 6498TIP3   OH240984   3.572   4.036  15.691 -0.4168  0.5961 -0.4509
 6498TIP3    H140985   3.483   4.002  15.686 -0.5762  1.0325 -0.6171
 6498TIP3    H240986   3.562   4.130  15.705 -0.0078  0.2395  3.1627
 6499TIP3   OH240987   4.928   2.903  15.951  0.7457 -0.9276 -0.0497
 6499TIP3    H140988   4.914   2.990  15.989  2.7812 -1.8711  3.2557
 6499TIP3    H240989   5.011   2.910  15.905 -0.5627 -0.4467 -2.5419
 6500TIP3   OH240990   3.534   1.432  16.348 -0.6583  0.0797 -0.6442
 6500TIP3    H140991   3.624   1.400  16.337 -1.6352 -3.2346 -0.0240
 6500TIP3    H240992   3.479   1.354  16.342 -3.6480  2.0943 -1.9299
 6501TIP3   OH240993   2.874   4.061  16.370  0.2114  0.2858 -0.0895
 6501TIP3    H140994   2.831   4.027  16.448  1.2099  0.5111  0.5821
 6501TIP3    H240995   2.967   4.041  16.384  0.4353  0.6055 -1.0751
 6502TIP3   OH240996   3.873   1.781   2.046 -0.0226 -0.7222 -0.3432
 6502TIP3    H140997   3.967   1.797   2.038  0.0474  0.0179  1.5330
 6502TIP3    H240998   3.863   1.733   2.128 -1.2179 -1.5688 -0.9558
 6503TIP3   OH240999   1.580   1.990   3.682  0.1255 -0.1248 -1.4934
 6503TIP3    H141000   1.533   1.909   3.705 -1.7683  0.8695 -1.6398
 6503TIP3    H241001   1.648   1.998   3.749 -0.9765 -0.7914 -0.2470
 6504TIP3   OH241002   2.877   2.532   5.411  0.3670 -0.2714 -0.5413
 6504TIP3    H141003   2.886   2.609   5.467 -0.0492 -1.3735  1.1151
 6504TIP3    H241004   2.957   2.530   5.359  2.0366 -0.6375  1.9000
 6505TIP3   OH241005   5.568   1.723   0.649 -0.4323  0.9202  0.0853
 6505TIP3    H141006   5.539   1.722   0.740  0.5657  1.7493  0.4270
 6505TIP3    H241007   5.658   1.753   0.652  0.9918 -2.7041 -0.8359
 6506TIP3   OH241008   5.200   6.628  12.041  0.2552 -0.2048  0.1802
 6506TIP3    H141009   5.121   6.584  12.008  0.2123 -0.8918  1.1321
 6506TIP3    H241010   5.210   6.705  11.985 -0.3286 -0.8235 -0.8085
 6507TIP3   OH241011   0.257   6.384  15.628  0.4002 -0.0771 -0.4200
 6507TIP3    H141012   0.315   6.319  15.667  0.8393  0.5077 -0.0760
 6507TIP3    H241013   0.210   6.422  15.702 -0.6606 -0.7552 -0.7224
 6508TIP3   OH241014   0.167   2.786  14.034  0.2363 -0.5809 -0.0337
 6508TIP3    H141015   0.199   2.761  14.120  1.9678 -1.3910 -0.8509
 6508TIP3    H241016   0.134   2.704  13.996  1.8760 -0.7974 -1.0771
 6509TIP3   OH241017   4.931   0.217   1.903 -0.4403 -0.3662  0.6127
 6509TIP3    H141018   4.912   0.128   1.874 -0.5574  0.6724 -2.8323
 6509TIP3    H241019   4.851   0.266   1.884  0.7342  1.1312 -0.6453
 6510TIP3   OH241020   6.637   2.573   4.084 -0.8436  0.6923  0.4312
 6510TIP3    H141021   6.654   2.590   4.177  0.0861 -0.0901  0.4144
 6510TIP3    H241022   6.595   2.487   4.083 -0.0401  0.2954  0.0705
 6511TIP3   OH241023   3.659   5.578  10.575 -0.1560  0.6327 -0.5281
 6511TIP3    H141024   3.723   5.579  10.504  0.3540  0.9933 -0.0726
 6511TIP3    H241025   3.662   5.667  10.610 -0.9741  0.6734 -0.5605
 6512TIP3   OH241026   6.479   6.433   1.467  0.7512  0.3996 -0.0279
 6512TIP3    H141027   6.405   6.379   1.493  0.9109 -0.0506 -0.4782
 6512TIP3    H241028   6.517   6.465   1.549  1.5091 -1.3224  0.3339
 6513TIP3   OH241029   1.845   5.544  11.826 -0.0152  0.0512 -0.3594
 6513TIP3    H141030   1.898   5.470  11.853  1.0878  0.9313 -0.0058
 6513TIP3    H241031   1.837   5.598  11.904 -3.4872 -1.1590  0.2778
 6514TIP3   OH241032   1.675   3.629   5.766 -0.1949  0.2149  0.1517
 6514TIP3    H141033   1.727   3.561   5.723 -1.0609  0.1083 -0.7673
 6514TIP3    H241034   1.731   3.706   5.766  0.9232 -0.5542  1.4980
 6515TIP3   OH241035   6.013   1.245  15.197 -0.1098  0.3716 -0.1387
 6515TIP3    H141036   5.992   1.210  15.283 -1.2755  2.6206  0.5866
 6515TIP3    H241037   6.108   1.255  15.197  0.0759 -1.1334  0.2210
 6516TIP3   OH241038   6.183   6.365   6.331  0.4414 -0.1509 -0.3529
 6516TIP3    H141039   6.227   6.404   6.407 -0.6340  0.1280  0.1499
 6516TIP3    H241040   6.091   6.391   6.341  0.1601 -0.7097 -1.3755
 6517TIP3   OH241041   2.459   2.400   3.354 -0.3239 -0.5544  0.8422
 6517TIP3    H141042   2.389   2.455   3.387  0.4270  1.6867 -1.0124
 6517TIP3    H241043   2.539   2.438   3.390  0.1622 -0.8545  0.1181
 6518TIP3   OH241044   6.409   1.152  10.750 -0.0719 -0.0046 -0.0216
 6518TIP3    H141045   6.394   1.081  10.688 -0.3374 -0.8909  1.0378
 6518TIP3    H241046   6.418   1.230  10.695 -2.3773 -0.4112 -1.0896
 6519TIP3   OH241047   0.952   6.522  12.719  0.7331 -0.5343 -0.2566
 6519TIP3    H141048   1.042   6.499  12.743  0.1922 -0.0819  2.6011
 6519TIP3    H241049   0.946   6.615  12.740  0.0430 -0.1393 -2.0650
 6520TIP3   OH241050   4.585   1.824  12.026  0.3924  0.4936 -0.1288
 6520TIP3    H141051   4.593   1.820  11.930  1.5748 -1.6807 -0.0032
 6520TIP3    H241052   4.494   1.851  12.040 -0.3121 -0.6815 -1.9111
 6521TIP3   OH241053   4.539   1.168   5.966 -0.2134  0.1072  0.2918
 6521TIP3    H141054   4.498   1.185   6.051  1.2896  0.1811  1.0344
 6521TIP3    H241055   4.604   1.238   5.957 -0.1818 -0.0528 -0.8100
 6522TIP3   OH241056   6.708   5.233   4.960 -0.1183  0.3421 -0.1815
 6522TIP3    H141057   6.616   5.262   4.958 -0.6702 -1.2793  0.0998
 6522TIP3    H241058   6.708   5.157   5.018  1.5292  0.6565  0.2800
 6523TIP3   OH241059   0.319   0.819   4.110  0.3789  0.2078  0.0186
 6523TIP3    H141060   0.332   0.777   4.195  1.3052  1.2596  0.4245
 6523TIP3    H241061   0.231   0.858   4.115  0.4466  0.2975  0.5046
 6524TIP3   OH241062   3.132   6.412  16.606  0.0273  0.2534 -0.2575
 6524TIP3    H141063   3.124   6.326  16.565  0.7820  0.2068 -0.3253
 6524TIP3    H241064   3.122   6.396  16.699  1.5799 -0.1235 -0.1382
 6525TIP3   OH241065   6.184   2.879  12.149  0.9673  0.4178 -0.2350
 6525TIP3    H141066   6.123   2.836  12.089  2.0073 -0.4090 -0.7185
 6525TIP3    H241067   6.269   2.839  12.131  1.3145  0.0845  1.8366
 6526TIP3   OH241068   6.729   5.898   2.870 -0.0427  0.6128 -0.1058
 6526TIP3    H141069   6.750   5.892   2.963 -0.1531  0.8528 -0.0660
 6526TIP3    H241070   6.773   5.822   2.831 -0.9596 -0.1561  0.3173
 6527TIP3   OH241071   5.414   6.580  10.722 -0.4989 -0.6989 -0.0607
 6527TIP3    H141072   5.374   6.622  10.646  1.6820  1.5224 -0.1030
 6527TIP3    H241073   5.385   6.632  10.796  1.7363  0.6908 -0.0498
 6528TIP3   OH241074   1.809   6.770  11.313  0.1518  0.1858  0.0951
 6528TIP3    H141075   1.856   6.687  11.319  0.6584  0.1400 -2.9469
 6528TIP3    H241076   1.878   6.836  11.304 -0.2813  0.8907  1.5320
 6529TIP3   OH241077   4.131   3.642  16.080 -0.1911  0.2735 -0.1613
 6529TIP3    H141078   4.183   3.720  16.061 -0.8985  0.9532  0.6209
 6529TIP3    H241079   4.042   3.675  16.091 -0.1239 -0.2598  2.7018
 6530TIP3   OH241080   5.713   4.554  15.522 -0.0529 -0.1955  0.0961
 6530TIP3    H141081   5.644   4.619  15.509  0.0203  0.0759  0.9886
 6530TIP3    H241082   5.789   4.605  15.550  0.0868 -0.6332  0.5355
 6531TIP3   OH241083   4.966   5.458   5.325  0.2844  0.1342 -0.1400
 6531TIP3    H141084   4.945   5.369   5.296 -0.9966  0.9333 -1.8529
 6531TIP3    H241085   4.882   5.498   5.347  0.8081  1.0137  0.3557
 6532TIP3   OH241086   6.741   2.947   3.576 -0.4680  0.3380 -0.1562
 6532TIP3    H141087   6.818   2.995   3.605  0.8433 -0.7238 -1.6824
 6532TIP3    H241088   6.746   2.948   3.481 -1.8571 -0.5397 -0.2752
 6533TIP3   OH241089   1.936   4.326  13.899  0.5575 -0.1914  0.0361
 6533TIP3    H141090   1.860   4.379  13.925 -0.3500 -1.8516  0.9152
 6533TIP3    H241091   1.944   4.260  13.967  2.6807 -0.2255 -0.1805
 6534TIP3   OH241092   0.796   2.713   2.564  0.1602  0.0267  0.0379
 6534TIP3    H141093   0.718   2.696   2.617  0.6035 -0.5008  0.5380
 6534TIP3    H241094   0.766   2.707   2.474 -0.8087  1.8858  0.2077
 6535TIP3   OH241095   2.823   5.994   2.229 -0.2397 -0.1673 -0.3888
 6535TIP3    H141096   2.777   5.991   2.145  0.2141 -2.1666 -0.6008
 6535TIP3    H241097   2.870   6.078   2.226  2.3009 -1.4703 -3.5565
 6536TIP3   OH241098   2.012   2.135   1.315  0.4363 -0.3367 -0.8090
 6536TIP3    H141099   1.992   2.101   1.228 -2.6756 -0.4127 -0.1773
 6536TIP3    H241100   1.927   2.159   1.352  1.0954 -3.4921  3.5613
 6537TIP3   OH241101   5.232   6.718   5.385  0.2130 -0.3647  0.3877
 6537TIP3    H141102   5.224   6.623   5.375 -1.9849 -0.0878 -1.3471
 6537TIP3    H241103   5.326   6.733   5.398  0.5817 -2.7709  1.0252
 6538TIP3   OH241104   3.842   1.394  10.565 -0.6047 -0.1449  0.1787
 6538TIP3    H141105   3.772   1.460  10.562 -1.7232 -1.3056 -1.1178
 6538TIP3    H241106   3.808   1.322  10.511  0.0383 -2.3030  2.4870
 6539TIP3   OH241107   2.185   4.088   0.088  0.7163  0.1098  0.2939
 6539TIP3    H141108   2.130   4.092   0.010 -0.1382  0.0739  0.8806
 6539TIP3    H241109   2.133   4.042   0.153  1.8882 -0.9477  0.5239
 6540TIP3   OH241110   2.077   5.205   4.301 -0.1530  0.0001 -0.0161
 6540TIP3    H141111   2.147   5.199   4.366 -1.0843  0.2922  1.0470
 6540TIP3    H241112   2.116   5.251   4.227  1.3336 -1.5687 -0.2615
 6541TIP3   OH241113   4.307   1.192   2.413 -0.2301 -0.1524  0.0427
 6541TIP3    H141114   4.360   1.261   2.374 -1.3464  0.9009  0.3476
 6541TIP3    H241115   4.242   1.171   2.346 -1.2624  0.6610  0.7552
 6542TIP3   OH241116   2.767   1.547  10.295 -0.2648 -0.3286 -0.5218
 6542TIP3    H141117   2.825   1.476  10.264 -0.1851  0.5137 -2.4398
 6542TIP3    H241118   2.823   1.625  10.295 -0.4895 -0.1445  1.0803
 6543TIP3   OH241119   3.676   5.832  15.429 -0.9502 -0.7103 -0.0743
 6543TIP3    H141120   3.751   5.782  15.460 -2.1909 -1.8797  1.1334
 6543TIP3    H241121   3.710   5.921  15.419  0.7875 -1.3528 -0.3268
 6544TIP3   OH241122   1.414   1.550   2.908  0.0292 -0.0376  0.0171
 6544TIP3    H141123   1.329   1.543   2.864 -0.2413 -0.1316  0.5534
 6544TIP3    H241124   1.430   1.645   2.912 -0.5096  0.0293  0.7794
 6545TIP3   OH241125   5.061   5.248  11.992  0.1391 -0.8462 -0.3012
 6545TIP3    H141126   4.971   5.279  12.007  1.3780  2.0247  2.1198
 6545TIP3    H241127   5.092   5.220  12.078  1.7761 -1.2298 -0.9814
 6546TIP3   OH241128   2.346   3.724  16.064 -0.1780  0.1992 -0.3156
 6546TIP3    H141129   2.325   3.789  15.998 -0.5459 -1.3453 -1.7774
 6546TIP3    H241130   2.276   3.660  16.058 -0.9179  0.6134  2.4707
 6547TIP3   OH241131   0.049   0.358  16.635  0.2556  0.1737  0.1942
 6547TIP3    H141132   0.020   0.396  16.718  1.9058  0.6182  0.6040
 6547TIP3    H241133   0.014   0.417  16.568 -1.8760 -0.6894  0.4543
 6548TIP3   OH241134   1.698   3.158  14.597  0.2393 -0.0573  0.6938
 6548TIP3    H141135   1.612   3.153  14.553 -0.3386 -2.6207  1.9378
 6548TIP3    H241136   1.700   3.245  14.635 -1.4415  0.3781 -0.1098
 6549TIP3   OH241137   6.748   4.859  15.574  0.6401  0.0348  0.5383
 6549TIP3    H141138   6.741   4.797  15.501 -1.4051 -0.8195  1.3893
 6549TIP3    H241139   6.788   4.809  15.645  1.3817  0.4765  0.4440
 6550TIP3   OH241140   3.025   4.742  12.309 -0.4462  0.0212 -0.1666
 6550TIP3    H141141   3.044   4.780  12.223 -1.3973 -0.5876 -0.6722
 6550TIP3    H241142   2.990   4.655  12.289 -1.3159  0.1260  0.7962
 6551TIP3   OH241143   1.563   2.589   3.517 -0.4352  0.0194 -0.4864
 6551TIP3    H141144   1.599   2.652   3.580 -2.4249  1.3755 -0.5987
 6551TIP3    H241145   1.621   2.595   3.441 -1.7692  3.5270 -1.4124
 6552TIP3   OH241146   3.902   3.135  12.864  0.2095  0.2913 -0.2418
 6552TIP3    H141147   3.978   3.168  12.912  0.1456  0.5142 -0.2941
 6552TIP3    H241148   3.830   3.138  12.927  0.4498 -0.8463  0.1118
 6553TIP3   OH241149   4.697   0.096   0.432  0.0760  0.0980 -0.0667
 6553TIP3    H141150   4.625   0.146   0.392 -1.4083 -0.3361  1.8988
 6553TIP3    H241151   4.772   0.155   0.426 -0.8127  1.2279 -0.7560
 6554TIP3   OH241152   4.720   4.515   5.665  0.1690  0.8942 -0.1822
 6554TIP3    H141153   4.651   4.548   5.607 -1.2531 -2.4019 -0.5441
 6554TIP3    H241154   4.679   4.511   5.751  0.6312  0.9574  0.0411
 6555TIP3   OH241155   6.272   2.189  13.830 -0.0351  0.0978 -0.5466
 6555TIP3    H141156   6.314   2.217  13.748  1.0755  0.3416  0.0923
 6555TIP3    H241157   6.277   2.265  13.887 -0.5124 -0.1766 -0.1272
 6556TIP3   OH241158   3.248   0.144  13.760  0.4276  0.1111 -0.0621
 6556TIP3    H141159   3.276   0.096  13.683  1.1626 -0.0126  0.2702
 6556TIP3    H241160   3.262   0.083  13.833 -1.4960 -0.2556  0.0392
 6557TIP3   OH241161   6.543   0.958  13.528  0.0348 -0.3834 -0.5656
 6557TIP3    H141162   6.528   0.957  13.433  2.6601  2.1648 -1.1554
 6557TIP3    H241163   6.596   0.881  13.545 -0.6875 -1.0099 -1.0917
 6558TIP3   OH241164   2.320   6.209   4.426 -0.0529  0.3490  0.3757
 6558TIP3    H141165   2.247   6.207   4.364  0.4579  0.2048 -0.2187
 6558TIP3    H241166   2.340   6.301   4.438  0.2410  0.3474 -0.1262
 6559TIP3   OH241167   6.285   4.471   1.330  0.2956 -0.5750  0.3835
 6559TIP3    H141168   6.320   4.551   1.291 -0.2107 -1.4072 -1.9300
 6559TIP3    H241169   6.323   4.468   1.417 -1.1274  3.1451  1.3101
 6560TIP3   OH241170   3.126   1.521  13.582 -0.1885  0.2349  0.2684
 6560TIP3    H141171   3.155   1.612  13.590  1.8492 -0.3300 -0.2741
 6560TIP3    H241172   3.207   1.470  13.578 -1.2760 -1.5024 -0.7565
 6561TIP3   OH241173   2.133   6.819   0.057  0.5437  0.3710  0.5007
 6561TIP3    H141174   2.048   6.823   0.014 -0.0602  1.3648  1.7054
 6561TIP3    H241175   2.193   6.860  -0.005 -0.0256  0.4843  0.0098
 6562TIP3   OH241176   4.071   6.481  16.144 -0.0976  0.6120 -0.7749
 6562TIP3    H141177   4.075   6.433  16.061 -0.6034 -0.1564 -0.3692
 6562TIP3    H241178   4.077   6.414  16.211 -2.0022  0.9544 -0.1854
 6563TIP3   OH241179   5.430   0.345   3.491  0.1354 -0.1679  0.1036
 6563TIP3    H141180   5.335   0.335   3.482  0.2087 -0.3929 -0.4703
 6563TIP3    H241181   5.453   0.292   3.568 -0.2804  0.3745  0.6125
 6564TIP3   OH241182   2.545   2.862  11.882 -0.4009  0.1384  0.0299
 6564TIP3    H141183   2.546   2.768  11.862 -1.6054 -0.1725  1.2807
 6564TIP3    H241184   2.610   2.873  11.951 -0.9531  0.0431  0.5710
 6565TIP3   OH241185   4.407   6.534  12.496  0.3334  0.1045 -0.6144
 6565TIP3    H141186   4.422   6.596  12.567 -1.0860 -0.1402 -0.0697
 6565TIP3    H241187   4.394   6.588  12.418  1.5903  0.3842 -0.6466
 6566TIP3   OH241188   1.982   5.134   3.049 -0.6390  0.0888  0.0670
 6566TIP3    H141189   2.023   5.206   3.001 -2.2494  1.8936  1.2419
 6566TIP3    H241190   2.030   5.128   3.131  2.4628 -3.3538 -1.7249
 6567TIP3   OH241191   5.121   2.546  11.860 -0.1448  0.4224 -0.1803
 6567TIP3    H141192   5.151   2.564  11.770 -0.1285  0.7110 -0.1182
 6567TIP3    H241193   5.055   2.613  11.877  0.6412  1.0654  0.4256
 6568TIP3   OH241194   3.185   5.046   2.235  0.5566  0.1240 -0.6753
 6568TIP3    H141195   3.202   5.054   2.141  2.8379  2.6696 -0.1759
 6568TIP3    H241196   3.246   4.979   2.264 -0.1002 -0.6160 -0.9755
 6569TIP3   OH241197   6.556   0.552  14.701  0.1217  0.5275  0.1639
 6569TIP3    H141198   6.490   0.484  14.688 -0.9572  1.1411  2.0236
 6569TIP3    H241199   6.508   0.635  14.690  1.2820  1.0426 -1.4745
 6570TIP3   OH241200   2.976   3.559  11.264 -0.4779 -0.2042 -0.1046
 6570TIP3    H141201   2.914   3.630  11.279  1.1258  0.9400  1.5158
 6570TIP3    H241202   3.009   3.573  11.176  0.3909  1.6120  0.4582
 6571TIP3   OH241203   3.937   5.041  14.059 -0.5801 -0.0824 -0.0679
 6571TIP3    H141204   3.913   4.989  14.136 -1.9417  0.0322 -0.3872
 6571TIP3    H241205   3.894   5.125  14.072 -1.1351 -0.1827 -1.1071
 6572TIP3   OH241206   2.875   3.972  16.997  0.0516  0.1596 -0.4284
 6572TIP3    H141207   2.907   3.953  16.909 -0.5963  1.0025 -0.8643
 6572TIP3    H241208   2.945   4.024  17.037  1.8750 -2.9947  0.8102
 6573TIP3   OH241209   2.299   2.973  15.794 -0.0025 -0.1855  0.3972
 6573TIP3    H141210   2.226   2.912  15.804 -1.7511  1.8204  0.4908
 6573TIP3    H241211   2.364   2.924  15.744 -1.8437 -1.7154 -0.6247
 6574TIP3   OH241212   4.559   5.285  16.342 -0.4296 -0.1012  0.3544
 6574TIP3    H141213   4.472   5.244  16.340  1.0926 -3.6876  0.6963
 6574TIP3    H241214   4.578   5.303  16.249  0.0267 -3.2195 -0.2664
 6575TIP3   OH241215   2.932   5.856   0.761  0.2509 -0.0127  0.4330
 6575TIP3    H141216   2.877   5.883   0.688 -2.0521 -1.7454  1.3928
 6575TIP3    H241217   3.014   5.827   0.721 -0.7015 -0.2968 -1.3955
 6576TIP3   OH241218   4.290   0.076   5.535  0.2540 -0.6219 -0.6737
 6576TIP3    H141219   4.246   0.133   5.472 -0.5713 -0.1203  0.3341
 6576TIP3    H241220   4.256  -0.012   5.517 -0.6421 -0.3436 -0.3603
 6577TIP3   OH241221   3.654   0.894  13.698  0.0912 -0.2868  0.0975
 6577TIP3    H141222   3.642   0.971  13.753 -0.0495 -0.1852 -0.0743
 6577TIP3    H241223   3.684   0.928  13.614 -0.3151 -0.3918 -0.0901
 6578TIP3   OH241224   1.281   0.415  14.670 -0.3857  0.5091  0.4838
 6578TIP3    H141225   1.205   0.418  14.612 -0.8766  0.1835  1.0923
 6578TIP3    H241226   1.355   0.395  14.613 -0.9240 -0.2454  0.0376
 6579TIP3   OH241227   2.684   3.645   1.146 -0.0110  0.5217 -0.2477
 6579TIP3    H141228   2.722   3.692   1.220 -1.1272  0.5114  0.3513
 6579TIP3    H241229   2.703   3.553   1.163  0.7313  0.6079 -0.5737
 6580TIP3   OH241230   0.881   1.705  10.808 -0.4429  0.3908 -0.5543
 6580TIP3    H141231   0.832   1.758  10.871 -1.3636  1.2587 -1.9403
 6580TIP3    H241232   0.825   1.703  10.730  0.7843 -0.3992 -1.4502
 6581TIP3   OH241233   1.547   1.252   0.709  0.2396 -0.3987 -0.0312
 6581TIP3    H141234   1.517   1.309   0.639 -0.5002 -0.6896  0.0462
 6581TIP3    H241235   1.641   1.241   0.692  0.3952  0.8300 -0.0478
 6582TIP3   OH241236   5.350   1.972  15.096 -0.2110  0.0661 -0.1624
 6582TIP3    H141237   5.340   2.041  15.031 -0.8545 -1.5461 -1.8689
 6582TIP3    H241238   5.265   1.968  15.140 -0.7662 -0.7429 -1.2589
 6583TIP3   OH241239   0.084   3.659   5.290  0.4235  0.6986  0.6008
 6583TIP3    H141240  -0.003   3.659   5.330  0.0282  0.2787 -0.2330
 6583TIP3    H241241   0.078   3.595   5.219  1.8591 -0.4302  1.4584
 6584TIP3   OH241242   1.477   2.112   2.293 -0.1445  0.6845  0.2978
 6584TIP3    H141243   1.571   2.103   2.277 -0.4566 -1.2568 -0.7064
 6584TIP3    H241244   1.441   2.140   2.209 -0.4826  1.3904  0.6713
 6585TIP3   OH241245   4.370   6.762  14.939  0.3624 -0.1782  0.7161
 6585TIP3    H141246   4.400   6.684  14.985 -1.3949 -0.1956  1.9184
 6585TIP3    H241247   4.382   6.834  15.001  1.0861  0.3815 -0.0410
 6586TIP3   OH241248   3.509   3.349  12.219 -0.3001  0.3399  0.0994
 6586TIP3    H141249   3.414   3.353  12.227 -0.3997 -1.4176  0.1097
 6586TIP3    H241250   3.541   3.372  12.306 -0.7143  0.6748  0.1677
 6587TIP3   OH241251   6.115   6.820   5.900 -0.2083  0.0864  0.8765
 6587TIP3    H141252   6.178   6.788   5.835 -1.1956  0.4563 -0.3088
 6587TIP3    H241253   6.160   6.891   5.944  0.8523 -0.8307  1.3274
 6588TIP3   OH241254   4.064   5.885  14.914 -0.1729 -0.4382 -0.3159
 6588TIP3    H141255   3.994   5.950  14.909  0.2289 -0.1130 -2.2644
 6588TIP3    H241256   4.145   5.936  14.914  0.1291 -0.8987 -1.0621
 6589TIP3   OH241257   1.734   5.603  10.680 -0.3325  0.6744 -0.0531
 6589TIP3    H141258   1.752   5.522  10.633 -1.4465  0.9834 -1.0638
 6589TIP3    H241259   1.806   5.662  10.656 -1.1994  1.0461 -1.9572
 6590TIP3   OH241260   0.487   6.130   1.613  0.3487  0.1122  0.4508
 6590TIP3    H141261   0.568   6.176   1.592  0.5368  1.5030  3.6795
 6590TIP3    H241262   0.433   6.194   1.658 -3.7520 -0.0123 -3.5884
 6591TIP3   OH241263   4.078   6.637   5.082  0.8938  0.0180 -0.2500
 6591TIP3    H141264   4.070   6.723   5.125 -3.1884 -0.2737 -0.0726
 6591TIP3    H241265   4.054   6.653   4.991  0.5576 -0.8586 -0.3216
 6592TIP3   OH241266   0.755   6.179  13.515  0.2257 -0.0866  0.3159
 6592TIP3    H141267   0.850   6.176  13.516  0.4431  2.9012  1.7860
 6592TIP3    H241268   0.732   6.228  13.595 -2.1794  3.3881 -2.1698
 6593TIP3   OH241269   3.494   2.374  15.156  0.2613  0.1726 -0.9887
 6593TIP3    H141270   3.478   2.434  15.228  0.9114  0.1766 -0.8406
 6593TIP3    H241271   3.580   2.399  15.123  0.0940 -0.0166 -1.5837
 6594TIP3   OH241272   2.234   4.480  12.698  0.0848  0.4982  0.7547
 6594TIP3    H141273   2.146   4.443  12.697 -0.3127  1.4173 -0.1907
 6594TIP3    H241274   2.292   4.405  12.709 -0.8336 -0.0643  1.9774
 6595TIP3   OH241275   3.022   1.305  14.887 -0.2443  0.2479 -0.5704
 6595TIP3    H141276   3.064   1.224  14.913  1.4584  0.6636 -1.8578
 6595TIP3    H241277   3.042   1.366  14.958 -0.2250 -0.0477 -0.3213
 6596TIP3   OH241278   6.530   4.222   1.774  0.0951 -0.1648 -0.3632
 6596TIP3    H141279   6.503   4.312   1.790 -0.3750 -0.4807  0.7447
 6596TIP3    H241280   6.484   4.196   1.695 -0.2943  0.3453 -0.3077
 6597TIP3   OH241281   4.333   6.331   2.056  0.4636  0.0890 -0.2148
 6597TIP3    H141282   4.415   6.295   2.088  1.2350  1.4018 -0.6309
 6597TIP3    H241283   4.283   6.352   2.135  1.0163  0.3474  0.0711
 6598TIP3   OH241284   0.984   0.446  14.555 -0.4482  0.0910  0.4303
 6598TIP3    H141285   1.001   0.489  14.471 -1.3122 -0.6208 -0.1202
 6598TIP3    H241286   0.954   0.517  14.612  1.6193  0.8835  0.6356
 6599TIP3   OH241287   0.331   3.520  12.936 -0.8025  0.4633  0.0053
 6599TIP3    H141288   0.413   3.559  12.968 -1.4297  1.2053  0.7641
 6599TIP3    H241289   0.309   3.455  13.003 -0.5896 -0.0838 -0.4493
 6600TIP3   OH241290   1.819   3.719  14.926  0.4789 -0.0035  0.5131
 6600TIP3    H141291   1.748   3.675  14.973 -0.6860 -0.9244 -1.9110
 6600TIP3    H241292   1.832   3.802  14.972 -0.0932 -1.1167  2.7854
 6601TIP3   OH241293   4.029   4.839   2.637 -0.2354 -0.4660  0.3250
 6601TIP3    H141294   4.121   4.832   2.662  1.2411 -1.9290 -4.5159
 6601TIP3    H241295   4.012   4.934   2.636  1.5877 -0.1026  0.2393
 6602TIP3   OH241296   0.132   5.935   2.712 -0.3080 -0.2957  0.1669
 6602TIP3    H141297   0.167   6.022   2.690 -1.4097  0.0341 -0.3396
 6602TIP3    H241298   0.041   5.951   2.735 -0.6501 -1.3854 -0.3764
 6603TIP3   OH241299   4.438   3.564   0.435 -0.5386  0.2303 -0.5879
 6603TIP3    H141300   4.456   3.496   0.370 -2.0070 -0.8591  0.0897
 6603TIP3    H241301   4.357   3.606   0.404 -0.7990  0.2439  0.0977
 6604TIP3   OH241302   5.744   5.106  15.500  1.0896  0.2586  0.2547
 6604TIP3    H141303   5.722   5.043  15.569  0.0021 -1.0018 -1.1771
 6604TIP3    H241304   5.840   5.100  15.492  0.8807 -2.8300 -1.2397
 6605TIP3   OH241305   0.619   0.558  12.168 -0.2836  0.5583 -0.1316
 6605TIP3    H141306   0.672   0.502  12.112 -0.7742 -0.3000  0.2444
 6605TIP3    H241307   0.651   0.646  12.151  0.5069  0.1663 -0.7307
 6606TIP3   OH241308   5.571   1.427   0.947  0.0591 -0.1852  0.1312
 6606TIP3    H141309   5.577   1.366   0.874  2.6086  0.8558 -0.6424
 6606TIP3    H241310   5.602   1.378   1.022  1.2763 -0.1366 -0.3188
 6607TIP3   OH241311   0.524   2.582   4.463  0.5909  0.2016  0.1135
 6607TIP3    H141312   0.565   2.644   4.403 -0.5424  2.2418  1.3598
 6607TIP3    H241313   0.598   2.537   4.504  1.4216  0.5147 -0.9716
 6608TIP3   OH241314   1.910   0.790  12.116  0.8087  0.6982  0.9594
 6608TIP3    H141315   1.864   0.870  12.141  0.1710 -0.0918  2.4331
 6608TIP3    H241316   1.860   0.719  12.156  1.0260 -0.5187 -0.7736
 6609TIP3   OH241317   5.453   3.234  15.743  0.1067 -0.0483  0.0482
 6609TIP3    H141318   5.528   3.242  15.685  1.2279  0.6234  1.5149
 6609TIP3    H241319   5.451   3.141  15.766  1.1443  0.0922  0.7826
 6610TIP3   OH241320   0.792   4.907  16.935  0.0908 -0.1431  0.2996
 6610TIP3    H141321   0.860   4.964  16.972  0.7982 -1.1676  0.6529
 6610TIP3    H241322   0.838   4.855  16.869 -0.1888 -1.2883  0.9824
 6611TIP3   OH241323   3.690   6.456  12.559  0.1187  0.2032  0.3850
 6611TIP3    H141324   3.663   6.365  12.562 -1.1032  0.5155 -0.4308
 6611TIP3    H241325   3.763   6.458  12.498 -0.4310 -0.0998 -0.2893
 6612TIP3   OH241326   5.349   1.653   0.457  0.2922  0.0519 -0.0048
 6612TIP3    H141327   5.362   1.558   0.452  0.7673 -0.1276  2.7376
 6612TIP3    H241328   5.430   1.686   0.498 -0.4016  1.4563  0.3061
 6613TIP3   OH241329   6.348   0.597  13.582  0.5692  0.3210 -0.3377
 6613TIP3    H141330   6.325   0.538  13.510 -0.2964  1.7866 -1.3163
 6613TIP3    H241331   6.316   0.682  13.554  2.0196  1.3302  0.9225
 6614TIP3   OH241332   4.025   5.129   0.684 -0.1180  0.8762  0.0746
 6614TIP3    H141333   4.087   5.201   0.689  1.3486 -0.2077 -1.2992
 6614TIP3    H241334   3.959   5.157   0.621  0.5231  0.9869 -0.5581
 6615TIP3   OH241335   1.571   1.566   4.534  0.3952 -0.2995  0.0985
 6615TIP3    H141336   1.482   1.539   4.512 -0.3558  1.9388  0.0648
 6615TIP3    H241337   1.598   1.508   4.605 -1.8788  0.2010  1.4668
 6616TIP3   OH241338   4.729   3.658   5.174  0.1760 -0.0023  0.0137
 6616TIP3    H141339   4.641   3.633   5.144  1.7168 -1.4492 -3.9225
 6616TIP3    H241340   4.772   3.574   5.192  1.0352  0.6586  1.1664
 6617TIP3   OH241341   6.514   4.532   3.891 -0.1315 -0.5969  0.2450
 6617TIP3    H141342   6.523   4.616   3.846 -0.4869  0.4389  2.0354
 6617TIP3    H241343   6.532   4.467   3.823  1.9709  0.9389 -0.7813
 6618TIP3   OH241344   2.666   5.644   4.692  0.2770 -0.1440 -0.4539
 6618TIP3    H141345   2.705   5.724   4.727  1.1802 -0.5940 -0.3952
 6618TIP3    H241346   2.697   5.575   4.750 -1.6214 -0.3869  0.3260
 6619TIP3   OH241347   3.375   5.212  10.919 -0.2515  0.4885  0.2208
 6619TIP3    H141348   3.303   5.218  10.856 -0.4075  0.1181  0.3609
 6619TIP3    H241349   3.333   5.217  11.005 -0.1050  0.3546  0.3021
 6620TIP3   OH241350   1.143   4.756  12.176 -0.5096 -0.0197 -0.1825
 6620TIP3    H141351   1.228   4.780  12.212 -1.4080  1.0823  1.3266
 6620TIP3    H241352   1.159   4.740  12.083  1.0995  1.5336 -0.2154
 6621TIP3   OH241353   1.427   2.913  17.108  0.1277  0.3577  0.2473
 6621TIP3    H141354   1.340   2.949  17.126 -0.4881 -0.6960 -0.5213
 6621TIP3    H241355   1.474   2.920  17.192 -0.9366  0.2674  0.8604
 6622TIP3   OH241356   6.320   4.688  14.225 -0.2855  0.5726 -0.3280
 6622TIP3    H141357   6.352   4.663  14.138  0.0247 -0.9741  0.2029
 6622TIP3    H241358   6.371   4.766  14.248 -0.5399  1.1404 -1.6148
 6623TIP3   OH241359   2.349   5.704   5.729  0.2768 -1.0734  1.0925
 6623TIP3    H141360   2.352   5.670   5.639  0.0160  0.9916  0.2467
 6623TIP3    H241361   2.268   5.669   5.765 -0.9502  0.0657 -0.3859
 6624TIP3   OH241362   2.578   0.885   2.197  0.1021  0.2728  0.5280
 6624TIP3    H141363   2.593   0.976   2.222 -1.4213  1.0437 -1.1362
 6624TIP3    H241364   2.484   0.871   2.213 -0.0019 -0.4996 -0.6657
 6625TIP3   OH241365   0.093   4.100  15.000 -0.0743  0.5610 -0.0915
 6625TIP3    H141366   0.144   4.043  14.943  0.5563  0.9054  0.1212
 6625TIP3    H241367   0.051   4.040  15.062 -0.1790  0.2526 -0.4540
 6626TIP3   OH241368   4.154   1.318  11.848  0.0958  0.5234 -0.3055
 6626TIP3    H141369   4.144   1.230  11.812  0.7108  1.6142 -3.3963
 6626TIP3    H241370   4.248   1.327  11.864 -0.1882 -0.0551  2.1552
 6627TIP3   OH241371   4.000   2.625  15.420 -0.4216  0.4057  0.7153
 6627TIP3    H141372   4.056   2.565  15.469  0.5031  0.7890  0.1554
 6627TIP3    H241373   3.910   2.599  15.443 -0.1217 -2.3377 -0.8656
 6628TIP3   OH241374   0.216   5.946  16.493 -0.2348  0.2240 -0.1981
 6628TIP3    H141375   0.144   5.910  16.544  0.7223 -1.7235 -0.1055
 6628TIP3    H241376   0.253   6.015  16.548 -0.0640 -0.9266  1.1999
 6629TIP3   OH241377   2.724   3.052  15.181 -0.8254  0.4520  0.4203
 6629TIP3    H141378   2.748   2.987  15.115 -0.8629  0.0022  0.8370
 6629TIP3    H241379   2.760   3.134  15.148  0.9187 -0.1059  0.7903
 6630TIP3   OH241380   0.291   3.679  15.882  0.1038  0.6701  0.3976
 6630TIP3    H141381   0.358   3.727  15.929 -0.4778  1.2308  0.6655
 6630TIP3    H241382   0.271   3.733  15.806 -0.2171  0.6297  0.4493
 6631TIP3   OH241383   0.231   2.683  12.331 -0.2523  0.0219 -0.0206
 6631TIP3    H141384   0.321   2.706  12.355 -0.3157  0.4565 -0.1967
 6631TIP3    H241385   0.200   2.758  12.281 -0.1440 -0.8276 -1.4258
 6632TIP3   OH241386   4.926   4.101  10.943  0.1649  0.4073 -0.3828
 6632TIP3    H141387   4.987   4.170  10.969  1.0705 -1.2715  2.2507
 6632TIP3    H241388   4.970   4.057  10.870 -0.3698  2.3962 -2.0245
 6633TIP3   OH241389   5.460   1.106  12.691 -0.2258  0.6930  0.5192
 6633TIP3    H141390   5.484   1.104  12.599 -3.6766 -0.6305 -0.4748
 6633TIP3    H241391   5.528   1.161  12.732  1.3161  1.4668 -2.7720
 6634TIP3   OH241392   0.174   3.367  15.767  0.3911  0.3105  0.6350
 6634TIP3    H141393   0.184   3.289  15.711  1.5738  1.0177 -0.1808
 6634TIP3    H241394   0.090   3.405  15.740  1.7782  1.7043 -2.1484
 6635TIP3   OH241395   4.725   0.654  15.913  0.2866  0.5990  0.7744
 6635TIP3    H141396   4.721   0.577  15.969  1.6548 -0.5699 -0.6632
 6635TIP3    H241397   4.818   0.668  15.897 -0.0060  1.7423 -0.1058
 6636TIP3   OH241398   0.921   1.511  16.903  0.4989  0.0565 -0.1762
 6636TIP3    H141399   0.960   1.585  16.950 -1.5862  0.6736  0.6633
 6636TIP3    H241400   0.851   1.480  16.960  0.5769 -1.8304 -1.0582
 6637TIP3   OH241401   4.471   6.772   1.435  0.2722 -0.2942 -0.4139
 6637TIP3    H141402   4.474   6.860   1.470  1.8042 -0.0844 -0.9950
 6637TIP3    H241403   4.478   6.783   1.340 -1.5539 -0.9561 -0.6592
 6638TIP3   OH241404   5.895   6.595  10.349  0.1129  0.3901 -0.0508
 6638TIP3    H141405   5.967   6.543  10.387  1.4095  1.5929 -0.7739
 6638TIP3    H241406   5.853   6.534  10.287  1.0409 -0.1018 -0.2302
 6639TIP3   OH241407   2.144   6.415  14.819 -0.5018 -0.2163 -0.5912
 6639TIP3    H141408   2.090   6.453  14.888 -1.1143 -0.8960 -0.6954
 6639TIP3    H241409   2.173   6.331  14.854 -0.8054 -0.5608 -1.1496
 6640TIP3   OH241410   3.893   3.075  13.321  0.1719  0.0425 -0.0251
 6640TIP3    H141411   3.985   3.049  13.333  0.3657  0.8449  0.3165
 6640TIP3    H241412   3.844   3.019  13.382  0.3124 -1.0673 -0.9043
 6641TIP3   OH241413   3.321   4.973  16.798  0.5112 -0.2602  0.1386
 6641TIP3    H141414   3.411   4.963  16.830  0.0892 -2.3796  0.8761
 6641TIP3    H241415   3.315   4.910  16.726 -0.1477  0.5002 -0.4839
 6642TIP3   OH241416   4.416   2.681  13.703 -0.0751  0.4685 -0.0317
 6642TIP3    H141417   4.341   2.677  13.763 -0.2878  2.1022 -0.1534
 6642TIP3    H241418   4.437   2.774  13.696  2.5071  0.0087  0.6317
 6643TIP3   OH241419   4.020   3.135   6.395 -0.3565 -0.1712  0.2185
 6643TIP3    H141420   4.078   3.186   6.337  0.3471  0.0940  1.1291
 6643TIP3    H241421   4.068   3.053   6.410 -1.2810 -0.9475 -0.8737
 6644TIP3   OH241422   0.158   2.277  13.174 -0.4874  0.0253 -0.0605
 6644TIP3    H141423   0.068   2.306  13.185 -1.2710 -2.4525  0.7864
 6644TIP3    H241424   0.172   2.214  13.244  1.4385 -0.7081 -1.0186
 6645TIP3   OH241425   1.338   1.736   3.247 -0.4958 -0.2039 -0.0047
 6645TIP3    H141426   1.315   1.815   3.296  0.7007 -0.1750  0.5302
 6645TIP3    H241427   1.254   1.692   3.232 -1.0675  0.6903  0.5036
 6646TIP3   OH241428   4.424   6.152   1.573 -0.1155 -0.4954  0.1723
 6646TIP3    H141429   4.442   6.224   1.632  0.3557  2.0247 -2.7920
 6646TIP3    H241430   4.329   6.155   1.560 -0.2698 -1.2853  1.0052
 6647TIP3   OH241431   5.324   5.916  14.871  0.2291 -0.4502  0.1417
 6647TIP3    H141432   5.278   5.886  14.950 -0.8312  0.4929 -0.0970
 6647TIP3    H241433   5.391   5.976  14.904 -0.1226 -0.1640  0.3493
 6648TIP3   OH241434   6.047   2.099   0.821 -0.5052  0.2503  0.4239
 6648TIP3    H141435   5.969   2.108   0.766  0.7669 -0.1613 -1.5254
 6648TIP3    H241436   6.073   2.189   0.841 -0.2501  0.4507 -0.7530
 6649TIP3   OH241437   6.333   1.801  13.345 -0.2430 -0.3785  0.3229
 6649TIP3    H141438   6.304   1.838  13.261  0.4261 -0.8638 -0.1339
 6649TIP3    H241439   6.277   1.725  13.359 -1.5759  0.7340  1.2304
 6650TIP3   OH241440   5.227   4.542   3.810  0.2254 -0.2511 -0.4725
 6650TIP3    H141441   5.293   4.478   3.786 -0.0321 -2.3635  3.6632
 6650TIP3    H241442   5.277   4.616   3.846  0.4193 -0.7127  0.2191
 6651TIP3   OH241443   2.579   0.754  14.150 -0.0178  0.1337 -0.3254
 6651TIP3    H141444   2.653   0.796  14.106 -0.0040 -0.4519 -0.8752
 6651TIP3    H241445   2.503   0.808  14.126  0.1844  0.5776  0.0181
 6652TIP3   OH241446   4.373   3.225  13.844  0.1654  0.7187 -0.2718
 6652TIP3    H141447   4.376   3.182  13.929  0.6138 -0.4206 -0.8421
 6652TIP3    H241448   4.281   3.248  13.832  0.0661  0.7177  0.4221
 6653TIP3   OH241449   2.538   1.491  15.580 -0.6297 -0.6480 -0.6158
 6653TIP3    H141450   2.631   1.485  15.598 -0.9751  0.1127  1.7244
 6653TIP3    H241451   2.496   1.481  15.665 -2.6572  0.0092 -1.4662
 6654TIP3   OH241452   0.597   3.499  15.947 -0.5543  0.2885 -0.1813
 6654TIP3    H141453   0.666   3.454  15.994  0.2879  1.6666 -0.0569
 6654TIP3    H241454   0.641   3.567  15.897 -2.0594  4.0201  3.0924
 6655TIP3   OH241455   2.382   1.844  10.970  0.1344 -0.1955 -0.3521
 6655TIP3    H141456   2.303   1.853  10.917  0.7287 -0.9404 -1.4003
 6655TIP3    H241457   2.453   1.878  10.915  0.7134 -0.6329  0.1004
 6656TIP3   OH241458   4.685   2.749  12.142  0.8009  0.6957 -0.1525
 6656TIP3    H141459   4.659   2.762  12.051  2.4212 -0.1109 -0.7725
 6656TIP3    H241460   4.604   2.759  12.192 -0.1773  0.8463 -1.7047
 6657TIP3   OH241461   6.232   1.354  16.232 -0.3245 -0.4262 -0.5369
 6657TIP3    H141462   6.212   1.263  16.254  1.6953 -0.8191 -0.1873
 6657TIP3    H241463   6.303   1.348  16.168  1.1966  0.8901  0.9331
 6658TIP3   OH241464   2.683   5.448  17.001 -0.0788 -0.5617  0.1054
 6658TIP3    H141465   2.647   5.445  16.912 -0.4001 -0.5358  0.2298
 6658TIP3    H241466   2.627   5.511  17.046  0.2652 -0.3558  0.2485
 6659TIP3   OH241467   3.736   2.971  10.594 -0.1230 -0.7410 -0.2310
 6659TIP3    H141468   3.806   2.919  10.556 -0.6877 -0.7836 -1.2459
 6659TIP3    H241469   3.655   2.931  10.561 -0.5808  1.0563 -1.4800
 6660TIP3   OH241470   4.201   6.407   2.876  0.4245 -0.4292 -0.2899
 6660TIP3    H141471   4.159   6.436   2.795  0.5504  0.5059 -0.0293
 6660TIP3    H241472   4.295   6.405   2.854  0.7960  2.6158  0.5961
 6661TIP3   OH241473   3.174   4.438  11.617  0.1595 -0.0888  0.0262
 6661TIP3    H141474   3.247   4.377  11.615  0.3869  0.1784  0.1471
 6661TIP3    H241475   3.145   4.438  11.708  1.6100  1.6807  0.5502
 6662TIP3   OH241476   6.173   5.313   0.453 -0.3484 -0.4229 -0.1296
 6662TIP3    H141477   6.193   5.315   0.546  1.9285  1.7254 -0.5554
 6662TIP3    H241478   6.127   5.395   0.436  0.5505 -0.0997 -1.1136
 6663TIP3   OH241479   1.003   2.790   1.462 -0.2799  0.2362  0.4270
 6663TIP3    H141480   1.034   2.700   1.467 -0.4741  0.1022 -0.5316
 6663TIP3    H241481   0.977   2.812   1.552  0.1855 -0.5056  0.7497
 6664TIP3   OH241482   1.643   3.690   2.361  0.3457  0.8444 -0.2899
 6664TIP3    H141483   1.698   3.612   2.365 -1.2704 -0.3217  0.4217
 6664TIP3    H241484   1.632   3.715   2.453 -1.2155  0.3383 -0.3047
 6665TIP3   OH241485   1.230   6.356   1.685  0.6999 -0.0175 -0.4543
 6665TIP3    H141486   1.293   6.320   1.749 -1.0737 -2.2891  0.1336
 6665TIP3    H241487   1.247   6.308   1.605  0.6492  0.4077 -0.7235
 6666TIP3   OH241488   6.269   5.677   1.738  0.5083  0.3566  0.1874
 6666TIP3    H141489   6.178   5.685   1.708 -0.5434 -1.9383  2.4311
 6666TIP3    H241490   6.305   5.606   1.686  0.5172  0.1942  0.4181
 6667TIP3   OH241491   2.043   1.017  14.435  0.0100 -0.4345 -0.0409
 6667TIP3    H141492   2.070   1.106  14.411 -3.7866  0.0334 -3.7107
 6667TIP3    H241493   2.013   1.024  14.525 -0.1572  2.0302 -0.2238
 6668TIP3   OH241494   3.962   4.876   0.627  0.0710  0.2195  0.3065
 6668TIP3    H141495   4.001   4.950   0.674 -0.4638  0.3299  0.5757
 6668TIP3    H241496   3.900   4.915   0.566  0.4880  0.0508 -0.2338
 6669TIP3   OH241497   4.290   3.150   0.123 -0.3647  0.3136  0.6834
 6669TIP3    H141498   4.327   3.062   0.110 -0.8063  0.1429  0.5538
 6669TIP3    H241499   4.310   3.196   0.041 -1.0079  0.0109  0.3463
 6670TIP3   OH241500   6.709   2.393  11.011  0.0496 -0.1534 -0.5868
 6670TIP3    H141501   6.638   2.426  10.955  1.3655 -0.1714 -2.3261
 6670TIP3    H241502   6.685   2.301  11.028 -0.2686 -0.2122 -1.3127
 6671TIP3   OH241503   1.535   0.420  14.888 -0.2993  0.0652  0.3219
 6671TIP3    H141504   1.448   0.440  14.855 -0.4264 -1.2996 -0.2340
 6671TIP3    H241505   1.579   0.378  14.815  0.9809  1.0681  0.4710
 6672TIP3   OH241506   5.402   3.137  11.944  0.1421  0.1340  0.0973
 6672TIP3    H141507   5.461   3.204  11.908  1.2575  0.7613  2.8422
 6672TIP3    H241508   5.452   3.056  11.935  0.2949  0.2344  0.0112
 6673TIP3   OH241509   5.894   6.166   1.114 -0.5397  0.2106 -0.0492
 6673TIP3    H141510   5.931   6.082   1.140 -0.9846  0.1800  0.4995
 6673TIP3    H241511   5.824   6.182   1.177  1.3489  2.3442  1.6381
 6674TIP3   OH241512   2.128   3.157   2.449 -0.2248  0.4009 -0.7467
 6674TIP3    H141513   2.072   3.126   2.378 -1.4382  0.3904  0.1801
 6674TIP3    H241514   2.067   3.181   2.518  0.8534  1.9865 -0.3121
 6675TIP3   OH241515   1.129   2.243   3.497 -0.1175  1.1331  0.9211
 6675TIP3    H141516   1.221   2.254   3.522  0.1358  2.0757 -0.3478
 6675TIP3    H241517   1.105   2.325   3.455 -0.4663 -0.3165 -1.9513
 6676TIP3   OH241518   5.079   3.075  10.421  0.1557  0.3698 -0.0699
 6676TIP3    H141519   5.037   2.992  10.442 -0.8590  0.4952 -1.4508
 6676TIP3    H241520   5.011   3.141  10.435 -0.0605  0.6154 -1.9904
 6677TIP3   OH241521   0.098   3.910   4.627  0.3606 -0.0357  0.0561
 6677TIP3    H141522   0.096   4.005   4.617  2.7406  0.2826  1.6499
 6677TIP3    H241523   0.168   3.882   4.568 -0.1557 -0.7624 -0.2165
 6678TIP3   OH241524   0.494   1.502  13.393  0.1801  0.2626  0.4766
 6678TIP3    H141525   0.575   1.521  13.346  2.0685 -2.2607  2.4703
 6678TIP3    H241526   0.518   1.507  13.486 -2.2883  0.6409  1.1788
 6679TIP3   OH241527   5.941   5.831  15.778 -0.1567 -0.3145 -0.2000
 6679TIP3    H141528   5.997   5.754  15.786  0.8251  0.4631  0.7828
 6679TIP3    H241529   5.975   5.892  15.844 -2.8770 -0.2190  1.2235
 6680TIP3   OH241530   3.715   5.078  14.477 -0.0346 -0.7369  0.1816
 6680TIP3    H141531   3.633   5.057  14.521  0.5537  0.6449  2.0443
 6680TIP3    H241532   3.780   5.025  14.522  0.8153  1.8006  2.1515
 6681TIP3   OH241533   1.329   5.053  12.960  0.1556  0.1789 -0.0099
 6681TIP3    H141534   1.396   5.043  12.892  1.7697 -1.2243  1.6674
 6681TIP3    H241535   1.371   5.107  13.027 -1.2814  1.2579  0.0563
 6682TIP3   OH241536   2.855   0.818   5.817  0.6879 -0.1907 -0.5568
 6682TIP3    H141537   2.763   0.804   5.794  0.1369  0.5546  1.0654
 6682TIP3    H241538   2.880   0.737   5.863  0.2706  0.3291  0.6225
 6683TIP3   OH241539   0.731   2.830   3.725  0.3190  0.3167 -0.5218
 6683TIP3    H141540   0.789   2.799   3.795 -0.1667  0.7055  0.0649
 6683TIP3    H241541   0.715   2.753   3.671  0.2725 -0.1176  0.1062
 6684TIP3   OH241542   5.590   6.235   1.728  0.2196 -0.4878  0.0579
 6684TIP3    H141543   5.508   6.185   1.721  0.2424 -0.3355 -1.9166
 6684TIP3    H241544   5.599   6.277   1.643  1.2564  1.2629  0.9857
 6685TIP3   OH241545   2.977   5.475   3.786 -0.3258  0.2170 -0.3037
 6685TIP3    H141546   2.955   5.393   3.742 -0.3999  0.4844 -0.7632
 6685TIP3    H241547   2.912   5.537   3.755 -1.2888  0.0565  1.2908
 6686TIP3   OH241548   1.697   2.889   1.729  0.2140 -0.6504 -0.5750
 6686TIP3    H141549   1.603   2.892   1.750  0.4883 -0.0115  0.7078
 6686TIP3    H241550   1.709   2.805   1.687 -0.6661 -1.5189  0.8101
 6687TIP3   OH241551   1.463   5.213   0.523 -0.4688  0.5442 -0.0248
 6687TIP3    H141552   1.458   5.231   0.429  1.7407  0.8613 -0.1186
 6687TIP3    H241553   1.374   5.187   0.547 -1.3942  1.7357 -1.9309
 6688TIP3   OH241554   3.086   3.297  11.236 -0.0098 -0.7350  0.1949
 6688TIP3    H141555   3.040   3.231  11.185 -1.7476  1.0465 -0.6757
 6688TIP3    H241556   3.027   3.372  11.237  1.4567  0.4788  1.9799
 6689TIP3   OH241557   0.894   6.637  16.101 -0.4222 -0.4388 -0.4660
 6689TIP3    H141558   0.917   6.664  16.190 -1.1522 -1.2111 -0.0272
 6689TIP3    H241559   0.896   6.717  16.050 -2.1932  0.4434  0.7270
 6690TIP3   OH241560   3.126   4.950   2.831  0.0033  0.1436 -0.4439
 6690TIP3    H141561   3.153   4.862   2.806  0.1145  0.2250 -0.6113
 6690TIP3    H241562   3.146   4.955   2.924  1.1373  0.4051 -0.6817
 6691TIP3   OH241563   3.012   4.137   2.396 -0.2045  0.2970 -0.1796
 6691TIP3    H141564   3.002   4.043   2.377  0.8495 -0.0444  0.8432
 6691TIP3    H241565   3.106   4.152   2.393 -0.4395  1.9774 -3.1786
 6692TIP3   OH241566   6.111   5.714   3.451 -0.2784  0.0711 -0.0692
 6692TIP3    H141567   6.108   5.620   3.469 -0.4279  0.4157  1.8343
 6692TIP3    H241568   6.204   5.733   3.437  0.1317  0.0710  2.2632
 6693TIP3   OH241569   0.121   0.057  12.951  0.5529  0.4349  0.3592
 6693TIP3    H141570   0.116  -0.011  13.019 -0.9748  0.1481  0.0123
 6693TIP3    H241571   0.107   0.009  12.869 -1.1760  1.2144  0.1598
 6694TIP3   OH241572   2.613   5.780   5.502  0.4579  0.4846  0.1327
 6694TIP3    H141573   2.632   5.848   5.566  1.0683  1.3570 -0.9440
 6694TIP3    H241574   2.560   5.824   5.435  1.8202  0.2241 -1.1631
 6695TIP3   OH241575   1.791   6.758  12.348  0.4632 -0.2588  0.1119
 6695TIP3    H141576   1.796   6.801  12.262 -1.4638 -0.0449  0.0477
 6695TIP3    H241577   1.879   6.726  12.364  0.8459 -0.4731 -2.0367
 6696TIP3   OH241578   5.121   3.442  16.811  0.2252 -0.3750  0.0689
 6696TIP3    H141579   5.156   3.525  16.842  1.5314 -0.6433 -0.5989
 6696TIP3    H241580   5.194   3.402  16.762  0.3174 -2.7942  1.9868
 6697TIP3   OH241581   4.555   5.944   0.888  0.0296  0.1664  0.1997
 6697TIP3    H141582   4.575   5.944   0.982  0.2224  1.8133  0.1798
 6697TIP3    H241583   4.598   6.023   0.855 -2.3651  1.1309 -0.7709
 6698TIP3   OH241584   6.265   2.841  13.719  0.4797  0.3115 -0.2065
 6698TIP3    H141585   6.255   2.748  13.738  0.0734  0.6420  1.3630
 6698TIP3    H241586   6.358   2.859  13.736  0.6721  0.1032 -1.0040
 6699TIP3   OH241587   4.623   5.724   1.587  0.2462 -0.6233 -0.8903
 6699TIP3    H141588   4.579   5.654   1.637 -1.2304  0.6471 -0.3096
 6699TIP3    H241589   4.557   5.754   1.525  0.6175  0.6713 -0.6955
 6700TIP3   OH241590   2.752   1.015   0.856 -0.4266 -0.7994 -0.2726
 6700TIP3    H141591   2.712   0.982   0.936 -1.1134  1.2636  0.3095
 6700TIP3    H241592   2.692   1.084   0.826  2.0650  1.6853  0.0086
 6701TIP3   OH241593   2.034   3.885   0.971 -0.0210 -0.4038  0.0479
 6701TIP3    H141594   1.989   3.967   0.951 -1.0706 -0.3990  2.1540
 6701TIP3    H241595   2.116   3.912   1.012 -0.1956 -0.3931  0.3953
 6702TIP3   OH241596   6.521   5.631   1.126 -0.5693  0.0234  0.1756
 6702TIP3    H141597   6.583   5.679   1.182  1.1338 -1.3230 -0.4744
 6702TIP3    H241598   6.548   5.540   1.132 -2.8785 -0.7116  0.2870
 6703TIP3   OH241599   6.429   0.625  13.866 -0.1963 -0.2337 -0.4169
 6703TIP3    H141600   6.416   0.628  13.772  2.1847 -0.8527 -0.8345
 6703TIP3    H241601   6.392   0.540  13.893  0.4679 -0.7345 -1.0545
 6704TIP3   OH241602   0.372   5.747   4.298 -0.0441 -0.0728  0.4000
 6704TIP3    H141603   0.348   5.688   4.227  0.9739 -0.2861  0.2122
 6704TIP3    H241604   0.322   5.827   4.281  0.6754  0.1267 -0.9556
 6705TIP3   OH241605   0.304   6.646   5.121 -0.0923  0.2674 -0.4885
 6705TIP3    H141606   0.374   6.636   5.057 -0.1301  1.6009 -0.7654
 6705TIP3    H241607   0.299   6.561   5.164  2.4648  0.4244  0.3155
 6706TIP3   OH241608   1.178   2.198   1.775 -0.2136 -0.2410 -0.2737
 6706TIP3    H141609   1.160   2.290   1.759 -0.9159 -0.3376 -0.1015
 6706TIP3    H241610   1.092   2.160   1.793  0.0367 -0.9761 -0.5757
 6707TIP3   OH241611   2.334   2.975   0.172 -0.2924 -0.3137  0.0132
 6707TIP3    H141612   2.372   2.951   0.088 -2.4924 -0.5421 -0.9697
 6707TIP3    H241613   2.324   3.070   0.168 -0.0350 -0.2783  0.1850
 6708TIP3   OH241614   3.882   1.089  16.315 -0.2777 -0.0243  0.1882
 6708TIP3    H141615   3.857   0.998  16.330  1.0066 -0.7460 -1.6938
 6708TIP3    H241616   3.954   1.084  16.253 -0.5991  2.3279 -0.4601
 6709TIP3   OH241617   5.863   1.128  13.322  0.2645  0.3624  0.5484
 6709TIP3    H141618   5.792   1.113  13.259 -1.6774  1.3118  2.3842
 6709TIP3    H241619   5.859   1.222  13.340  0.6131  0.0823  2.2376
 6710TIP3   OH241620   2.343   0.167   6.098  0.4065 -0.4670 -0.2622
 6710TIP3    H141621   2.374   0.087   6.141 -0.4075 -0.8149 -0.3109
 6710TIP3    H241622   2.308   0.137   6.014 -1.5031 -0.3161  0.4439
 6711TIP3   OH241623   0.758   3.633   4.967 -0.4151 -0.2097  0.2772
 6711TIP3    H141624   0.730   3.602   5.053  0.2864  0.1954  0.6592
 6711TIP3    H241625   0.728   3.724   4.963  0.3344  0.0533  0.4649
 6712TIP3   OH241626   0.003   0.124   5.412  0.1428 -0.7855 -0.7395
 6712TIP3    H141627  -0.054   0.127   5.335 -0.5235 -2.7036 -0.3829
 6712TIP3    H241628   0.022   0.216   5.431 -1.4319 -0.1596 -1.9014
 6713TIP3   OH241629   0.361   6.177  11.559 -1.2962 -0.1603 -0.4199
 6713TIP3    H141630   0.343   6.084  11.544  0.6196 -0.2494 -2.6002
 6713TIP3    H241631   0.320   6.222  11.485 -0.5582  0.5375 -0.4084
 6714TIP3   OH241632   3.719   5.750   3.754 -1.1757  0.2804 -0.1504
 6714TIP3    H141633   3.632   5.712   3.768 -0.0559 -2.3054  0.2841
 6714TIP3    H241634   3.739   5.731   3.663 -0.4965 -0.4059  0.1372
 6715TIP3   OH241635   5.915   1.709  12.100  0.3594 -0.0146 -0.0151
 6715TIP3    H141636   5.881   1.659  12.026 -0.4931  0.1679  0.2440
 6715TIP3    H241637   5.998   1.744  12.069  0.6176 -0.9843 -0.4525
 6716TIP3   OH241638   6.013   1.449   3.588 -0.3051  0.1115 -0.6445
 6716TIP3    H141639   6.000   1.358   3.560 -0.2698 -0.0995  0.0054
 6716TIP3    H241640   6.050   1.492   3.511 -0.5816 -0.3545 -1.0507
 6717TIP3   OH241641   2.258   1.866  12.108 -0.2400  0.4155  0.2681
 6717TIP3    H141642   2.235   1.841  12.198  1.1802  1.4699  0.9605
 6717TIP3    H241643   2.243   1.960  12.104  0.7090  0.5585 -0.2624
 6718TIP3   OH241644   1.452   2.157  11.171 -0.0469 -0.1886  0.4696
 6718TIP3    H141645   1.445   2.215  11.095  1.4627  2.1105  1.9768
 6718TIP3    H241646   1.473   2.071  11.133  0.2998  0.8006 -1.7284
 6719TIP3   OH241647   1.078   1.188  13.168  0.4246 -0.4790  0.9903
 6719TIP3    H141648   1.173   1.173  13.170  0.4069 -0.5586  2.0204
 6719TIP3    H241649   1.054   1.201  13.260 -0.0972  2.5193  0.5450
 6720TIP3   OH241650   1.959   1.724  14.257 -0.3458  0.0404  0.2423
 6720TIP3    H141651   1.976   1.818  14.254  0.0497 -0.0505 -0.5186
 6720TIP3    H241652   2.011   1.687  14.186 -1.4220 -0.6170 -0.2286
 6721TIP3   OH241653   0.265   0.476   0.183  0.4152  0.1898 -0.3685
 6721TIP3    H141654   0.228   0.390   0.163 -1.1033 -0.0034  2.7395
 6721TIP3    H241655   0.312   0.464   0.265  2.1514  1.8842 -1.0200
 6722TIP3   OH241656   4.579   4.222  10.137 -0.8236  0.0682  0.0580
 6722TIP3    H141657   4.502   4.249  10.087 -0.9734  0.4866  0.5033
 6722TIP3    H241658   4.648   4.212  10.072 -1.1934 -0.0636 -0.3146
 6723TIP3   OH241659   2.014   3.233  14.701 -0.2883  0.3266  0.1445
 6723TIP3    H141660   2.047   3.225  14.790 -0.0019 -1.4428 -0.0753
 6723TIP3    H241661   2.059   3.310  14.665  0.1057  0.6478  1.3035
 6724TIP3   OH241662   3.613   5.070   2.034 -0.0702 -0.2442  0.8585
 6724TIP3    H141663   3.551   5.143   2.033  1.7470  1.4367  2.3517
 6724TIP3    H241664   3.606   5.030   1.947 -0.2402  2.4977 -0.4726
 6725TIP3   OH241665   2.790   4.605  10.914 -0.2964 -0.1909  0.2375
 6725TIP3    H141666   2.809   4.562  10.997 -1.6696 -1.2345  0.0524
 6725TIP3    H241667   2.815   4.541  10.847 -0.4803  0.0953 -0.1111
 6726TIP3   OH241668   5.846   5.165   5.797  0.2727  0.5235 -0.0554
 6726TIP3    H141669   5.830   5.071   5.783 -1.8163  0.9548 -1.0064
 6726TIP3    H241670   5.880   5.170   5.886  2.2883 -1.2809 -0.6416
 6727TIP3   OH241671   3.542   1.273  14.132 -0.0244 -0.1212 -0.1883
 6727TIP3    H141672   3.589   1.258  14.214  1.4231  2.1941 -0.4975
 6727TIP3    H241673   3.460   1.315  14.160  0.0538 -0.1558  0.1019
 6728TIP3   OH241674   0.987   3.467   2.035 -0.0053 -0.4402 -0.3783
 6728TIP3    H141675   1.010   3.547   1.987 -0.9862  0.3982  0.4914
 6728TIP3    H241676   1.071   3.434   2.067  0.3680  0.5990 -0.2239
 6729TIP3   OH241677   0.534   1.875   4.430 -0.9131 -0.1812  0.4335
 6729TIP3    H141678   0.533   1.905   4.340 -2.6099  0.9969  0.8031
 6729TIP3    H241679   0.444   1.849   4.448 -0.8704  0.6702  2.1221
 6730TIP3   OH241680   2.115   0.709   1.860 -0.3420  0.4572  0.4641
 6730TIP3    H141681   2.170   0.787   1.847  1.3145 -0.6582  0.5516
 6730TIP3    H241682   2.056   0.709   1.785 -0.5664  1.9431  0.6022
 6731TIP3   OH241683   3.853   6.603  10.300 -0.1786  0.0092  0.0319
 6731TIP3    H141684   3.848   6.689  10.257 -0.5770 -0.0742 -0.0930
 6731TIP3    H241685   3.849   6.623  10.393 -0.7163  0.1015 -0.0079
 6732TIP3   OH241686   1.737   6.179  13.551 -0.1312  0.1042 -0.0023
 6732TIP3    H141687   1.741   6.201  13.458 -0.1787  0.4787  0.0805
 6732TIP3    H241688   1.656   6.220  13.582  0.6763  1.3636  0.5397
 6733TIP3   OH241689   2.732   0.739  16.328  0.1337  0.2596 -0.5858
 6733TIP3    H141690   2.726   0.729  16.234 -2.4426 -0.3440 -0.4420
 6733TIP3    H241691   2.815   0.699  16.352  1.6864  1.9544 -2.7262
 6734TIP3   OH241692   3.609   4.447  14.329  0.4009 -0.7702 -0.0997
 6734TIP3    H141693   3.539   4.456  14.394  0.5637  0.7375 -0.0906
 6734TIP3    H241694   3.589   4.365  14.284 -0.8696 -0.8258  0.5060
 6735TIP3   OH241695   5.899   5.207  10.555  0.2121  0.3394  0.0911
 6735TIP3    H141696   5.961   5.229  10.485  1.0494 -0.6045  0.4982
 6735TIP3    H241697   5.893   5.111  10.553  0.4060  0.2683  1.4119
 6736TIP3   OH241698   3.330   2.126  12.530  0.0105  0.7310 -0.8330
 6736TIP3    H141699   3.384   2.077  12.592 -1.8841  0.5652  0.7502
 6736TIP3    H241700   3.299   2.060  12.468  0.8049  0.6635 -1.1722
 6737TIP3   OH241701   4.615   1.054  12.961  0.2898 -0.5659  0.5224
 6737TIP3    H141702   4.585   0.990  13.026 -1.6261 -1.7179 -1.3789
 6737TIP3    H241703   4.556   1.128  12.971  2.3391  0.9421  2.5357
 6738TIP3   OH241704   3.703   6.505   0.621  0.2556  0.3324  0.4950
 6738TIP3    H141705   3.783   6.456   0.602  0.4953  0.9700 -0.1452
 6738TIP3    H241706   3.716   6.539   0.710  1.4584  1.9053 -0.2429
 6739TIP3   OH241707   5.318   1.991   2.491  0.0329  0.3172  0.3629
 6739TIP3    H141708   5.323   2.040   2.573  0.1094 -0.4562  0.8276
 6739TIP3    H241709   5.321   2.058   2.423  3.0285  0.8886  0.8829
 6740TIP3   OH241710   4.736   4.750  10.865 -0.0392 -0.3785 -0.2224
 6740TIP3    H141711   4.673   4.763  10.794  0.1012 -0.9080 -0.4506
 6740TIP3    H241712   4.753   4.655  10.864  1.9070 -0.0587 -1.1473
 6741TIP3   OH241713   2.863   5.160  10.575 -0.3747  0.6850 -0.2540
 6741TIP3    H141714   2.928   5.091  10.589 -2.6242 -1.6774 -0.6880
 6741TIP3    H241715   2.848   5.161  10.481 -1.5051  0.6526 -0.0829
 6742TIP3   OH241716   1.507   0.400   3.692 -0.5530  0.1879 -0.7054
 6742TIP3    H141717   1.454   0.337   3.740  0.5357  0.0349  0.3556
 6742TIP3    H241718   1.506   0.369   3.601 -2.0972  0.1057 -0.6791
 6743TIP3   OH241719   6.123   4.358   0.768  0.2281  0.3655  0.1852
 6743TIP3    H141720   6.103   4.451   0.778  0.7925  0.5314 -0.1209
 6743TIP3    H241721   6.159   4.351   0.680 -1.1230 -0.3933 -0.3374
 6744TIP3   OH241722   3.017   1.729   3.943 -0.3067 -0.2074 -0.0747
 6744TIP3    H141723   2.932   1.703   3.908  0.4892 -3.1453 -0.1138
 6744TIP3    H241724   3.000   1.812   3.987 -2.7371  0.3092 -1.7446
 6745TIP3   OH241725   3.780   6.294   5.649  0.0945  0.0645 -0.3355
 6745TIP3    H141726   3.851   6.254   5.599  1.1075 -0.9517  1.7828
 6745TIP3    H241727   3.703   6.282   5.595  0.9852 -1.6846 -1.3013
 6746TIP3   OH241728   0.488   0.353   5.478 -0.2679  0.2011 -0.2391
 6746TIP3    H141729   0.501   0.386   5.567 -0.3617 -0.6189  0.0847
 6746TIP3    H241730   0.571   0.373   5.434 -0.6963  1.8065 -0.3675
 6747TIP3   OH241731   6.564   4.289  14.620 -0.2761  0.0421 -0.1427
 6747TIP3    H141732   6.552   4.315  14.711  0.8174 -1.1785  0.3705
 6747TIP3    H241733   6.540   4.367  14.570 -0.5406  0.8492  1.1917
 6748TIP3   OH241734   6.628   5.103   0.521  0.4399  0.6585  0.8418
 6748TIP3    H141735   6.570   5.109   0.445 -0.4306  0.7301  1.5054
 6748TIP3    H241736   6.585   5.041   0.580  1.4241  0.1138  1.0147
 6749TIP3   OH241737   3.207   4.527   4.337 -0.1485  0.4401 -0.1495
 6749TIP3    H141738   3.251   4.452   4.378 -0.1561  0.0423 -0.8572
 6749TIP3    H241739   3.126   4.538   4.387 -0.0749  0.0723  0.0508
 6750TIP3   OH241740   3.105   0.433   1.124  0.2028 -1.2359 -0.0857
 6750TIP3    H141741   3.094   0.500   1.191 -2.0683 -0.8063 -0.7818
 6750TIP3    H241742   3.026   0.379   1.131  1.3084 -2.9838 -0.4940
 6751TIP3   OH241743   4.099   0.027  14.378  0.6221  0.2452 -0.8431
 6751TIP3    H141744   4.133   0.099  14.326 -0.2099  1.2275 -0.0707
 6751TIP3    H241745   4.017   0.003  14.336  0.7232 -0.0062 -0.8956
 6752TIP3   OH241746   0.365   3.009  12.616 -0.2292  0.3610  0.0939
 6752TIP3    H141747   0.410   3.040  12.537 -0.5202  0.0986 -0.1798
 6752TIP3    H241748   0.339   3.088  12.662  2.1104  0.5552  1.2045
 6753TIP3   OH241749   4.517   5.536   5.011 -0.0379 -0.5253 -0.5197
 6753TIP3    H141750   4.518   5.456   4.959  0.3873 -0.7450 -0.1835
 6753TIP3    H241751   4.607   5.546   5.040  0.2944  1.0382 -1.9912
 6754TIP3   OH241752   3.319   6.761  13.935 -0.2218 -0.3550 -0.3561
 6754TIP3    H141753   3.245   6.701  13.934 -0.3834 -0.1681  0.0854
 6754TIP3    H241754   3.382   6.722  13.875  0.1522 -1.5842  0.7728
 6755TIP3   OH241755   2.988   3.544  11.546 -0.1591 -0.6918  0.2583
 6755TIP3    H141756   2.894   3.549  11.561 -0.2180  2.8664 -0.3035
 6755TIP3    H241757   2.997   3.558  11.452  0.9304  0.6946  0.5365
 6756TIP3   OH241758   4.948   2.719   1.321 -0.1047  0.8145 -0.3065
 6756TIP3    H141759   5.033   2.757   1.341  0.4792 -1.1123  1.2340
 6756TIP3    H241760   4.968   2.630   1.290 -1.4962  0.7616 -1.1430
 6757TIP3   OH241761   4.704   2.711  16.267 -0.0680  0.0682  0.5685
 6757TIP3    H141762   4.703   2.617  16.289  1.5406  0.4258  2.4297
 6757TIP3    H241763   4.665   2.754  16.342  0.4508  0.9931  0.3247
 6758TIP3   OH241764   2.031   5.038   2.681  0.8561  0.0947  0.0486
 6758TIP3    H141765   1.979   4.959   2.663  0.1455  0.7401 -0.7878
 6758TIP3    H241766   2.110   5.028   2.627 -0.8211  1.5628 -2.9016
 6759TIP3   OH241767   1.461   1.118   2.762  0.3852 -0.3184 -0.2368
 6759TIP3    H141768   1.451   1.027   2.787  1.7739 -0.2142  0.8270
 6759TIP3    H241769   1.526   1.117   2.691 -0.6082 -0.2549 -1.1753
 6760TIP3   OH241770   0.670   0.714   1.180  0.5222  0.8083 -0.3344
 6760TIP3    H141771   0.736   0.783   1.187  1.3594  0.2060 -1.7715
 6760TIP3    H241772   0.714   0.636   1.214 -0.1732  0.8150  0.6136
 6761TIP3   OH241773   2.276   2.648  11.655 -0.1541 -0.2649  0.0638
 6761TIP3    H141774   2.272   2.552  11.655  0.5743 -0.3271 -1.4465
 6761TIP3    H241775   2.290   2.672  11.746  1.2760 -1.6926  0.2575
 6762TIP3   OH241776   6.607   3.571  11.299 -0.1687 -0.0900  0.0546
 6762TIP3    H141777   6.666   3.581  11.224 -0.9396  2.6363 -0.2892
 6762TIP3    H241778   6.664   3.578  11.375  0.5412 -2.2816 -0.2238
 6763TIP3   OH241779   1.162   0.197   4.879  0.5590 -0.2454 -0.2298
 6763TIP3    H141780   1.251   0.172   4.854  1.2260  1.6869  0.0501
 6763TIP3    H241781   1.173   0.274   4.934 -1.2728 -0.3538  0.3690
 6764TIP3   OH241782   6.398   2.074  17.028 -0.3305 -0.4970 -0.2855
 6764TIP3    H141783   6.460   2.002  17.033 -1.1235 -1.2316 -0.7425
 6764TIP3    H241784   6.433   2.132  16.960  0.3164 -0.4416  0.0931
 6765TIP3   OH241785   1.781   4.989  15.065 -0.0057 -0.0113  0.5855
 6765TIP3    H141786   1.839   5.035  15.005 -1.0498 -1.5690 -1.8258
 6765TIP3    H241787   1.799   4.896  15.049 -1.8576 -0.5037  1.0578
 6766TIP3   OH241788   3.926   3.427  13.658 -0.1859  0.0150  0.0562
 6766TIP3    H141789   3.962   3.359  13.714  0.1813  0.1184 -0.0508
 6766TIP3    H241790   3.992   3.496  13.659 -0.9588  0.7750  0.9192
 6767TIP3   OH241791   0.891   5.636   4.967 -0.1126 -0.0596  0.7887
 6767TIP3    H141792   0.903   5.594   5.052 -1.6320  0.9577  1.5440
 6767TIP3    H241793   0.807   5.681   4.974 -0.6473 -0.5748 -1.5254
 6768TIP3   OH241794   0.871   4.852   4.153  0.4998 -0.1945 -0.2910
 6768TIP3    H141795   0.823   4.773   4.130  2.2368 -1.0680 -1.1214
 6768TIP3    H241796   0.815   4.897   4.216 -1.4091 -1.0860 -1.2917
 6769TIP3   OH241797   2.556   4.047   1.147  0.2170 -0.1219 -0.2062
 6769TIP3    H141798   2.576   4.058   1.054 -0.1325  0.0269 -0.2656
 6769TIP3    H241799   2.511   4.128   1.172 -1.4333 -0.9197 -0.3948
 6770TIP3   OH241800   3.434   5.446  10.621  0.2206 -0.2417  0.7096
 6770TIP3    H141801   3.517   5.490  10.602 -0.1252 -0.1490 -0.6973
 6770TIP3    H241802   3.375   5.517  10.646  0.3078 -0.1884  0.7639
 6771TIP3   OH241803   1.457   1.996  11.966  0.2435 -0.0216  0.0707
 6771TIP3    H141804   1.375   1.948  11.974 -1.1255  2.2133  0.1759
 6771TIP3    H241805   1.446   2.073  12.021  1.6686  1.2901 -1.3400
 6772TIP3   OH241806   3.433   6.144   1.177 -0.5193 -0.2282 -0.4935
 6772TIP3    H141807   3.490   6.221   1.172  0.3383 -0.5221  2.6350
 6772TIP3    H241808   3.346   6.180   1.195 -0.2506  0.0856  0.2380
 6773TIP3   OH241809   4.784   0.217   4.065  0.3726 -0.2979  0.2792
 6773TIP3    H141810   4.741   0.303   4.061  1.4614  0.2561 -0.2442
 6773TIP3    H241811   4.862   0.228   4.010  0.3754 -1.7243 -0.0289
 6774TIP3   OH241812   4.712   1.740   3.952  0.1511  0.1321 -0.1254
 6774TIP3    H141813   4.711   1.696   4.037 -2.6989  0.5413  0.1510
 6774TIP3    H241814   4.773   1.813   3.963  0.6707 -0.4611  1.1862
 6775TIP3   OH241815   1.069   4.255  10.627  0.4492 -0.2267 -0.4229
 6775TIP3    H141816   1.078   4.339  10.673  0.5022 -0.1595 -0.5560
 6775TIP3    H241817   1.013   4.274  10.552  0.6059 -0.2713 -0.5530
 6776TIP3   OH241818   5.465   1.151   3.828  0.1169 -0.0075  0.3806
 6776TIP3    H141819   5.407   1.222   3.800 -0.9070 -1.0440 -0.2000
 6776TIP3    H241820   5.539   1.155   3.767 -0.3228  0.0674 -0.1568
 6777TIP3   OH241821   2.457   4.031  14.336  0.5163  0.0851  0.6005
 6777TIP3    H141822   2.463   3.947  14.291 -0.7296 -0.5586  1.5787
 6777TIP3    H241823   2.400   4.014  14.411  2.3956  1.1654  2.3646
 6778TIP3   OH241824   2.642   3.425   3.764  0.0641 -0.0398  0.5408
 6778TIP3    H141825   2.625   3.518   3.782  1.7632  0.4155  0.0018
 6778TIP3    H241826   2.737   3.419   3.762 -0.0323 -1.6745 -0.1191
 6779TIP3   OH241827   1.218   3.082   5.460  0.3559  0.4935  0.0392
 6779TIP3    H141828   1.134   3.048   5.428 -0.7940  0.8047  2.4798
 6779TIP3    H241829   1.284   3.038   5.406 -1.2883 -1.3087 -0.6260
 6780TIP3   OH241830   5.872   5.614  12.048  0.4059 -0.4532  0.2956
 6780TIP3    H141831   5.957   5.606  12.092  1.4594  0.9203 -1.3781
 6780TIP3    H241832   5.814   5.650  12.115  1.0117 -1.7118  1.5658
 6781TIP3   OH241833   4.915   1.635   1.637 -0.2794 -0.1925  0.1979
 6781TIP3    H141834   4.827   1.670   1.650 -0.9984 -1.8094 -0.0099
 6781TIP3    H241835   4.902   1.540   1.630  1.5482 -0.5269  0.7329
 6782TIP3   OH241836   1.866   4.122   2.268  0.1723 -0.7042  0.2095
 6782TIP3    H141837   1.871   4.105   2.362 -0.7060 -2.6897 -0.0439
 6782TIP3    H241838   1.828   4.042   2.232  0.7331 -0.0782 -1.8745
 6783TIP3   OH241839   4.321   0.545   4.407 -0.2559  0.1066  0.0124
 6783TIP3    H141840   4.318   0.572   4.316 -0.4801  1.0155  0.2795
 6783TIP3    H241841   4.366   0.460   4.405 -1.0322 -0.2940 -1.0181
 6784TIP3   OH241842   6.590   1.677   5.579  0.6090  0.2118  0.5985
 6784TIP3    H141843   6.501   1.702   5.604  0.4029 -0.9085  1.0556
 6784TIP3    H241844   6.631   1.651   5.662  0.9167 -0.5851  0.2098
 6785TIP3   OH241845   4.787   1.870  15.016 -0.0579  0.0210  0.2173
 6785TIP3    H141846   4.694   1.891  15.009  0.1563  2.1092  2.2794
 6785TIP3    H241847   4.800   1.848  15.109  1.2864 -1.5674 -0.3010
 6786TIP3   OH241848   5.617   1.149  16.883  0.0512  0.0704  0.0894
 6786TIP3    H141849   5.570   1.170  16.803  1.0018 -1.5742 -0.9598
 6786TIP3    H241850   5.562   1.085  16.928  0.0894  0.0625  0.1259
 6787TIP3   OH241851   6.657   4.418  16.131  0.3566 -0.2767 -0.1031
 6787TIP3    H141852   6.568   4.451  16.117 -0.0985  0.2117  3.1501
 6787TIP3    H241853   6.645   4.329  16.161  1.0634 -0.5401 -0.5753
 6788TIP3   OH241854   5.146   1.405  15.849 -0.1240 -0.2723  0.1354
 6788TIP3    H141855   5.098   1.384  15.769  0.5115 -2.2522  0.2419
 6788TIP3    H241856   5.237   1.382  15.830  0.3250  0.7483  0.9135
 6789TIP3   OH241857   3.388   5.872   0.624 -0.0416 -0.2476 -0.3316
 6789TIP3    H141858   3.409   5.959   0.589 -1.4837 -0.0960 -0.9090
 6789TIP3    H241859   3.346   5.890   0.708 -0.3809 -0.3743 -0.4716
 6790TIP3   OH241860   4.074   5.041  15.477 -0.1236 -0.0346  0.3365
 6790TIP3    H141861   4.073   5.121  15.529 -1.9997 -0.8066  1.5896
 6790TIP3    H241862   4.082   4.970  15.541 -1.7929 -0.9737 -0.4145
 6791TIP3   OH241863   1.766   2.159   2.519  0.0530 -0.2636 -0.1354
 6791TIP3    H141864   1.838   2.145   2.457 -1.4574 -1.1780 -1.7579
 6791TIP3    H241865   1.729   2.243   2.493  0.6813  0.3541  0.8957
 6792TIP3   OH241866   6.045   1.623  11.213  0.1488  0.1060 -0.3824
 6792TIP3    H141867   6.012   1.538  11.184  0.3770 -0.5251  1.1119
 6792TIP3    H241868   6.068   1.610  11.305  1.8043  1.3139 -0.5747
 6793TIP3   OH241869   0.185   0.775   2.497  0.0853  0.1086  0.0754
 6793TIP3    H141870   0.263   0.795   2.548  1.0576  0.8726 -1.6291
 6793TIP3    H241871   0.140   0.860   2.488  0.5852  0.2436 -1.3557
 6794TIP3   OH241872   6.571   6.032  10.962  0.0702  0.3734 -0.2077
 6794TIP3    H141873   6.538   5.960  10.909  0.1639 -0.3043  0.6202
 6794TIP3    H241874   6.652   6.059  10.919  0.6495 -0.7972  0.1018
 6795TIP3   OH241875   2.931   5.741   3.422 -0.4035  0.4178 -0.5559
 6795TIP3    H141876   2.905   5.718   3.512 -0.8255 -0.2047 -0.8286
 6795TIP3    H241877   2.954   5.657   3.382 -0.3606  0.6774 -1.0770
 6796TIP3   OH241878   4.527   5.056  13.865  0.1323 -0.1592 -0.1287
 6796TIP3    H141879   4.433   5.058  13.879 -0.0476 -1.5620 -0.9841
 6796TIP3    H241880   4.538   5.071  13.771  0.5131 -3.1523 -0.6531
 6797TIP3   OH241881   4.690   1.148   5.690  0.4827 -0.2996 -0.2027
 6797TIP3    H141882   4.770   1.097   5.705  0.1522 -0.4401  1.2003
 6797TIP3    H241883   4.626   1.110   5.750 -0.5524  0.0377 -1.0710
 6798TIP3   OH241884   3.401   0.005  11.656  0.2452  0.2287 -0.5856
 6798TIP3    H141885   3.371   0.091  11.683 -0.3141  0.0566 -0.6545
 6798TIP3    H241886   3.323  -0.050  11.658  0.4272 -0.0748 -1.3859
 6799TIP3   OH241887   2.005   1.619   1.213 -0.2700 -0.2580 -0.1549
 6799TIP3    H141888   2.081   1.565   1.235 -1.5029 -2.6048 -1.2258
 6799TIP3    H241889   2.042   1.702   1.183  1.8839 -1.3573 -0.7793
 6800TIP3   OH241890   1.180   4.544  15.860 -0.4981 -0.0102 -0.3541
 6800TIP3    H141891   1.150   4.634  15.849  0.3700  0.2639 -0.4932
 6800TIP3    H241892   1.150   4.499  15.782  0.8945  0.6602 -1.3058
 6801TIP3   OH241893   2.622   5.645   3.159  0.4527  0.4794 -0.6786
 6801TIP3    H141894   2.713   5.629   3.132  0.2181  0.1510 -1.2771
 6801TIP3    H241895   2.593   5.562   3.196  0.2122  0.4228 -0.9983
 6802TIP3   OH241896   3.828   5.534  10.830  0.8123 -0.4247 -0.1245
 6802TIP3    H141897   3.787   5.541  10.744  2.6726 -1.3248 -1.1552
 6802TIP3    H241898   3.906   5.590  10.824  1.5258 -1.3058  0.6026
 6803TIP3   OH241899   0.283   5.106   0.013  0.0556 -0.2125 -0.2896
 6803TIP3    H141900   0.360   5.055  -0.010  0.4483  0.1433  0.2182
 6803TIP3    H241901   0.210   5.044   0.008  0.3347 -0.4867 -1.0290
 6804TIP3   OH241902   4.053   6.046  13.851  0.2142  0.4008  0.3181
 6804TIP3    H141903   4.146   6.033  13.867  0.0554 -2.5720 -0.4588
 6804TIP3    H241904   4.013   5.962  13.874 -1.7625  0.3927 -2.5435
 6805TIP3   OH241905   4.999   2.862   4.538 -0.3693  0.4389  0.0327
 6805TIP3    H141906   5.016   2.953   4.562  1.9266  0.0715  0.0746
 6805TIP3    H241907   5.040   2.811   4.609  0.6377 -0.6115 -1.2557
 6806TIP3   OH241908   2.208   0.806   2.515 -0.0136  0.2287 -0.1476
 6806TIP3    H141909   2.217   0.750   2.592 -1.5200  1.0066  0.6558
 6806TIP3    H241910   2.201   0.894   2.551  0.4181  0.7339 -1.2635
 6807TIP3   OH241911   5.689   6.730   4.776  0.3840 -0.1601 -0.4078
 6807TIP3    H141912   5.785   6.732   4.776  0.3710  1.0430 -0.8779
 6807TIP3    H241913   5.667   6.638   4.762  1.4758 -0.1716 -2.4054
 6808TIP3   OH241914   4.571   2.813   5.638  0.9745 -0.2064  0.6766
 6808TIP3    H141915   4.625   2.891   5.647  2.5855 -0.9732 -1.6388
 6808TIP3    H241916   4.486   2.846   5.608  0.7423  0.8292  2.3500
 6809TIP3   OH241917   1.216   6.139  16.771 -0.4349 -0.2885 -0.2260
 6809TIP3    H141918   1.192   6.214  16.825 -0.1913 -0.3481 -0.0349
 6809TIP3    H241919   1.216   6.065  16.832 -0.8547 -0.4760 -0.4499
 6810TIP3   OH241920   3.633   1.597   2.303  0.2955 -0.1922  0.3231
 6810TIP3    H141921   3.688   1.674   2.318  0.4632 -0.3582  0.5817
 6810TIP3    H241922   3.626   1.556   2.389 -0.4135 -0.0604  0.3364
 6811TIP3   OH241923   0.944   3.284  10.630  0.2727  0.1717 -0.0292
 6811TIP3    H141924   0.922   3.274  10.538 -1.1900 -0.9082  0.4068
 6811TIP3    H241925   0.863   3.264  10.677  1.0067  0.6229  1.4985
 6812TIP3   OH241926   6.180   6.696   2.097 -0.1158  0.8965 -0.6489
 6812TIP3    H141927   6.142   6.782   2.076 -0.5984  0.9947  0.5750
 6812TIP3    H241928   6.218   6.707   2.184 -1.2245 -0.4380  0.0477
 6813TIP3   OH241929   3.756   4.403  10.463  0.1196 -0.7378 -0.3019
 6813TIP3    H141930   3.781   4.428  10.374  2.3818 -1.5474  0.0508
 6813TIP3    H241931   3.799   4.319  10.477  1.2767  0.1778  2.1420
 6814TIP3   OH241932   1.716   5.581  16.043 -0.3721 -0.2100 -0.1761
 6814TIP3    H141933   1.674   5.660  16.008 -2.2141 -0.6675  0.8338
 6814TIP3    H241934   1.729   5.525  15.967 -0.0094  0.6325 -0.7534
 6815TIP3   OH241935   2.542   5.080  13.834 -0.2596  0.8318 -0.9017
 6815TIP3    H141936   2.503   5.002  13.793 -0.4467  0.4589 -0.0243
 6815TIP3    H241937   2.513   5.077  13.925  0.7951  1.2252 -0.5375
 6816TIP3   OH241938   2.587   3.140   2.738  0.5449  0.0923  0.5443
 6816TIP3    H141939   2.519   3.206   2.725 -0.5953 -0.8114  1.6439
 6816TIP3    H241940   2.581   3.118   2.831  1.2973 -1.1286  0.3281
 6817TIP3   OH241941   0.218   1.557  11.090 -0.1934 -0.2442 -0.1336
 6817TIP3    H141942   0.193   1.645  11.061  0.7881 -0.0796 -0.5066
 6817TIP3    H241943   0.238   1.510  11.008  0.9971 -0.2780  0.1694
 6818TIP3   OH241944   0.292   5.730  13.467 -0.6606 -0.6199  0.3412
 6818TIP3    H141945   0.238   5.658  13.434 -0.1575 -0.8066 -0.1139
 6818TIP3    H241946   0.349   5.752  13.393  0.7712 -1.2972  1.1984
 6819TIP3   OH241947   3.080   0.532   5.490 -0.0851 -0.4584 -0.0850
 6819TIP3    H141948   3.147   0.560   5.427  1.7617  0.8145  2.2883
 6819TIP3    H241949   3.013   0.601   5.485  0.2168 -0.1858 -0.4019
 6820TIP3   OH241950   6.463   4.542   0.726 -0.3200 -0.2370  0.1262
 6820TIP3    H141951   6.542   4.595   0.738  0.6522 -1.7133  0.5734
 6820TIP3    H241952   6.432   4.565   0.638  0.6499  0.3270 -0.0842
 6821TIP3   OH241953   6.115   0.900  11.065  0.5066 -0.0606  0.3526
 6821TIP3    H141954   6.140   0.977  11.013  0.7618  0.1741  0.8143
 6821TIP3    H241955   6.021   0.891  11.051  0.5096  0.2114  0.1350
 6822TIP3   OH241956   2.551   0.877  16.925  0.0790  0.5599  0.0410
 6822TIP3    H141957   2.459   0.885  16.953  0.5044  1.4030  1.3015
 6822TIP3    H241958   2.593   0.954  16.961  1.1415  0.5926 -1.2183
 6823TIP3   OH241959   4.715   6.597  16.002  0.9345 -0.4737  0.1009
 6823TIP3    H141960   4.763   6.676  15.977  0.9697 -0.9493 -1.4670
 6823TIP3    H241961   4.623   6.625  16.002  0.9375 -0.4442 -0.5600
 6824TIP3   OH241962   2.956   4.389   2.898 -0.3048  0.2552 -0.4346
 6824TIP3    H141963   3.029   4.438   2.935 -0.1682 -0.3485  0.1252
 6824TIP3    H241964   2.997   4.314   2.854 -0.5148  0.5600 -1.1614
 6825TIP3   OH241965   5.690   0.584   3.221 -0.6573  0.2623  0.5486
 6825TIP3    H141966   5.634   0.523   3.174 -2.3969  1.3869  1.0337
 6825TIP3    H241967   5.655   0.585   3.310 -0.9793  2.2314  0.4523
 6826TIP3   OH241968   5.855   1.575   2.345  0.6929 -0.6175 -0.6215
 6826TIP3    H141969   5.905   1.650   2.313  2.0970 -1.5811 -0.8372
 6826TIP3    H241970   5.772   1.579   2.298 -0.4342  2.2710  1.3641
 6827TIP3   OH241971   0.046   4.965   2.968  0.4738  0.6539 -0.1188
 6827TIP3    H141972   0.130   4.947   3.010  0.2942 -0.2590 -0.1085
 6827TIP3    H241973  -0.005   4.884   2.981 -0.5241  1.3043  0.1630
 6828TIP3   OH241974   4.443   4.852   2.088  0.4714 -0.4415 -0.7427
 6828TIP3    H141975   4.506   4.785   2.062  1.2841 -0.0939  0.2700
 6828TIP3    H241976   4.495   4.931   2.100  0.2935 -0.6624  2.3013
 6829TIP3   OH241977   1.198   2.462  11.054 -0.3825 -0.0758  0.6733
 6829TIP3    H141978   1.231   2.394  10.996 -0.7210 -0.1471  0.5593
 6829TIP3    H241979   1.133   2.417  11.109 -0.0080 -0.0296  1.1637
 6830TIP3   OH241980   5.799   3.716   4.693 -0.1249 -0.2448 -0.2802
 6830TIP3    H141981   5.891   3.703   4.717 -0.0558  0.0800 -0.3628
 6830TIP3    H241982   5.751   3.666   4.759  0.1620 -2.5282 -1.6822
 6831TIP3   OH241983   1.421   4.777  16.382  0.2067 -0.3821 -0.3503
 6831TIP3    H141984   1.442   4.693  16.340 -0.3678 -0.4775 -0.4436
 6831TIP3    H241985   1.452   4.766  16.472  2.1161  0.0768 -0.9008
 6832TIP3   OH241986   0.843   6.653   0.977 -0.3534 -0.2954  0.3681
 6832TIP3    H141987   0.798   6.622   0.898 -0.1716  2.8414 -1.1368
 6832TIP3    H241988   0.931   6.616   0.970  0.2661  1.3862 -2.0077
 6833TIP3   OH241989   5.544   3.493   4.282 -0.2260 -0.4608 -0.1293
 6833TIP3    H141990   5.584   3.411   4.251  0.4363  0.2151 -1.0879
 6833TIP3    H241991   5.618   3.544   4.316 -0.4800  0.1778 -0.5273
 6834TIP3   OH241992   2.345   1.696  11.695  0.1051  0.2419  0.2667
 6834TIP3    H141993   2.377   1.786  11.699  1.9004 -0.3584  0.1465
 6834TIP3    H241994   2.369   1.665  11.607 -2.7502  0.3984 -0.6698
 6835TIP3   OH241995   1.774   2.588   0.937 -0.0770 -0.1088 -0.2131
 6835TIP3    H141996   1.795   2.504   0.896 -0.8780 -0.0879 -0.6944
 6835TIP3    H241997   1.724   2.636   0.870 -0.5177  0.3409  0.4195
 6836TIP3   OH241998   4.990   0.731   2.191  0.1830 -0.2369  0.8070
 6836TIP3    H141999   5.065   0.763   2.240  0.8176 -1.0162  0.3809
 6836TIP3    H242000   4.951   0.809   2.152 -0.1003  0.3394  2.2097
 6837TIP3   OH242001   3.716   1.522  14.600 -0.0179  0.7492  0.2765
 6837TIP3    H142002   3.754   1.482  14.678  1.9697 -1.3990 -1.6275
 6837TIP3    H242003   3.784   1.515  14.533 -2.3946  0.2463 -2.3110
 6838TIP3   OH242004   2.124   5.152  14.603  0.0177  0.0240  0.2665
 6838TIP3    H142005   2.074   5.233  14.595 -0.8556 -0.4079  1.1224
 6838TIP3    H242006   2.083   5.091  14.542  2.2022  0.8916 -2.2451
 6839TIP3   OH242007   5.131   2.011  11.360  0.6606  0.0045 -0.3230
 6839TIP3    H142008   5.216   1.991  11.319  1.8345 -1.4729  2.5293
 6839TIP3    H242009   5.154   2.042  11.448 -1.7588  0.5913  0.1721
 6840TIP3   OH242010   0.833   2.973  16.008  0.0140  0.1694  0.7997
 6840TIP3    H142011   0.880   2.890  15.996 -2.7507 -1.2051 -1.8097
 6840TIP3    H242012   0.796   2.968  16.096 -0.5645 -1.6527  0.4833
 6841TIP3   OH242013   4.586   4.135   1.326  0.4195  0.2712 -0.3103
 6841TIP3    H142014   4.667   4.118   1.375  0.3311 -0.3220 -0.3629
 6841TIP3    H242015   4.608   4.114   1.236  0.1794  0.0064 -0.3083
 6842TIP3   OH242016   4.216   4.236  10.537  0.0930  0.4390 -0.4607
 6842TIP3    H142017   4.288   4.282  10.494 -0.7610  1.4691 -0.8269
 6842TIP3    H242018   4.256   4.155  10.569  1.6422  1.4260  0.2214
 6843TIP3   OH242019   5.693   4.376   0.603  0.4124 -0.0584  0.6794
 6843TIP3    H142020   5.709   4.298   0.656  1.1621 -0.3574  0.0456
 6843TIP3    H242021   5.620   4.420   0.645 -0.3618 -1.3768  0.7722
 6844TIP3   OH242022   2.680   1.579  17.112 -0.0952 -0.1377 -0.1986
 6844TIP3    H142023   2.752   1.628  17.151  1.3138 -1.5320 -0.9072
 6844TIP3    H242024   2.648   1.635  17.041  0.5654  0.3502 -0.1196
 6845TIP3   OH242025   2.620   4.585   3.729  0.3056 -0.3578  0.9564
 6845TIP3    H142026   2.591   4.642   3.659  2.7750  1.8790  1.5747
 6845TIP3    H242027   2.699   4.543   3.694 -0.2390 -1.7176  1.3053
 6846TIP3   OH242028   4.861   2.708  10.984 -0.1191 -0.0065 -0.4788
 6846TIP3    H142029   4.926   2.713  10.914  1.0893  3.7381  0.6968
 6846TIP3    H242030   4.777   2.705  10.938  0.7205 -1.4182 -2.0198
 6847TIP3   OH242031   1.430   3.190   2.315  0.2539  0.2488  0.0393
 6847TIP3    H142032   1.403   3.143   2.394 -0.1803  0.4178 -0.0007
 6847TIP3    H242033   1.474   3.268   2.348  0.7370 -0.0528  0.1078
 6848TIP3   OH242034   3.494   4.723  12.710 -0.4292 -0.6282  0.4196
 6848TIP3    H142035   3.456   4.767  12.634 -1.7008 -0.7635  0.9691
 6848TIP3    H242036   3.502   4.791  12.777  0.4379 -0.5718  0.2815
 6849TIP3   OH242037   3.925   1.385   0.490  0.0385  0.2432 -0.1344
 6849TIP3    H142038   3.964   1.414   0.408  0.5327 -0.6537 -0.2156
 6849TIP3    H242039   3.917   1.290   0.482 -0.6252  0.2299  0.5446
 6850TIP3   OH242040   5.917   5.167   3.993  0.0449 -0.1080  0.8872
 6850TIP3    H142041   5.993   5.214   4.027  0.8937 -1.1085  0.4149
 6850TIP3    H242042   5.874   5.230   3.935  1.1423  0.1106  0.2869
 6851TIP3   OH242043   5.358   5.336  15.658 -0.3243 -0.5411 -0.4590
 6851TIP3    H142044   5.454   5.338  15.653 -0.2724 -1.7047 -0.2850
 6851TIP3    H242045   5.329   5.379  15.577  0.3807 -2.4540 -1.8201
 6852TIP3   OH242046   6.334   5.853  17.118 -0.0259  0.2486 -0.1967
 6852TIP3    H142047   6.258   5.905  17.090 -1.8529 -1.1991  1.7336
 6852TIP3    H242048   6.371   5.902  17.191  0.1537  0.3609 -0.3628
 6853TIP3   OH242049   3.276   6.333   0.048  0.1086  0.1215  0.2271
 6853TIP3    H142050   3.358   6.338  -0.002 -0.9179 -1.3662 -1.7114
 6853TIP3    H242051   3.220   6.276  -0.003 -1.6334 -0.1385  2.2930
 6854TIP3   OH242052   6.398   4.697   1.168  0.2295  0.0147  0.1051
 6854TIP3    H142053   6.409   4.627   1.103 -1.1804 -0.0066 -0.1438
 6854TIP3    H242054   6.451   4.769   1.134 -1.0973  0.2883 -1.5362
 6855TIP3   OH242055   0.811   3.469  13.110  0.0773 -0.4623  0.6374
 6855TIP3    H142056   0.782   3.433  13.194 -0.5480 -1.4357  0.0159
 6855TIP3    H242057   0.733   3.510  13.073  0.1818 -0.6495  0.2093
 6856TIP3   OH242058   1.665   4.550   2.717 -0.3669  0.7897 -0.3198
 6856TIP3    H142059   1.690   4.458   2.722  0.6714  1.0709  0.0679
 6856TIP3    H242060   1.698   4.580   2.633 -4.3012 -0.1445 -2.4111
 6857TIP3   OH242061   6.657   2.670  11.951  0.3466 -0.0415 -0.2975
 6857TIP3    H142062   6.683   2.596  11.897  1.6409  0.9247 -1.0464
 6857TIP3    H242063   6.706   2.660  12.032  1.0950  0.3718 -0.6881
 6858TIP3   OH242064   2.214   4.598  12.025 -0.3522  0.3040  0.3757
 6858TIP3    H142065   2.273   4.558  11.961 -0.7255  0.4233 -0.0501
 6858TIP3    H242066   2.268   4.662  12.071  0.3735 -0.9537  1.3529
 6859TIP3   OH242067   3.882   0.454   0.469 -0.6599 -0.0976  0.9377
 6859TIP3    H142068   3.941   0.491   0.535  0.9522 -0.6628 -0.1223
 6859TIP3    H242069   3.876   0.361   0.492  0.7536 -0.5183 -0.2589
 6860TIP3   OH242070   4.942   5.584   2.193  0.0168  0.3837  0.2545
 6860TIP3    H142071   4.921   5.617   2.280  0.2496  1.6937 -0.1600
 6860TIP3    H242072   4.943   5.662   2.138 -1.8737 -0.6131 -1.3047
 6861TIP3   OH242073   1.912   1.240  16.021 -0.0690 -0.5246 -0.5119
 6861TIP3    H142074   2.005   1.222  16.039  0.1272  1.0395  0.1560
 6861TIP3    H242075   1.912   1.328  15.983 -1.3476 -0.2233  0.1571
 6862TIP3   OH242076   3.523   3.529  12.014 -0.3749 -0.0835  0.1641
 6862TIP3    H142077   3.604   3.573  12.040 -0.4825 -1.0203  2.2498
 6862TIP3    H242078   3.522   3.448  12.064 -1.6264 -1.0913 -1.3835
 6863TIP3   OH242079   4.502   3.764   5.840  0.1113  0.0857 -0.4665
 6863TIP3    H142080   4.581   3.807   5.872 -0.1952  0.3488 -0.0512
 6863TIP3    H242081   4.510   3.673   5.871 -1.6564  0.9875  3.2819
 6864TIP3   OH242082   2.327   2.232   6.218  0.0074 -0.0996 -0.3519
 6864TIP3    H142083   2.241   2.263   6.189 -0.0863  0.0992  0.1265
 6864TIP3    H242084   2.389   2.293   6.178 -0.1847  0.8593  0.7383
 6865TIP3   OH242085   1.440   2.494  13.013  0.5997  0.4828 -0.2579
 6865TIP3    H142086   1.449   2.466  13.105  1.3068  0.0159 -0.4611
 6865TIP3    H242087   1.351   2.469  12.989  0.6556 -0.0588  0.0838
 6866TIP3   OH242088   2.159   4.581   2.626  0.1320 -0.0947  0.1159
 6866TIP3    H142089   2.090   4.557   2.564 -0.0097  0.9041 -0.1212
 6866TIP3    H242090   2.239   4.543   2.590  0.0774  0.6090 -0.7497
 6867TIP3   OH242091   6.291   5.587   2.077 -0.0867 -0.3550 -0.1382
 6867TIP3    H142092   6.248   5.668   2.048 -2.8156 -1.2819  1.0736
 6867TIP3    H242093   6.314   5.604   2.168  1.6677 -0.1080 -0.5902
 6868TIP3   OH242094   6.274   4.551  13.163 -0.2992  0.4650  0.5687
 6868TIP3    H142095   6.317   4.611  13.224 -0.3192  2.7158 -1.4909
 6868TIP3    H242096   6.250   4.606  13.089 -1.8585 -1.8192 -0.7114
 6869TIP3   OH242097   5.187   3.571  16.240  0.4776  0.4982 -0.6209
 6869TIP3    H142098   5.273   3.535  16.262  0.0248 -0.5563 -0.5121
 6869TIP3    H242099   5.178   3.648  16.296 -0.4888 -1.8716  2.7802
 6870TIP3   OH242100   4.001   1.505   2.993 -0.0946 -0.2802  0.2647
 6870TIP3    H142101   4.047   1.576   3.039  0.2258  0.7700 -1.5820
 6870TIP3    H242102   3.983   1.440   3.061  1.0320  0.8512  1.7077
 6871TIP3   OH242103   2.841   6.354  14.718  0.2953 -0.5858 -0.1737
 6871TIP3    H142104   2.904   6.425  14.721  1.9630 -1.9126 -1.3794
 6871TIP3    H242105   2.758   6.396  14.698  1.0121  1.1123  0.2906
 6872TIP3   OH242106   2.289   2.713   5.282 -1.0562  0.2628  0.0120
 6872TIP3    H142107   2.232   2.636   5.271 -1.5213  0.6460 -0.3132
 6872TIP3    H242108   2.293   2.752   5.195  4.6671 -3.0601 -1.7260
 6873TIP3   OH242109   0.487   1.276   0.798  0.2444 -0.3383  0.0665
 6873TIP3    H142110   0.504   1.269   0.704  0.5024 -0.8136  0.1450
 6873TIP3    H242111   0.487   1.185   0.829  1.2659 -0.1339  0.7103
 6874TIP3   OH242112   0.667   0.939  12.344  0.1631 -0.1068 -0.8909
 6874TIP3    H142113   0.577   0.936  12.378  0.1109 -0.8215 -1.0664
 6874TIP3    H242114   0.688   1.032  12.339 -0.7547  0.0858 -1.3360
 6875TIP3   OH242115   3.463   6.693   5.842 -0.7780 -0.3324  0.2588
 6875TIP3    H142116   3.438   6.765   5.784  0.9155  0.1261  0.0612
 6875TIP3    H242117   3.495   6.625   5.782 -0.2643 -0.3669  0.5683
 6876TIP3   OH242118   0.202   1.921   4.268 -0.1262  0.0875  0.3278
 6876TIP3    H142119   0.175   1.885   4.352  1.4822 -0.5201  0.6271
 6876TIP3    H242120   0.123   1.918   4.214 -1.2487  0.7014  1.8554
 6877TIP3   OH242121   2.969   2.182  14.549 -0.0703  0.5931 -0.6284
 6877TIP3    H142122   2.911   2.231  14.607 -2.8956 -2.3939 -0.6073
 6877TIP3    H242123   3.043   2.157  14.604 -1.5828 -0.2241  1.1522
 6878TIP3   OH242124   6.117   5.575  12.198  0.0744  0.3548  0.6447
 6878TIP3    H142125   6.104   5.497  12.252  2.6670 -0.7292 -0.1097
 6878TIP3    H242126   6.162   5.637  12.255  0.1990  0.3355  0.5694
 6879TIP3   OH242127   6.732   6.001  11.710 -0.4844  0.3696 -0.1539
 6879TIP3    H142128   6.683   6.077  11.741 -1.3936  0.4130 -1.6286
 6879TIP3    H242129   6.823   6.030  11.709 -0.8423  1.5250 -0.9089
 6880TIP3   OH242130   1.025   6.495   3.896 -0.0647 -0.4083  0.1635
 6880TIP3    H142131   1.082   6.560   3.937 -1.7833  1.1828  0.1690
 6880TIP3    H242132   1.009   6.430   3.964  1.2283 -0.5668  0.3391
 6881TIP3   OH242133   3.305   5.997   3.101 -0.4103 -0.2961 -0.4018
 6881TIP3    H142134   3.256   6.073   3.069  0.7954  0.4449 -0.5235
 6881TIP3    H242135   3.367   5.977   3.031  0.3164 -0.4316  0.2677
 6882TIP3   OH242136   2.572   1.135   4.144 -0.8749  0.1612 -0.0446
 6882TIP3    H142137   2.649   1.191   4.143 -0.8040  0.1950  1.9187
 6882TIP3    H242138   2.604   1.048   4.118 -0.0235  0.0467  1.2917
 6883TIP3   OH242139   5.343   1.831   1.556 -0.1234  0.1276  0.3581
 6883TIP3    H142140   5.331   1.829   1.650  0.6859  0.0898  0.4672
 6883TIP3    H242141   5.257   1.807   1.520 -0.3722 -0.0790  1.0794
 6884TIP3   OH242142   5.417   5.494  13.764 -0.3248 -0.0808  0.4327
 6884TIP3    H142143   5.393   5.550  13.690 -2.2398  0.6861  1.5699
 6884TIP3    H242144   5.510   5.474  13.750 -0.2530  1.2848 -1.3486
 6885TIP3   OH242145   1.782   3.786  11.381  0.0278  0.2487 -0.7225
 6885TIP3    H142146   1.821   3.802  11.296 -1.1251  0.5696 -1.2174
 6885TIP3    H242147   1.842   3.826  11.444  1.4942 -1.0178 -1.2649
 6886TIP3   OH242148   5.656   0.026   6.038 -0.0329  0.6572  0.0902
 6886TIP3    H142149   5.659  -0.022   6.120  1.9629  0.7437  0.1162
 6886TIP3    H242150   5.641  -0.041   5.971  0.3535  0.3242  0.3370
 6887TIP3   OH242151   5.550   1.083   4.770 -0.5446  0.1437  0.0731
 6887TIP3    H142152   5.532   0.991   4.748 -2.3325 -0.0040  1.7949
 6887TIP3    H242153   5.508   1.095   4.855  2.9446  1.5557  1.7784
 6888TIP3   OH242154   4.830   5.246  13.302 -0.2177  0.3165  0.3864
 6888TIP3    H142155   4.759   5.292  13.347  0.3788  0.7717  0.8827
 6888TIP3    H242156   4.906   5.257  13.360  0.0426 -0.9496  0.3148
 6889TIP3   OH242157   4.644   4.263   2.820  0.6767 -0.1003  0.3759
 6889TIP3    H142158   4.639   4.170   2.843  1.3170  0.4430  2.9936
 6889TIP3    H242159   4.553   4.293   2.827  0.5590 -0.3735  0.1058
 6890TIP3   OH242160   3.181   2.075  13.455 -0.1915 -0.6381  0.3765
 6890TIP3    H142161   3.263   2.057  13.409  0.3402 -1.2960  1.5468
 6890TIP3    H242162   3.115   2.078  13.385  0.9741  1.1535 -0.7265
 6891TIP3   OH242163   4.693   4.225   3.453 -0.4531 -0.3058 -0.1589
 6891TIP3    H142164   4.676   4.174   3.374 -1.7736 -2.9861  1.7012
 6891TIP3    H242165   4.778   4.195   3.484 -0.1038  0.4784 -0.3148
 6892TIP3   OH242166   3.820   0.808   5.871  0.1119  0.0769 -0.1601
 6892TIP3    H142167   3.871   0.875   5.826 -0.0937 -0.5446 -1.3654
 6892TIP3    H242168   3.733   0.847   5.881 -0.5726 -0.5996 -2.5500
 6893TIP3   OH242169   4.988   0.579   2.420  0.6659  0.3829 -0.0134
 6893TIP3    H142170   5.081   0.558   2.421  0.6600  0.3559 -0.0298
 6893TIP3    H242171   4.976   0.631   2.340  0.7198  0.6290  0.1371
 6894TIP3   OH242172   5.051   2.735   4.087 -0.5597 -0.3069 -0.1919
 6894TIP3    H142173   5.111   2.681   4.035 -0.0032  0.2508 -0.1493
 6894TIP3    H242174   4.977   2.751   4.029 -0.6372 -0.9550 -0.2708
 6895TIP3   OH242175   0.655   3.739  10.425  0.1962  0.8112  0.5661
 6895TIP3    H142176   0.711   3.760  10.350  1.1027  1.0194  1.2733
 6895TIP3    H242177   0.710   3.682  10.480 -0.3037  0.9723  1.2521
 6896TIP3   OH242178   3.647   5.674  10.138 -0.3186  0.5024 -0.2225
 6896TIP3    H142179   3.555   5.684  10.162 -0.7873 -0.2917 -1.6003
 6896TIP3    H242180   3.684   5.762  10.148 -0.7395  0.4604  2.1526
 6897TIP3   OH242181   6.225   4.289  13.604  0.3793  0.2950 -0.1946
 6897TIP3    H142182   6.283   4.335  13.543  0.5733  0.5256  0.1573
 6897TIP3    H242183   6.157   4.353  13.626  0.0635  0.0691 -0.5031
 6898TIP3   OH242184   1.503   5.633   2.549 -0.3432 -0.9615 -0.1217
 6898TIP3    H142185   1.552   5.639   2.467  1.1318 -0.9241  0.7251
 6898TIP3    H242186   1.437   5.702   2.543  0.8394  0.1704 -0.5883
 6899TIP3   OH242187   3.073   1.645  11.902 -1.0958  0.6657 -0.5023
 6899TIP3    H142188   3.158   1.684  11.883 -0.4511 -0.0382  0.8022
 6899TIP3    H242189   3.051   1.678  11.989 -0.8556 -1.2857  0.3406
 6900TIP3   OH242190   0.268   4.788  11.582  0.4060  0.4804 -0.1741
 6900TIP3    H142191   0.293   4.697  11.569  0.1501  0.5722 -1.3641
 6900TIP3    H242192   0.275   4.801  11.677  2.0759 -0.2931 -0.1459
 6901TIP3   OH242193   3.324   6.349   5.091 -0.3093  0.1874  0.1704
 6901TIP3    H142194   3.285   6.268   5.057 -0.7811 -0.0051  1.1463
 6901TIP3    H242195   3.266   6.418   5.058 -1.0778 -0.0412  0.9973
 6902TIP3   OH242196   3.487   6.394   2.896  0.2741 -0.5016  0.9606
 6902TIP3    H142197   3.545   6.320   2.915  0.3908 -0.5056  0.5870
 6902TIP3    H242198   3.401   6.354   2.883 -0.1465 -0.3658  3.0150
 6903TIP3   OH242199   1.440   6.491  15.025 -0.1347  0.0512  0.1897
 6903TIP3    H142200   1.534   6.511  15.018  0.1309 -1.0383  0.5044
 6903TIP3    H242201   1.400   6.543  14.955  0.9959 -1.2329 -1.4970
 6904TIP3   OH242202   1.531   4.994  13.371 -0.1200  0.0134  0.0405
 6904TIP3    H142203   1.471   4.934  13.327 -0.8775  0.2595  0.7163
 6904TIP3    H242204   1.562   5.053  13.302  1.1589 -1.5228 -0.7822
 6905TIP3   OH242205   4.498   3.518  15.664  0.0952 -0.3538  0.0591
 6905TIP3    H142206   4.481   3.563  15.581 -1.4095 -1.0269 -0.0266
 6905TIP3    H242207   4.510   3.426  15.640  1.8660 -0.2507  0.3813
 6906TIP3   OH242208   2.683   2.826  10.745  0.5393  0.2191 -0.4657
 6906TIP3    H142209   2.600   2.873  10.756  1.2422  1.2513  0.6276
 6906TIP3    H242210   2.667   2.740  10.784  0.4514  0.9807  1.2446
 6907TIP3   OH242211   6.620   4.428  15.676 -0.1490  0.1618  0.0430
 6907TIP3    H142212   6.686   4.377  15.629  1.0942  1.5166  0.2601
 6907TIP3    H242213   6.592   4.494  15.613 -0.3585  0.3903  0.3757
 6908TIP3   OH242214   2.089   5.763  16.183 -0.1495 -0.5471 -0.8927
 6908TIP3    H142215   2.002   5.802  16.194 -0.2259 -0.8329 -0.4749
 6908TIP3    H242216   2.112   5.782  16.092 -0.4900 -0.1484 -0.9019
 6909TIP3   OH242217   6.740   6.004   1.877  0.7759  0.4956 -0.2641
 6909TIP3    H142218   6.706   6.040   1.795 -0.3472 -0.6548 -0.3315
 6909TIP3    H242219   6.823   5.962   1.852 -0.0538 -0.7500 -1.0430
 6910TIP3   OH242220   4.440   0.907  14.207 -0.0140 -0.1555  0.0473
 6910TIP3    H142221   4.529   0.903  14.172  0.5940 -0.8286  1.5421
 6910TIP3    H242222   4.398   0.977  14.159  0.6940 -1.0864 -2.0619
 6911TIP3   OH242223   4.961   4.537  11.920  0.4405  0.7845  0.1186
 6911TIP3    H142224   4.929   4.583  11.997 -1.4251 -1.6282  0.9247
 6911TIP3    H242225   4.957   4.601  11.850  1.2097  2.7576  1.7840
 6912TIP3   OH242226   3.121   2.530   1.076  0.0916 -0.3206 -0.5438
 6912TIP3    H142227   3.056   2.547   1.144  1.4169  2.0249  0.2602
 6912TIP3    H242228   3.205   2.533   1.122  1.3058  4.3685 -2.4897
 6913TIP3   OH242229   3.455   1.989   3.356  0.6519 -0.4597 -0.3283
 6913TIP3    H142230   3.511   1.912   3.346  0.5373 -0.6839  0.6633
 6913TIP3    H242231   3.456   2.008   3.449  0.0000  0.2382 -0.4512
 6914TIP3   OH242232   4.832   0.834  10.802 -0.0446  0.3423  1.2357
 6914TIP3    H142233   4.839   0.912  10.748  1.3015 -0.1588  0.6386
 6914TIP3    H242234   4.739   0.816  10.807 -0.2799  1.2641  0.3355
 6915TIP3   OH242235   2.747   0.447  11.027 -0.3510 -0.3792  0.1102
 6915TIP3    H142236   2.696   0.504  11.085  0.0431 -0.5796  0.6613
 6915TIP3    H242237   2.721   0.473  10.939 -1.6728 -0.7250  0.3810
 6916TIP3   OH242238   5.974   1.983   1.214 -0.1806  0.5793 -0.2745
 6916TIP3    H142239   6.028   1.909   1.186  2.2966  1.8245  0.8599
 6916TIP3    H242240   6.005   2.057   1.161 -0.5524  1.4036  0.6262
 6917TIP3   OH242241   4.943   3.992  13.267  0.0787  0.4917  0.9202
 6917TIP3    H142242   4.983   4.033  13.343  0.6657 -0.6996  1.2730
 6917TIP3    H242243   5.001   3.920  13.245 -2.7607 -2.6455  2.6960
 6918TIP3   OH242244   1.321   5.517   0.381 -0.2228 -0.0445  0.1198
 6918TIP3    H142245   1.289   5.495   0.469  0.9174  0.5568  0.7134
 6918TIP3    H242246   1.335   5.433   0.339 -1.1406 -0.3359  0.3665
 6919TIP3   OH242247   0.799   4.477   0.141 -0.3109  0.0736  0.3925
 6919TIP3    H142248   0.735   4.476   0.213  0.1877 -0.1730  0.8435
 6919TIP3    H242249   0.767   4.544   0.081 -0.7257  0.2983  0.8588
 6920TIP3   OH242250   3.945   5.338   3.304 -0.0786  0.0024 -0.0943
 6920TIP3    H142251   3.944   5.254   3.350 -1.9415 -0.4112 -0.8262
 6920TIP3    H242252   3.867   5.384   3.336  0.1692  0.8994 -0.7286
 6921TIP3   OH242253   0.356   5.339  14.727  1.4439 -0.5177  0.0492
 6921TIP3    H142254   0.317   5.339  14.814  0.4643 -2.1658 -0.3286
 6921TIP3    H242255   0.334   5.424  14.690 -0.1459 -0.6677  0.5880
 6922TIP3   OH242256   1.704   0.696  12.922  0.3930 -0.3530  0.1063
 6922TIP3    H142257   1.687   0.783  12.959 -0.4731  1.1755 -3.5049
 6922TIP3    H242258   1.617   0.658  12.910  0.7715 -3.1260  4.2067
 6923TIP3   OH242259   0.641   0.098  14.918  0.6931 -0.4730  0.5451
 6923TIP3    H142260   0.652   0.042  14.841 -1.8257 -0.8939  0.3767
 6923TIP3    H242261   0.604   0.179  14.882 -1.1146 -0.9071  1.2860
 6924TIP3   OH242262   4.264   2.198  12.107 -0.1905  0.6838 -0.0248
 6924TIP3    H142263   4.291   2.141  12.035  0.2267 -0.8818  1.3315
 6924TIP3    H242264   4.177   2.229  12.081 -0.5426 -0.7810 -0.6824
 6925TIP3   OH242265   1.064   4.985   0.949 -0.2240  0.2027 -0.1800
 6925TIP3    H142266   1.090   5.015   1.036  0.7841  0.4707 -0.5579
 6925TIP3    H242267   1.029   5.063   0.906 -1.0805 -0.0145  0.1067
 6926TIP3   OH242268   5.378   6.007  13.497  0.0333 -0.2550  0.0607
 6926TIP3    H142269   5.366   6.084  13.552 -0.5045  0.0621 -0.4863
 6926TIP3    H242270   5.347   6.034  13.411  1.4901 -0.5193 -0.5753
 6927TIP3   OH242271   4.261   1.976   0.940  0.8388  0.0434 -0.8968
 6927TIP3    H142272   4.226   1.960   0.852 -0.8364 -1.0163 -0.0843
 6927TIP3    H242273   4.224   2.061   0.965 -0.5045 -0.6671 -0.3874
 6928TIP3   OH242274   5.572   2.588  17.123  0.9276 -0.2874 -0.2318
 6928TIP3    H142275   5.628   2.529  17.175  0.8587 -1.1684 -1.1290
 6928TIP3    H242276   5.632   2.657  17.093  0.7026  1.0153  2.1076
 6929TIP3   OH242277   6.689   3.757  12.023 -0.2347  0.6682 -0.2011
 6929TIP3    H142278   6.769   3.809  12.011  0.5096 -0.5714 -0.7816
 6929TIP3    H242279   6.647   3.794  12.100  0.2384  2.1639 -0.6334
 6930TIP3   OH242280   5.095   6.639   4.141  0.0591  0.4208  0.3210
 6930TIP3    H142281   5.139   6.708   4.191 -1.3841  1.2091  0.5519
 6930TIP3    H242282   5.009   6.675   4.120 -0.9402 -1.5108  0.8899
 6931TIP3   OH242283   0.871   2.362   2.503 -0.2470 -0.2058  0.0123
 6931TIP3    H142284   0.941   2.417   2.468 -0.3674 -0.3030 -0.3953
 6931TIP3    H242285   0.848   2.401   2.587 -2.3491  2.1415 -1.5195
 6932TIP3   OH242286   3.988   5.417  12.862 -0.4510  0.2511  0.0079
 6932TIP3    H142287   4.014   5.415  12.769 -1.3328 -0.7426 -0.2360
 6932TIP3    H242288   4.054   5.471  12.904  0.5653 -0.1436 -1.0286
 6933TIP3   OH242289   1.405   1.047   6.193 -0.9977  0.1869  0.3306
 6933TIP3    H142290   1.400   1.115   6.125  1.6412 -0.7698 -0.9836
 6933TIP3    H242291   1.377   0.967   6.148 -1.3672 -0.0961  1.0528
 6934TIP3   OH242292   6.235   1.759  12.846  0.4950 -0.4252 -0.5870
 6934TIP3    H142293   6.290   1.792  12.774 -1.1869  0.2922 -1.6149
 6934TIP3    H242294   6.150   1.800  12.831  0.3035  0.5088  2.3857
 6935TIP3   OH242295   0.360   4.711  15.208  0.0699  0.0953  0.1904
 6935TIP3    H142296   0.339   4.670  15.292  1.7346 -1.0756  0.0740
 6935TIP3    H242297   0.431   4.771  15.228 -0.0052  0.3348 -0.2570
 6936TIP3   OH242298   6.285   2.616  11.746  0.0727 -0.1119  0.1152
 6936TIP3    H142299   6.307   2.680  11.678 -0.7080 -1.2351 -1.2710
 6936TIP3    H242300   6.355   2.550  11.739 -0.4830 -0.6753 -0.2199
 6937TIP3   OH242301   0.488   1.828  11.730 -0.3269 -0.4567 -0.1261
 6937TIP3    H142302   0.481   1.809  11.636 -1.7561 -1.1108  0.0923
 6937TIP3    H242303   0.496   1.923  11.734 -1.7042 -0.2742 -0.8731
 6938TIP3   OH242304   3.274   1.999  11.257  0.6286 -0.0914  0.0235
 6938TIP3    H142305   3.180   1.980  11.267  0.4186  1.1474  0.4688
 6938TIP3    H242306   3.294   1.969  11.168 -0.5424  0.9664 -0.6334
 6939TIP3   OH242307   2.031   2.453   2.256 -0.5935 -0.6299  0.3336
 6939TIP3    H142308   1.989   2.491   2.333  3.1191  1.3086  1.6319
 6939TIP3    H242309   2.018   2.518   2.187 -0.9462 -0.7204  0.3143
 6940TIP3   OH242310   4.915   3.018   0.175 -0.5131 -0.1828  0.2149
 6940TIP3    H142311   4.890   3.063   0.094  1.2386 -0.1558 -0.3719
 6940TIP3    H242312   4.960   3.085   0.226 -0.7380 -0.4549  0.7766
 6941TIP3   OH242313   6.510   3.970   0.044 -0.3393  0.0291 -0.0594
 6941TIP3    H142314   6.524   4.000  -0.046  0.7601 -0.2275  0.0182
 6941TIP3    H242315   6.444   4.031   0.079 -0.3082  0.5190 -0.8322
 6942TIP3   OH242316   1.397   2.399  12.671 -0.1103  0.1513  0.4744
 6942TIP3    H142317   1.336   2.435  12.735 -0.0970 -0.1882  0.6857
 6942TIP3    H242318   1.357   2.417  12.586 -1.6502 -2.0129  0.6551
 6943TIP3   OH242319   4.009   4.910  13.475  0.1073 -0.3223 -0.0355
 6943TIP3    H142320   4.034   4.995  13.511  0.1332 -0.9175  1.4185
 6943TIP3    H242321   3.924   4.892  13.515  0.5658 -1.4292  0.4620
 6944TIP3   OH242322   2.221   4.119  15.121  0.4843  0.0620 -0.0035
 6944TIP3    H142323   2.257   4.035  15.091  0.6096 -0.5235  1.6954
 6944TIP3    H242324   2.274   4.142  15.198 -0.8519  0.6730  0.7702
 6945TIP3   OH242325   4.510   5.413   6.022  0.0359 -0.1559 -0.2383
 6945TIP3    H142326   4.480   5.435   6.110  2.2814 -0.1516  0.6119
 6945TIP3    H242327   4.606   5.416   6.029  0.2947  1.9033 -3.2222
 6946TIP3   OH242328   2.890   2.662   3.915  0.0633 -0.0094 -0.4798
 6946TIP3    H142329   2.860   2.700   3.833 -0.3353  0.4264 -0.1420
 6946TIP3    H242330   2.969   2.614   3.892  0.3366  0.6664 -1.0038
 6947TIP3   OH242331   4.109   0.301  13.777  0.0634 -0.6090 -0.0424
 6947TIP3    H142332   4.102   0.393  13.750 -3.1761 -1.2118 -1.7765
 6947TIP3    H242333   4.023   0.280  13.813  0.1647 -3.3551 -1.1915
 6948TIP3   OH242334   1.389   3.112  10.361 -0.2167 -0.7795 -0.0310
 6948TIP3    H142335   1.457   3.046  10.373 -0.3873 -0.9191  0.1597
 6948TIP3    H242336   1.318   3.066  10.316  0.3414 -0.3103 -1.4816
 6949TIP3   OH242337   0.377   3.643   3.060 -0.1140  0.3665  0.5182
 6949TIP3    H142338   0.434   3.588   3.006 -1.0776 -1.1095  0.9494
 6949TIP3    H242339   0.289   3.610   3.043 -0.7583  1.9464  0.6360
 6950TIP3   OH242340   3.088   5.272  15.721  0.2398  0.5063 -0.2325
 6950TIP3    H142341   3.010   5.221  15.741  0.1913 -0.9152 -3.4563
 6950TIP3    H242342   3.059   5.339  15.660  1.7266 -1.7393 -3.7688
 6951TIP3   OH242343   0.392   0.239   4.442 -0.6525  0.8253 -0.2440
 6951TIP3    H142344   0.484   0.221   4.462 -0.9474 -1.6435 -0.8362
 6951TIP3    H242345   0.349   0.244   4.527 -0.0297  1.8346  0.0314
 6952TIP3   OH242346   1.756   2.525  14.664  0.0871 -0.8957 -0.6124
 6952TIP3    H142347   1.843   2.566  14.667 -0.5592  0.5942 -1.2913
 6952TIP3    H242348   1.733   2.511  14.755  0.6413 -0.4177 -0.3950
 6953TIP3   OH242349   4.363   3.489  12.924  0.0664  0.3450  0.0992
 6953TIP3    H142350   4.306   3.413  12.912 -0.3491  0.6544  0.0763
 6953TIP3    H242351   4.362   3.506  13.018 -0.3300  0.6898  0.0346
 6954TIP3   OH242352   1.491   4.027  12.413  0.2243 -0.5618  0.2319
 6954TIP3    H142353   1.544   4.073  12.348 -0.3450 -1.5496 -0.9566
 6954TIP3    H242354   1.411   4.080  12.420 -0.0245 -0.8395 -0.4280
 6955TIP3   OH242355   2.426   0.929  12.606  0.1514 -0.1072 -0.4589
 6955TIP3    H142356   2.521   0.927  12.615  0.5797  1.1963 -3.4200
 6955TIP3    H242357   2.407   0.859  12.543 -0.7970 -0.1019 -0.1858
 6956TIP3   OH242358   4.940   2.970   3.592 -0.5745 -0.2415  0.1099
 6956TIP3    H142359   4.845   2.966   3.591 -0.5465 -1.0148 -0.3835
 6956TIP3    H242360   4.963   3.019   3.512 -0.5687  0.3899  0.4929
 6957TIP3   OH242361   4.028   0.907  16.597 -0.0237 -0.9975  0.0604
 6957TIP3    H142362   4.033   0.999  16.573 -1.9528 -0.8088  0.2909
 6957TIP3    H242363   3.949   0.874  16.554 -0.9751 -1.8027  2.2657
 6958TIP3   OH242364   2.570   3.825   0.296 -0.1294  0.1178 -0.7791
 6958TIP3    H142365   2.603   3.909   0.265  4.5013 -0.7757  0.9660
 6958TIP3    H242366   2.610   3.760   0.238 -1.2321 -1.0361 -0.3017
 6959TIP3   OH242367   1.888   2.212  11.978  0.3239 -0.1841  0.8500
 6959TIP3    H142368   1.818   2.162  12.020  0.7606 -0.0735  1.7225
 6959TIP3    H242369   1.905   2.164  11.897 -1.1019  0.0781  0.3629
 6960TIP3   OH242370   3.801   1.808   2.404  0.4050  1.0001 -0.2448
 6960TIP3    H142371   3.809   1.883   2.463  0.3587 -0.5151  1.7796
 6960TIP3    H242372   3.832   1.733   2.455  0.5825 -0.3654 -2.2405
 6961TIP3   OH242373   5.332   5.896  16.661  1.4988 -0.1411  0.0154
 6961TIP3    H142374   5.418   5.911  16.623  0.9727  2.1283 -0.4213
 6961TIP3    H242375   5.271   5.927  16.594  0.5035  2.8385  2.0753
 6962TIP3   OH242376   6.736   2.103   3.721 -0.2831  0.6583 -0.4300
 6962TIP3    H142377   6.779   2.026   3.756  0.8150  1.1528 -0.6577
 6962TIP3    H242378   6.686   2.071   3.646  1.5366  0.4027 -1.5981
 6963TIP3   OH242379   5.300   1.060  14.585  0.0964 -0.0269 -0.3002
 6963TIP3    H142380   5.308   1.040  14.492 -1.4837  1.0834 -0.7107
 6963TIP3    H242381   5.206   1.059  14.602  0.2934  0.9674  0.9988
 6964TIP3   OH242382   3.954   0.107   1.734 -0.0719  0.1788 -0.1838
 6964TIP3    H142383   4.022   0.173   1.719 -0.8792  1.2987  0.9220
 6964TIP3    H242384   3.914   0.094   1.648  0.2921  0.9272 -0.4734
 6965TIP3   OH242385   2.659   1.006   0.441  0.7158  0.2626  0.1640
 6965TIP3    H142386   2.709   0.955   0.505  1.9778  2.5854  1.1258
 6965TIP3    H242387   2.684   1.096   0.456 -0.9371  1.1722 -1.9206
 6966TIP3   OH242388   0.728   6.245   1.483 -0.0478  0.2319  0.3974
 6966TIP3    H142389   0.751   6.155   1.460  0.3936  1.1122 -3.1153
 6966TIP3    H242390   0.801   6.276   1.535  0.8777 -0.7619 -0.2682
 6967TIP3   OH242391   3.972   5.033   4.931  0.6565 -0.1202  0.7479
 6967TIP3    H142392   3.909   4.967   4.902  1.0607 -0.5047  0.7319
 6967TIP3    H242393   4.055   4.985   4.938  0.9693  0.4059  0.6616
 6968TIP3   OH242394   3.483   3.233  16.976 -0.2511 -0.3404 -0.3438
 6968TIP3    H142395   3.442   3.184  16.905 -0.7127 -0.9297  0.3212
 6968TIP3    H242396   3.570   3.194  16.985 -0.3369 -0.5297 -0.3300
 6969TIP3   OH242397   6.590   3.084  16.066  0.6561 -0.5022  0.5686
 6969TIP3    H142398   6.649   3.115  15.997 -1.4936  0.9991 -0.7181
 6969TIP3    H242399   6.522   3.035  16.020 -1.2109  1.1111  1.4310
 6970TIP3   OH242400   5.789   2.151  11.422 -0.5198 -0.0839  0.4416
 6970TIP3    H142401   5.877   2.138  11.459  0.2361  3.3733  0.2258
 6970TIP3    H242402   5.734   2.089  11.469  1.7773 -1.4442  1.5546
 6971TIP3   OH242403   6.086   5.605   5.293 -0.8922 -0.5508  0.1851
 6971TIP3    H142404   6.172   5.638   5.319 -0.8164 -0.3158 -0.3476
 6971TIP3    H242405   6.063   5.542   5.362 -0.2234 -0.7389  0.2495
 6972TIP3   OH242406   4.096   2.559  17.119  0.3310 -0.3078  0.4822
 6972TIP3    H142407   4.149   2.480  17.129  1.3503  0.4544  1.2210
 6972TIP3    H242408   4.006   2.527  17.117  0.7435 -1.5031  0.5371
 6973TIP3   OH242409   5.808   5.014   4.232 -0.0444 -0.4571 -0.1234
 6973TIP3    H142410   5.897   4.981   4.246  0.1189  0.0866  0.1473
 6973TIP3    H242411   5.815   5.069   4.154  0.2197  0.9137  0.8437
 6974TIP3   OH242412   1.479   5.216   1.292  0.2110  0.0477  0.0745
 6974TIP3    H142413   1.430   5.168   1.359 -1.1310  0.5046 -0.5204
 6974TIP3    H242414   1.419   5.286   1.265  0.2644 -0.7177 -2.2974
 6975TIP3   OH242415   1.374   6.451   2.089  0.2193 -0.4176  0.1830
 6975TIP3    H142416   1.456   6.428   2.132 -0.1188  1.3605  1.9062
 6975TIP3    H242417   1.309   6.393   2.128  0.0706  0.5881  1.4818
 6976TIP3   OH242418   4.583   5.192   6.272  0.0388  0.2289  0.3746
 6976TIP3    H142419   4.633   5.231   6.200 -0.1230 -0.2906 -0.0340
 6976TIP3    H242420   4.641   5.198   6.348  0.9315 -0.7928 -0.1940
 6977TIP3   OH242421   1.442   0.440  11.361  0.1307  0.2224 -0.0115
 6977TIP3    H142422   1.403   0.364  11.318  1.0756 -0.0788 -0.3438
 6977TIP3    H242423   1.503   0.475  11.297 -0.8971  1.7796 -0.1863
 6978TIP3   OH242424   0.090   5.205  12.144  0.1891 -0.3058 -0.0410
 6978TIP3    H142425   0.105   5.292  12.181 -2.2858  0.9773 -1.8614
 6978TIP3    H242426   0.172   5.184  12.100  1.0468  0.7783  0.9541
 6979TIP3   OH242427   2.502   4.094   5.964  0.0993 -0.4581  0.4128
 6979TIP3    H142428   2.408   4.079   5.970  0.0446 -0.4866 -0.4486
 6979TIP3    H242429   2.514   4.136   5.879  0.7837  0.1969  0.8166
 6980TIP3   OH242430   2.732   5.324   1.002 -0.3367 -0.1745 -0.3381
 6980TIP3    H142431   2.747   5.419   0.997 -0.8719 -0.0020  0.7343
 6980TIP3    H242432   2.670   5.306   0.932 -1.6028  0.6146  0.5234
 6981TIP3   OH242433   4.879   0.615   4.912  0.2203  0.7114  0.0114
 6981TIP3    H142434   4.953   0.589   4.857 -0.7517 -1.7732 -0.2292
 6981TIP3    H242435   4.913   0.610   5.001  0.5860  0.4963 -0.1398
 6982TIP3   OH242436   6.204   4.197   3.181 -0.2301 -0.5876  0.0665
 6982TIP3    H142437   6.126   4.249   3.200 -0.4306 -0.6649 -0.5442
 6982TIP3    H242438   6.171   4.117   3.142  0.1956 -0.2879 -0.9383
 6983TIP3   OH242439   1.583   2.104   2.916  0.6494  0.6145 -0.0429
 6983TIP3    H142440   1.504   2.089   2.967  0.8596 -1.3029 -0.1995
 6983TIP3    H242441   1.552   2.112   2.826  0.5360  1.0062  0.0307
 6984TIP3   OH242442   4.170   0.866   4.294 -0.4102 -0.4344  1.0459
 6984TIP3    H142443   4.165   0.854   4.199 -2.9684  0.3106  0.9992
 6984TIP3    H242444   4.262   0.884   4.311 -0.1136  1.0372 -1.5200
 6985TIP3   OH242445   0.090   5.673   4.290 -0.8022 -0.1934  0.0529
 6985TIP3    H142446   0.136   5.756   4.282 -1.2368  0.0992  0.4814
 6985TIP3    H242447   0.121   5.636   4.372  0.2397 -1.0066 -0.6831
 6986TIP3   OH242448   0.429   1.290  15.880 -0.1434  0.1662 -0.9247
 6986TIP3    H142449   0.385   1.300  15.965 -0.5404  1.7667 -1.2807
 6986TIP3    H242450   0.394   1.208  15.845  0.1505 -0.6107  0.5123
 6987TIP3   OH242451   5.438   5.548   2.837 -0.0466 -0.1938 -0.3123
 6987TIP3    H142452   5.350   5.512   2.832 -0.7228  1.3375  0.1357
 6987TIP3    H242453   5.468   5.526   2.925  0.6596 -2.0488 -0.9613
 6988TIP3   OH242454   4.833   6.717   5.573  0.0315 -0.4989  0.1018
 6988TIP3    H142455   4.849   6.654   5.502 -0.8865  1.5465 -2.0718
 6988TIP3    H242456   4.755   6.684   5.617 -0.0129 -1.2462 -0.5129
 6989TIP3   OH242457   2.652   0.980   3.658  0.2731  0.4966 -0.5168
 6989TIP3    H142458   2.648   1.056   3.601  0.4213  0.7850 -0.1443
 6989TIP3    H242459   2.578   0.990   3.717  1.1766  1.1589  0.5304
 6990TIP3   OH242460   5.395   1.729   1.813  0.2249  0.0844  0.0960
 6990TIP3    H142461   5.379   1.759   1.903  0.9560  1.5940 -0.2508
 6990TIP3    H242462   5.470   1.780   1.783  0.5961 -1.0776 -1.0675
 6991TIP3   OH242463   0.676   0.224  12.356 -0.4969  0.2782  0.1268
 6991TIP3    H142464   0.590   0.226  12.398 -0.7303  0.0926 -0.3300
 6991TIP3    H242465   0.738   0.213  12.428 -1.0221 -2.3451  0.2896
 6992TIP3   OH242466   0.614   1.919  14.776 -0.1295  1.0366 -0.9016
 6992TIP3    H142467   0.528   1.957  14.795 -0.3275  1.1085 -1.8907
 6992TIP3    H242468   0.596   1.827  14.759  0.2144  0.6975  0.4670
 6993TIP3   OH242469   5.113   6.762   5.662  0.1405  0.1552  0.9444
 6993TIP3    H142470   5.020   6.746   5.645  0.1722  0.7855  0.1142
 6993TIP3    H242471   5.153   6.762   5.575  0.8562  0.2861  1.2700
 6994TIP3   OH242472   5.597   5.707   3.949  0.4556 -0.2343 -0.0364
 6994TIP3    H142473   5.683   5.675   3.974  1.2687  1.0940 -0.9918
 6994TIP3    H242474   5.576   5.661   3.868 -0.2362 -1.3391  0.7448
 6995TIP3   OH242475   0.218   1.488  12.128  0.0370 -0.0245  0.4651
 6995TIP3    H142476   0.262   1.556  12.077 -1.8534  0.5097 -0.5507
 6995TIP3    H242477   0.161   1.444  12.064  0.6674 -2.0993  1.2551
 6996TIP3   OH242478   1.099   4.742  14.720  0.3343 -0.4401  0.5122
 6996TIP3    H142479   1.124   4.824  14.677 -0.6937 -0.4057 -0.0558
 6996TIP3    H242480   1.025   4.767  14.776 -0.1531 -1.0259  0.1374
 6997TIP3   OH242481   5.162   3.573   0.244  0.4064 -0.0038  0.8721
 6997TIP3    H142482   5.097   3.641   0.232  0.6100 -0.1546 -1.5970
 6997TIP3    H242483   5.203   3.593   0.328  0.4324  2.8920  0.2751
 6998TIP3   OH242484   0.417   0.868   2.643  0.7374 -0.2535 -0.7992
 6998TIP3    H142485   0.390   0.934   2.579  1.6326 -0.1877 -1.1298
 6998TIP3    H242486   0.410   0.911   2.728  0.8350  0.1019 -0.9715
 6999TIP3   OH242487   1.134   5.186   5.682 -0.0708 -0.1423  0.4950
 6999TIP3    H142488   1.204   5.122   5.695 -0.5116 -0.7208  0.0838
 6999TIP3    H242489   1.174   5.255   5.629 -0.0403 -0.9047 -0.5183
 7000TIP3   OH242490   6.330   2.804  11.185 -0.2165 -0.1923 -0.4807
 7000TIP3    H142491   6.420   2.803  11.153 -0.2107  1.7580 -0.5997
 7000TIP3    H242492   6.330   2.867  11.257 -1.6077  0.3007 -0.8699
 7001TIP3   OH242493   1.177   4.463   6.390  0.1138 -0.1766 -0.2863
 7001TIP3    H142494   1.140   4.413   6.318 -0.2056  0.4859 -0.5920
 7001TIP3    H242495   1.105   4.517   6.422  0.2887 -0.3545  0.4411
 7002TIP3   OH242496   6.584   3.697   4.554  0.6289 -0.0781 -0.3312
 7002TIP3    H142497   6.635   3.634   4.502  0.4415 -1.3253  0.9442
 7002TIP3    H242498   6.493   3.667   4.545  0.4601  0.3986 -0.2345
 7003TIP3   OH242499   5.762   2.131  11.933 -0.0579  0.4823  0.2364
 7003TIP3    H142500   5.684   2.185  11.920 -1.1569 -0.8430  1.1382
 7003TIP3    H242501   5.833   2.195  11.946 -0.4999  1.7580 -2.7601
 7004TIP3   OH242502   3.723   0.852   2.457 -0.0320  0.0156  0.0096
 7004TIP3    H142503   3.727   0.881   2.548  0.4910  1.8149 -0.5505
 7004TIP3    H242504   3.811   0.818   2.440  0.3312  1.0598 -0.2428
 7005TIP3   OH242505   3.688   1.669   5.288 -0.1747 -0.2580  0.1712
 7005TIP3    H142506   3.706   1.579   5.316  0.1454 -0.1027  0.4749
 7005TIP3    H242507   3.670   1.661   5.194  0.1040 -0.6087  0.1422
 7006TIP3   OH242508   2.939   3.636   2.120 -0.1986 -0.0107  0.3483
 7006TIP3    H142509   2.917   3.544   2.112 -0.4810 -0.0133  1.1107
 7006TIP3    H242510   3.021   3.637   2.171  1.2403  0.0343 -1.8249
 7007TIP3   OH242511   0.321   6.573  15.430  0.4314 -0.0510 -0.1528
 7007TIP3    H142512   0.314   6.530  15.345 -1.1428  0.2642 -0.2054
 7007TIP3    H242513   0.317   6.501  15.493 -1.0975 -0.1078 -0.2778
 7008TIP3   OH242514   2.457   5.434  12.555  0.0098 -0.5344  0.1175
 7008TIP3    H142515   2.377   5.427  12.503  0.0812  0.9616 -0.2486
 7008TIP3    H242516   2.455   5.358  12.613 -2.2074 -0.0102  0.8197
 7009TIP3   OH242517   0.654   2.621  15.557 -0.1633  0.2484  0.1585
 7009TIP3    H142518   0.560   2.618  15.542 -0.2129 -1.6795  0.5043
 7009TIP3    H242519   0.690   2.559  15.493  0.7086 -0.0650  0.9189
 7010TIP3   OH242520   0.896   0.734  15.048  0.2823 -0.2434 -0.2394
 7010TIP3    H142521   0.910   0.639  15.056  0.8147 -0.1481  0.0043
 7010TIP3    H242522   0.801   0.744  15.049  0.1938 -0.5423  2.6236
 7011TIP3   OH242523   1.503   4.178   0.663  0.3770 -0.1989  0.0500
 7011TIP3    H142524   1.437   4.201   0.597 -0.2790 -1.2193  0.3331
 7011TIP3    H242525   1.471   4.096   0.702  2.4190 -1.4287 -0.6830
 7012TIP3   OH242526   1.167   3.230   3.287 -0.4217  0.1295  0.6713
 7012TIP3    H142527   1.228   3.296   3.320  0.6389  1.5643 -3.5082
 7012TIP3    H242528   1.216   3.148   3.292  0.5791  0.6934  0.5107
 7013TIP3   OH242529   6.426   6.204  12.289  0.7210  0.5847 -0.0932
 7013TIP3    H142530   6.419   6.162  12.203  1.9710 -2.1025  1.0098
 7013TIP3    H242531   6.365   6.278  12.284  0.0062 -0.0631 -2.9313
 7014TIP3   OH242532   2.731   6.804  12.529 -0.0928  0.4605 -0.3597
 7014TIP3    H142533   2.677   6.874  12.494 -0.6386  0.3529  0.2497
 7014TIP3    H242534   2.731   6.817  12.624  1.9613  1.1792 -0.4004
 7015TIP3   OH242535   2.903   2.562  16.357  0.4734  0.3651  0.4354
 7015TIP3    H142536   2.859   2.482  16.326 -0.2123  0.4267  1.2126
 7015TIP3    H242537   2.832   2.620  16.383  0.9634  0.0148  2.8619
 7016TIP3   OH242538   3.643   6.092  11.602 -0.3688  0.2098 -0.2207
 7016TIP3    H142539   3.689   6.046  11.532 -1.8497 -2.0291  0.1782
 7016TIP3    H242540   3.579   6.029  11.634 -0.3075  1.4389  2.6152
 7017TIP3   OH242541   6.635   1.658   4.520  0.6720 -0.2222 -0.2223
 7017TIP3    H142542   6.626   1.565   4.541 -0.1903 -0.1616 -0.2955
 7017TIP3    H242543   6.591   1.704   4.592  1.3562  0.1506 -0.0269
 7018TIP3   OH242544   0.598   1.832   2.519 -0.1907 -0.6650 -0.0455
 7018TIP3    H142545   0.625   1.924   2.523  1.5829 -1.1625  0.4818
 7018TIP3    H242546   0.674   1.786   2.484 -0.7239 -2.0383  0.5186
 7019TIP3   OH242547   3.683   6.633   0.387  0.3399 -0.1918  0.1623
 7019TIP3    H142548   3.736   6.712   0.398 -0.6398  0.4857  0.1275
 7019TIP3    H242549   3.682   6.593   0.474  1.4776 -0.5954  0.0074
 7020TIP3   OH242550   4.705   2.785  12.621  1.2357 -0.0286  0.2405
 7020TIP3    H142551   4.755   2.834  12.686 -0.7539  1.4903  0.7107
 7020TIP3    H242552   4.632   2.748  12.670  1.3916 -1.4847 -0.5825
 7021TIP3   OH242553   2.265   5.359  12.017  0.4120  0.4523 -0.4315
 7021TIP3    H142554   2.214   5.413  11.957 -0.3503  2.2559  1.6981
 7021TIP3    H242555   2.324   5.421  12.061 -0.8571 -0.2672  2.4662
 7022TIP3   OH242556   5.812   4.075   6.233 -1.2174  0.2432  0.3709
 7022TIP3    H142557   5.725   4.058   6.195 -0.1710  2.3082 -3.4857
 7022TIP3    H242558   5.802   4.158   6.280 -1.8375 -0.8507  2.2791
 7023TIP3   OH242559   3.680   6.386   3.342 -0.6150  0.7097 -0.2141
 7023TIP3    H142560   3.664   6.292   3.349 -1.4365  0.6827 -1.8409
 7023TIP3    H242561   3.609   6.427   3.391 -2.4443  0.4847 -2.4993
 7024TIP3   OH242562   3.573   5.682  16.769 -0.4395  0.1939 -1.1322
 7024TIP3    H142563   3.660   5.679  16.730  0.5027 -0.7940  0.9056
 7024TIP3    H242564   3.581   5.747  16.839 -0.9213 -0.8740 -0.0571
 7025TIP3   OH242565   3.477   3.210  14.945  0.1636 -0.2891  0.5410
 7025TIP3    H142566   3.537   3.248  14.881  0.9574  1.1601  2.0654
 7025TIP3    H242567   3.524   3.217  15.029 -0.7240 -2.3650  1.2629
 7026TIP3   OH242568   0.653   0.766  11.434  0.6169  0.8410 -0.1903
 7026TIP3    H142569   0.616   0.742  11.349  0.5463  0.9405 -0.1879
 7026TIP3    H242570   0.730   0.710  11.444 -0.6152 -0.8157  0.6767
 7027TIP3   OH242571   0.996   5.406  15.477 -0.6181 -0.3607 -0.6693
 7027TIP3    H142572   0.952   5.480  15.436 -1.9360 -0.7211  0.0504
 7027TIP3    H242573   0.940   5.331  15.459 -0.3292 -0.8304  0.2985
 7028TIP3   OH242574   1.670   3.510   3.265 -0.1400 -0.6100  0.1054
 7028TIP3    H142575   1.718   3.523   3.346  0.5047 -0.9923 -0.2066
 7028TIP3    H242576   1.732   3.467   3.206 -0.6802 -0.5890 -0.5012
 7029TIP3   OH242577   0.604   3.129   5.656  0.3156 -0.1810 -0.2662
 7029TIP3    H142578   0.682   3.156   5.608  0.3467 -1.1797 -0.8005
 7029TIP3    H242579   0.637   3.075   5.728  0.2495  1.0992  0.7631
 7030TIP3   OH242580   3.602   3.203   1.210  0.1124 -0.0530  0.1648
 7030TIP3    H142581   3.676   3.227   1.155  1.2005 -0.6058  1.3338
 7030TIP3    H242582   3.641   3.174   1.292 -1.4219  0.0397  0.9768
 7031TIP3   OH242583   4.479   1.046   5.363 -0.1245 -0.3137 -0.4928
 7031TIP3    H142584   4.439   0.963   5.335  1.3271 -1.4664  0.6620
 7031TIP3    H242585   4.413   1.086   5.419 -0.7568 -0.7905 -0.8721
 7032TIP3   OH242586   0.690   0.741   5.808  0.6294 -0.0300  0.0512
 7032TIP3    H142587   0.784   0.761   5.804  1.3938 -2.0885  3.1805
 7032TIP3    H242588   0.686   0.663   5.863 -3.0151  0.6315  0.9522
 7033TIP3   OH242589   5.533   2.354   0.409 -0.4114 -0.7394  0.2256
 7033TIP3    H142590   5.514   2.307   0.327  0.3253  1.1692 -1.1173
 7033TIP3    H242591   5.592   2.424   0.382 -1.0317  0.6066  2.2329
 7034TIP3   OH242592   5.502   4.638  14.264 -0.5114 -0.3355  0.0160
 7034TIP3    H142593   5.548   4.579  14.323 -0.1015  1.1034  1.1837
 7034TIP3    H242594   5.450   4.694  14.321  2.2001  3.1333 -0.5848
 7035TIP3   OH242595   2.963   6.006  11.001  0.1056 -0.4165  0.6014
 7035TIP3    H142596   3.039   6.018  10.943  2.0451 -2.5023  2.4937
 7035TIP3    H242597   2.908   5.943  10.954  0.9589 -1.0215  0.3679
 7036TIP3   OH242598   2.867   3.693   5.074  0.4628 -0.0367  0.4459
 7036TIP3    H142599   2.865   3.784   5.102  0.6048  0.3059 -0.6369
 7036TIP3    H242600   2.900   3.646   5.151 -0.7145  0.6521  1.4109
 7037TIP3   OH242601   4.653   3.778   4.184 -0.1536  0.4190  0.6223
 7037TIP3    H142602   4.587   3.710   4.193 -1.5238  1.4835 -0.8156
 7037TIP3    H242603   4.674   3.780   4.091 -0.6541  2.3648  0.5020
 7038TIP3   OH242604   0.580   4.023  13.367  0.2700  0.5485 -0.3233
 7038TIP3    H142605   0.570   4.115  13.392 -0.5496  0.6875 -1.1200
 7038TIP3    H242606   0.672   4.016  13.339  0.9852  0.5707  1.8540
 7039TIP3   OH242607   6.394   1.400   3.059  0.4425  0.3650 -0.1001
 7039TIP3    H142608   6.352   1.415   2.974 -1.4833  1.0252  0.9121
 7039TIP3    H242609   6.470   1.459   3.058 -0.1003  1.0865 -0.9957
 7040TIP3   OH242610   2.868   0.678  11.900  0.2926  0.0713 -0.4187
 7040TIP3    H142611   2.934   0.646  11.837  1.1844  1.0354 -0.0143
 7040TIP3    H242612   2.828   0.599  11.935  1.5724 -0.5627 -0.3345
 7041TIP3   OH242613   0.008   0.573  11.208 -0.1078  0.3621 -0.0174
 7041TIP3    H142614  -0.069   0.617  11.170 -1.2674 -1.3970  0.1559
 7041TIP3    H242615  -0.025   0.535  11.290  0.4900 -1.7300 -0.6876
 7042TIP3   OH242616   3.808   1.000  15.454  0.4125 -0.1528  0.0565
 7042TIP3    H142617   3.857   0.933  15.407  0.7941  0.5251 -0.5279
 7042TIP3    H242618   3.866   1.077  15.454  0.3545 -0.0815  1.4903
 7043TIP3   OH242619   3.192   2.394  11.885 -0.1656 -0.1694 -0.3856
 7043TIP3    H142620   3.145   2.418  11.805  0.0189 -0.1517 -0.4895
 7043TIP3    H242621   3.275   2.359  11.854  0.5017  1.1695 -0.1559
 7044TIP3   OH242622   3.981   2.239   0.292  0.3152 -0.2186  0.1286
 7044TIP3    H142623   3.959   2.259   0.383  4.7707  0.2338  1.3699
 7044TIP3    H242624   4.011   2.148   0.295 -0.7053 -0.6254 -1.2200
 7045TIP3   OH242625   4.756   4.065   0.346  0.5915  0.0915 -0.1199
 7045TIP3    H142626   4.672   4.109   0.357  1.5206  2.0428 -0.4735
 7045TIP3    H242627   4.811   4.129   0.300  1.7771 -1.7407 -1.3922
 7046TIP3   OH242628   4.806   0.034  16.462 -0.1019 -0.6456  0.1288
 7046TIP3    H142629   4.899   0.055  16.466 -0.7611  2.4517  1.5890
 7046TIP3    H242630   4.767   0.080  16.536 -2.9063 -1.3739 -0.7648
 7047TIP3   OH242631   5.269   0.565   1.776  0.0090 -0.3988 -0.2914
 7047TIP3    H142632   5.274   0.544   1.683 -0.6265 -0.9279 -0.2130
 7047TIP3    H242633   5.175   0.572   1.794  0.1511  0.9046  0.0490
 7048TIP3   OH242634   4.491   5.658  15.173  0.0024  0.6947 -0.3938
 7048TIP3    H142635   4.499   5.662  15.269 -0.0152  0.3055 -0.3740
 7048TIP3    H242636   4.426   5.589  15.158 -0.1950  0.9409 -0.6784
 7049TIP3   OH242637   2.384   1.418  14.190 -0.8920 -0.8947 -0.3704
 7049TIP3    H142638   2.427   1.337  14.162 -1.6236 -0.8738 -1.6141
 7049TIP3    H242639   2.312   1.431  14.128 -0.3403  1.1102 -0.6760
 7050TIP3   OH242640   5.098   3.913   0.921 -0.2365  0.3446  0.2901
 7050TIP3    H142641   5.151   3.870   0.988  0.9664  0.5968 -0.4716
 7050TIP3    H242642   5.110   4.006   0.938  2.6383  0.5324 -2.1026
 7051TIP3   OH242643   1.556   2.115  13.836  0.1571  0.0760 -0.4286
 7051TIP3    H142644   1.495   2.152  13.900 -0.8085 -2.1850  0.0338
 7051TIP3    H242645   1.642   2.149  13.863 -0.6259  1.8617 -0.0128
 7052TIP3   OH242646   2.594   0.174  13.117  0.2873 -0.6554 -0.2717
 7052TIP3    H142647   2.619   0.092  13.159  0.4328 -0.5606 -0.1722
 7052TIP3    H242648   2.506   0.158  13.084  0.3296 -0.8659 -0.2885
 7053TIP3   OH242649   0.465   4.673   5.315 -0.2272  0.4902  0.5189
 7053TIP3    H142650   0.434   4.659   5.404 -2.5699  0.6754 -0.2171
 7053TIP3    H242651   0.405   4.623   5.260  2.0928 -0.9158 -0.8989
 7054TIP3   OH242652   2.643   1.080  16.242  0.2350 -0.3589 -0.1655
 7054TIP3    H142653   2.735   1.100  16.227 -0.1049  1.3977 -0.1257
 7054TIP3    H242654   2.615   1.032  16.164  0.7951  0.5210 -0.9275
 7055TIP3   OH242655   1.133   3.482   1.495 -0.7865 -0.8518  0.6315
 7055TIP3    H142656   1.171   3.449   1.577 -0.1319 -0.3362  0.5395
 7055TIP3    H242657   1.040   3.460   1.502 -0.8821 -0.1847  1.8439
 7056TIP3   OH242658   2.822   2.794  11.384 -0.4783  0.3097  0.4208
 7056TIP3    H142659   2.772   2.836  11.314 -0.9829 -0.1728  0.4886
 7056TIP3    H242660   2.771   2.717  11.407  0.8127 -0.8039 -0.2553
 7057TIP3   OH242661   5.645   3.472   0.754  0.3011  0.3016 -0.2943
 7057TIP3    H142662   5.620   3.508   0.839  0.6265 -0.7155  0.2597
 7057TIP3    H242663   5.573   3.496   0.695  1.2070  3.1283 -0.3588
 7058TIP3   OH242664   3.621   5.045  15.626 -0.3750 -0.3475  0.1464
 7058TIP3    H142665   3.649   4.987  15.556  0.4151 -1.5100  1.3634
 7058TIP3    H242666   3.671   5.016  15.703  0.6939  2.4658  0.6445
 7059TIP3   OH242667   5.041   2.360   0.686 -0.4616 -0.2000  0.6578
 7059TIP3    H142668   5.050   2.443   0.734 -1.1105 -0.1971  0.7969
 7059TIP3    H242669   5.117   2.356   0.629  0.0155  0.0925  1.2570
 7060TIP3   OH242670   3.261   3.675  15.151 -0.1708  0.3904  0.3016
 7060TIP3    H142671   3.330   3.658  15.086  1.2218  3.0276  0.9361
 7060TIP3    H242672   3.250   3.770  15.151 -2.5257  0.2061  1.5845
 7061TIP3   OH242673   4.195   1.602  13.792 -0.4694  0.2230 -0.1316
 7061TIP3    H142674   4.244   1.526  13.823 -0.3445 -0.4082 -1.7842
 7061TIP3    H242675   4.161   1.643  13.872  1.4404 -0.1918  0.9608
 7062TIP3   OH242676   0.094   6.690   3.731 -0.0041 -0.6011  0.3560
 7062TIP3    H142677   0.021   6.679   3.670  0.4736  0.0727 -0.3457
 7062TIP3    H242678   0.080   6.777   3.770  0.4287 -0.4645  0.2097
 7063TIP3   OH242679   2.417   1.959  13.429 -0.2741  0.1709 -0.9085
 7063TIP3    H142680   2.340   1.905  13.448 -0.4855  0.6019 -0.4991
 7063TIP3    H242681   2.428   2.013  13.507  0.2459  0.3505 -1.0993
 7064TIP3   OH242682   3.110   1.709  13.883  0.1934  0.1292 -0.5745
 7064TIP3    H142683   3.188   1.734  13.834  0.7692  0.6774  0.5837
 7064TIP3    H242684   3.089   1.621  13.852  1.0740  0.1078 -1.1317
 7065TIP3   OH242685   3.427   0.183   1.553 -0.5562 -0.4594  1.0280
 7065TIP3    H142686   3.495   0.250   1.557 -1.0977  0.0742  1.5664
 7065TIP3    H242687   3.376   0.206   1.475 -0.1164 -0.8773  0.6068
 7066TIP3   OH242688   5.174   0.648   0.764 -0.2267 -0.5396 -0.3128
 7066TIP3    H142689   5.155   0.612   0.851 -1.1300  1.2464  0.2651
 7066TIP3    H242690   5.139   0.583   0.703 -0.5701 -1.2877  0.6548
 7067TIP3   OH242691   3.001   3.293   3.628  0.3700 -0.7112  0.1589
 7067TIP3    H142692   2.969   3.209   3.661 -2.0904  0.5445  1.2051
 7067TIP3    H242693   2.994   3.353   3.703 -0.5300  1.0491 -1.2662
 7068TIP3   OH242694   5.524   2.825   4.499 -0.2425 -0.1615  0.9347
 7068TIP3    H142695   5.613   2.799   4.526  0.4832  1.4456  0.2255
 7068TIP3    H242696   5.537   2.878   4.421 -2.0311 -1.6517 -0.4746
 7069TIP3   OH242697   4.354   0.102   3.457 -0.1316 -0.1902  0.6003
 7069TIP3    H142698   4.319   0.037   3.519  0.1207 -0.5089  0.4104
 7069TIP3    H242699   4.396   0.050   3.389 -0.9422  0.1439 -0.1723
 7070TIP3   OH242700   3.005   1.522   4.173 -0.0529 -0.4980 -0.4009
 7070TIP3    H142701   2.990   1.608   4.135 -2.2095 -0.6287  0.0012
 7070TIP3    H242702   2.917   1.490   4.196  0.9374 -1.1702  3.0739
 7071TIP3   OH242703   2.377   1.457   0.803  0.5375 -0.7211 -0.3504
 7071TIP3    H142704   2.316   1.388   0.830 -2.9407  2.4330  0.8588
 7071TIP3    H242705   2.413   1.491   0.885  1.2581 -0.3170 -0.8223
 7072TIP3   OH242706   6.780   4.663   4.528 -0.0507  0.2804  0.4131
 7072TIP3    H142707   6.691   4.660   4.492 -0.1199 -1.3410  0.6198
 7072TIP3    H242708   6.832   4.612   4.465  0.2598 -0.7429  1.4722
 7073TIP3   OH242709   1.242   3.172  16.370  0.4661 -0.5289 -0.0682
 7073TIP3    H142710   1.176   3.164  16.301 -1.3695  1.0062  1.4289
 7073TIP3    H242711   1.303   3.239  16.336 -1.6135  1.8305  0.5904
 7074TIP3   OH242712   6.369   4.796  13.780  0.0091 -0.5090 -0.3251
 7074TIP3    H142713   6.412   4.711  13.788  0.7329  0.0016  1.6997
 7074TIP3    H242714   6.313   4.802  13.857  0.2476  1.0034 -0.2424
 7075TIP3   OH242715   4.048   6.054   0.699  0.0132  0.3410 -0.1552
 7075TIP3    H142716   4.065   6.126   0.639 -2.4018  1.9675  0.9466
 7075TIP3    H242717   4.101   6.072   0.776  0.8010 -0.0953 -0.5839
 7076TIP3   OH242718   3.404   4.899   1.258  0.4022  0.6522 -0.5490
 7076TIP3    H142719   3.420   4.940   1.343  0.0247  2.4092 -1.2677
 7076TIP3    H242720   3.464   4.944   1.198  1.2153 -1.0891 -1.0974
 7077TIP3   OH242721   4.698   4.296  14.806  0.2958 -0.4942 -0.2230
 7077TIP3    H142722   4.677   4.347  14.727 -0.8002  0.1573  0.4618
 7077TIP3    H242723   4.651   4.214  14.795 -3.0928  1.0400  1.4044
 7078TIP3   OH242724   5.598   6.657  11.445 -0.2515  0.0646 -0.1078
 7078TIP3    H142725   5.632   6.741  11.475  3.2995 -1.5892  1.0054
 7078TIP3    H242726   5.550   6.678  11.365 -1.4188  3.3436  1.2418
 7079TIP3   OH242727   4.511   0.785   1.156  0.3800  0.0640  0.3628
 7079TIP3    H142728   4.463   0.836   1.221  1.3481  1.3997  0.0487
 7079TIP3    H242729   4.457   0.706   1.145 -0.6741  0.5756  1.5182
 7080TIP3   OH242730   2.623   1.538  16.182  0.1982 -0.2572  0.1273
 7080TIP3    H142731   2.692   1.515  16.120 -0.4339 -3.2860  0.3994
 7080TIP3    H242732   2.669   1.582  16.254  1.4316  0.0671 -0.8243
 7081TIP3   OH242733   1.199   6.081   4.297 -0.2669  0.8936  0.5747
 7081TIP3    H142734   1.257   6.104   4.369  0.3124  1.7727 -0.1517
 7081TIP3    H242735   1.134   6.151   4.295  0.1039  1.2362 -0.1447
 7082TIP3   OH242736   5.839   1.978  12.576 -0.4436 -0.1505 -0.2228
 7082TIP3    H142737   5.748   2.000  12.596 -0.8066  2.0797 -3.5920
 7082TIP3    H242738   5.837   1.948  12.485  2.3191  1.4396 -0.9197
 7083TIP3   OH242739   2.706   1.698   4.563  0.6406 -0.2056 -0.7902
 7083TIP3    H142740   2.720   1.790   4.583 -0.0526 -0.0824 -0.8169
 7083TIP3    H242741   2.762   1.650   4.624  0.1665  0.2111 -0.0123
 7084TIP3   OH242742   5.392   5.983   5.172  0.0128  0.3289  0.0174
 7084TIP3    H142743   5.439   5.998   5.254  0.1394  0.2511 -0.0406
 7084TIP3    H242744   5.394   6.068   5.127  2.1219 -0.2000 -1.0380
 7085TIP3   OH242745   4.053   3.765  12.239 -0.0096 -0.0929  0.2690
 7085TIP3    H142746   4.135   3.806  12.266 -1.3364  2.2956  0.8742
 7085TIP3    H242747   4.056   3.768  12.143 -0.0704  1.4534  0.3019
 7086TIP3   OH242748   4.866   2.069  11.341 -0.3514 -0.3360 -0.2458
 7086TIP3    H142749   4.829   2.072  11.430  0.5304 -1.1325  0.1692
 7086TIP3    H242750   4.961   2.074  11.355 -0.2495  1.1655 -1.2569
 7087TIP3   OH242751   5.574   5.857  11.847 -0.1388  0.1266  0.2181
 7087TIP3    H142752   5.635   5.930  11.839  0.4655 -0.0931  2.1623
 7087TIP3    H242753   5.537   5.847  11.760  0.8862  1.7630 -0.4647
 7088TIP3   OH242754   0.058   5.231   1.954 -0.2407  0.4890  0.0703
 7088TIP3    H142755   0.016   5.299   2.007 -2.4706 -1.4932  1.0411
 7088TIP3    H242756   0.008   5.231   1.872 -0.9256 -0.5748  0.4639
 7089TIP3   OH242757   1.644   5.002  13.118 -0.2122  1.1218 -0.3587
 7089TIP3    H142758   1.736   5.001  13.143 -0.2936 -0.0238 -0.0587
 7089TIP3    H242759   1.620   5.095  13.119  1.2135  1.5383 -1.5602
 7090TIP3   OH242760   3.880   3.890   5.820  0.0939 -0.3932  0.3053
 7090TIP3    H142761   3.866   3.966   5.876 -1.3885 -1.8729  2.0959
 7090TIP3    H242762   3.920   3.825   5.878 -0.7568 -1.7083 -0.5355
 7091TIP3   OH242763   3.363   4.671  12.191 -0.1952  0.7146  0.3611
 7091TIP3    H142764   3.344   4.608  12.260 -1.4080  0.0668 -0.5261
 7091TIP3    H242765   3.289   4.733  12.194 -0.6961  0.2063 -0.8576
 7092TIP3   OH242766   3.289   0.019  13.505 -0.1902  0.5608 -0.3007
 7092TIP3    H142767   3.236   0.054  13.433  0.6813  0.6007 -0.9383
 7092TIP3    H242768   3.349  -0.042  13.463 -1.4709 -1.5282  0.7576
 7093TIP3   OH242769   3.821   6.240  13.128  0.0392  1.0329 -0.2997
 7093TIP3    H142770   3.912   6.229  13.156 -0.0877 -1.5606 -0.6331
 7093TIP3    H242771   3.771   6.242  13.210  0.2259  0.0122 -0.1412
 7094TIP3   OH242772   1.647   2.775  14.202 -0.7487  0.1485  0.2192
 7094TIP3    H142773   1.617   2.856  14.159 -1.0730 -0.7511 -1.3277
 7094TIP3    H242774   1.742   2.785  14.208 -0.6890  0.3239 -0.7314
 7095TIP3   OH242775   6.047   3.034  13.771 -0.0969  0.2569 -0.1935
 7095TIP3    H142776   6.114   2.965  13.770 -1.2294 -0.9205 -2.1977
 7095TIP3    H242777   6.092   3.110  13.734  0.6004 -0.0058  0.0791
 7096TIP3   OH242778   3.408   4.299  11.643  0.4334 -0.1535 -0.2528
 7096TIP3    H142779   3.448   4.213  11.643  1.7664  0.4492 -0.2345
 7096TIP3    H242780   3.476   4.358  11.675 -0.2264  1.0112 -0.9038
 7097TIP3   OH242781   5.209   1.385   1.008  0.5949 -0.2714  0.1686
 7097TIP3    H142782   5.228   1.315   0.945  0.6314 -0.1018 -0.0108
 7097TIP3    H242783   5.238   1.465   0.964  1.0615 -0.2045  0.6029
 7098TIP3   OH242784   6.383   1.014  14.011  0.0842 -0.9314  0.2294
 7098TIP3    H142785   6.331   1.090  13.985 -2.4060 -0.8286  4.5650
 7098TIP3    H242786   6.331   0.938  13.984 -0.2667 -0.9153  0.8343
 7099TIP3   OH242787   5.930   5.444   5.473  0.1126 -0.3354  0.1134
 7099TIP3    H142788   5.927   5.448   5.568 -0.8775  0.6399  0.0585
 7099TIP3    H242789   5.969   5.358   5.454 -0.1675 -0.7631  1.3791
 7100TIP3   OH242790   3.397   4.926  15.172 -0.2764  0.4900  0.2742
 7100TIP3    H142791   3.332   4.960  15.110 -1.5966  1.5058  2.1291
 7100TIP3    H242792   3.363   4.840  15.196 -1.5508  1.4120  1.9823
 7101TIP3   OH242793   0.056   4.498  12.713  0.4650  0.1980 -0.6084
 7101TIP3    H142794  -0.009   4.543  12.767  0.3645  0.1439 -0.6852
 7101TIP3    H242795   0.006   4.462  12.640  0.5349 -0.1047 -0.5063
 7102TIP3   OH242796   2.749   0.790  10.768  0.2798 -0.3071 -0.4991
 7102TIP3    H142797   2.654   0.791  10.756  0.4218  0.3980 -1.7419
 7102TIP3    H242798   2.772   0.697  10.763 -0.4580 -0.6105  1.0704
 7103TIP3   OH242799   2.609   0.803   4.862  0.5926  0.3235  0.0010
 7103TIP3    H142800   2.597   0.745   4.937  3.0385  1.3598  1.3217
 7103TIP3    H242801   2.543   0.871   4.874  0.4851  0.0848  0.8333
 7104TIP3   OH242802   3.718   3.856   4.040  0.3035 -0.8651 -0.4878
 7104TIP3    H142803   3.712   3.767   4.005 -1.2478 -0.4619 -1.3377
 7104TIP3    H242804   3.633   3.872   4.081  1.5170 -0.7479  2.1888
 7105TIP3   OH242805   1.705   5.157  15.614 -0.0548 -0.3036  1.2527
 7105TIP3    H142806   1.705   5.089  15.682 -0.1423  0.7738  2.3650
 7105TIP3    H242807   1.613   5.165  15.588 -0.0967 -0.3589  1.3828
 7106TIP3   OH242808   3.837   4.457  14.961 -0.1921 -0.1515  0.0438
 7106TIP3    H142809   3.768   4.523  14.946  0.5682  0.9192  1.0418
 7106TIP3    H242810   3.880   4.486  15.042 -0.8801 -2.8186  1.4963
 7107TIP3   OH242811   1.339   3.646   2.096  0.5368 -0.0692 -0.4542
 7107TIP3    H142812   1.328   3.678   2.006 -0.3357 -0.8569 -0.6406
 7107TIP3    H242813   1.272   3.691   2.146  0.1620 -0.6136 -0.4623
 7108TIP3   OH242814   1.167   1.565   0.284  0.8430  0.1413  0.8043
 7108TIP3    H142815   1.135   1.494   0.340 -0.8708 -0.7001 -1.1010
 7108TIP3    H242816   1.213   1.519   0.213  1.7587  1.0987  0.7586
 7109TIP3   OH242817   0.494   5.305   4.905  0.1865 -0.7129 -0.3363
 7109TIP3    H142818   0.500   5.393   4.943 -0.4657 -0.4366 -0.8566
 7109TIP3    H242819   0.470   5.249   4.979 -0.5345 -0.2672 -0.2281
 7110TIP3   OH242820   0.232   2.419   1.779 -0.0651 -0.5072 -0.3401
 7110TIP3    H142821   0.301   2.485   1.769 -0.6560  0.0106 -1.1209
 7110TIP3    H242822   0.258   2.369   1.856  1.2538 -0.4023 -0.6871
 7111TIP3   OH242823   6.518   2.848   4.185 -0.0128  0.0099 -0.1626
 7111TIP3    H142824   6.439   2.840   4.240 -0.5360 -0.6238 -0.9814
 7111TIP3    H242825   6.505   2.784   4.115  1.2272 -0.0804 -0.3291
 7112TIP3   OH242826   1.220   4.572  10.570  0.0965  0.7551  0.7114
 7112TIP3    H142827   1.253   4.505  10.511 -0.0694  0.3888  1.0356
 7112TIP3    H242828   1.203   4.648  10.513  1.9721  1.1354  0.6136
 7113TIP3   OH242829   2.796   3.981  12.980  0.1712  0.3054 -0.0896
 7113TIP3    H142830   2.718   4.013  12.934  0.8922  0.4126 -1.2844
 7113TIP3    H242831   2.802   4.036  13.058 -1.3848 -0.2365  0.4486
 7114TIP3   OH242832   1.678   5.381   0.887 -0.6103  0.3891  0.0604
 7114TIP3    H142833   1.662   5.309   0.948  0.0144 -0.7757 -1.1014
 7114TIP3    H242834   1.716   5.450   0.941 -1.3068 -0.1105  1.2165
 7115TIP3   OH242835   2.882   5.924   3.080 -0.6615  0.8074  0.3154
 7115TIP3    H142836   2.941   5.850   3.075  1.2211  2.3004 -1.0994
 7115TIP3    H242837   2.923   5.985   3.142 -0.6483  1.8774 -0.7025
 7116TIP3   OH242838   5.707   6.449   3.877 -0.5738 -0.0538  0.2190
 7116TIP3    H142839   5.728   6.356   3.866 -1.3439 -0.1331 -0.7764
 7116TIP3    H242840   5.659   6.453   3.960 -1.6027 -0.7546 -0.3062
 7117TIP3   OH242841   4.884   1.338   0.635 -0.0959 -0.8097 -0.1517
 7117TIP3    H142842   4.795   1.373   0.637  0.4633  0.6917  2.0642
 7117TIP3    H242843   4.929   1.392   0.570  0.1589  1.2465  1.5988
 7118TIP3   OH242844   2.583   4.125  12.182  0.0650 -0.1754  0.2757
 7118TIP3    H142845   2.514   4.111  12.247 -0.7749  0.4117 -0.4772
 7118TIP3    H242846   2.558   4.205  12.136  0.7439 -0.4788 -0.6589
 7119TIP3   OH242847   5.837   5.830  11.609 -0.4647  0.2110  0.6019
 7119TIP3    H142848   5.743   5.826  11.596 -0.6090 -0.7067  1.7434
 7119TIP3    H242849   5.867   5.900  11.551 -1.6886 -0.2357 -0.6185
 7120TIP3   OH242850   4.919   1.438   3.408 -0.0928 -0.0223 -0.1378
 7120TIP3    H142851   4.830   1.467   3.427  0.3310  0.4016  1.3708
 7120TIP3    H242852   4.933   1.460   3.316 -1.3753  0.3237 -0.2680
 7121TIP3   OH242853   1.566   2.867   5.544  0.3841 -0.4701  0.0579
 7121TIP3    H142854   1.518   2.839   5.623  1.0133  1.8414  1.3552
 7121TIP3    H242855   1.657   2.873   5.572  0.5827  0.6533 -0.7651
 7122TIP3   OH242856   6.735   2.932  11.621  0.2048 -0.2938  0.6923
 7122TIP3    H142857   6.732   3.026  11.603 -0.1641 -0.3657  0.3572
 7122TIP3    H242858   6.776   2.894  11.544 -1.6208 -0.6305 -0.1804
 7123TIP3   OH242859   4.168   4.823   1.908 -0.5158  0.1255  0.3818
 7123TIP3    H142860   4.206   4.882   1.844 -0.5027  1.5057  1.6174
 7123TIP3    H242861   4.231   4.820   1.979 -0.0295 -2.2263 -0.0659
 7124TIP3   OH242862   3.671   3.293   4.688 -0.3448 -0.4488 -0.4299
 7124TIP3    H142863   3.591   3.262   4.646 -1.3005  1.5036 -0.1907
 7124TIP3    H242864   3.654   3.284   4.782 -0.2268 -0.1880 -0.3819
 7125TIP3   OH242865   6.395   4.661   3.480  0.2194 -0.4018 -0.6388
 7125TIP3    H142866   6.333   4.653   3.408 -0.3945 -0.6162 -0.0928
 7125TIP3    H242867   6.343   4.644   3.558  0.5954  1.0905 -0.0387
 7126TIP3   OH242868   5.280   4.695   2.415  0.4631 -0.2250 -0.7115
 7126TIP3    H142869   5.359   4.699   2.360 -0.0002 -1.6792 -1.5485
 7126TIP3    H242870   5.233   4.618   2.383 -0.2563 -0.6290  1.1837
 7127TIP3   OH242871   4.671   4.029   2.175  0.0118  0.4637 -0.2099
 7127TIP3    H142872   4.739   3.964   2.193  1.7604  1.8986 -1.3392
 7127TIP3    H242873   4.605   4.013   2.243  1.8480 -0.4399  1.4936
 7128TIP3   OH242874   5.639   2.184   5.894 -0.3615  0.5021  0.4720
 7128TIP3    H142875   5.622   2.156   5.805 -0.1233  2.0368 -0.0828
 7128TIP3    H242876   5.731   2.210   5.894 -0.5544  1.2094  0.9628
 7129TIP3   OH242877   4.612   0.305   4.511  0.1601  0.1611  0.0247
 7129TIP3    H142878   4.658   0.221   4.511  0.1628  0.1398  1.2981
 7129TIP3    H242879   4.530   0.287   4.465  0.1097 -0.5839  0.3767
 7130TIP3   OH242880   4.197   3.875   2.779 -0.0797  0.1884 -0.5798
 7130TIP3    H142881   4.247   3.800   2.812 -1.1193  0.0191  0.6750
 7130TIP3    H242882   4.219   3.947   2.838  0.2011  0.6557 -1.2290
 7131TIP3   OH242883   6.391   1.890  12.228 -0.1845  0.1253  1.2781
 7131TIP3    H142884   6.318   1.838  12.192  1.2794  0.2689 -2.2792
 7131TIP3    H242885   6.462   1.827  12.237  0.5300  0.7877  0.4246
 7132TIP3   OH242886   4.234   5.824  11.226 -0.1739 -0.2806  0.2404
 7132TIP3    H142887   4.268   5.820  11.137  1.4643  1.2674  0.7322
 7132TIP3    H242888   4.256   5.738  11.264 -0.7069 -0.8749 -0.7520
 7133TIP3   OH242889   6.165   5.470   2.596 -0.1310 -0.7125 -0.3930
 7133TIP3    H142890   6.215   5.392   2.618  0.0659 -0.2963  0.7055
 7133TIP3    H242891   6.189   5.534   2.662 -0.2887  0.2917 -1.2708
 7134TIP3   OH242892   3.611   6.706  12.430 -0.2709 -0.2988 -0.2448
 7134TIP3    H142893   3.599   6.771  12.499 -1.0359  0.5650 -1.1651
 7134TIP3    H242894   3.613   6.622  12.476  0.8654  0.3695  0.9714
 7135TIP3   OH242895   6.652   1.022   2.792 -0.5687  0.1607  0.7122
 7135TIP3    H142896   6.730   1.072   2.769  0.3184 -0.8084  1.5303
 7135TIP3    H242897   6.580   1.084   2.784  0.2090  0.9463 -0.5392
 7136TIP3   OH242898   1.647   0.122   3.940  0.2457 -0.7517 -0.4278
 7136TIP3    H142899   1.714   0.125   3.871 -0.0716  1.6805 -0.7074
 7136TIP3    H242900   1.645   0.211   3.975  0.0332 -1.7854  2.4129
 7137TIP3   OH242901   3.904   3.520   0.267  0.6739 -0.0973 -0.2450
 7137TIP3    H142902   3.823   3.487   0.229  0.3805  0.4182 -0.0860
 7137TIP3    H242903   3.898   3.501   0.360  1.2904 -1.1546 -0.4091
 7138TIP3   OH242904   1.546   3.535   1.411  0.2382  0.1045 -0.2618
 7138TIP3    H142905   1.598   3.510   1.488 -0.5339  1.3300  0.6915
 7138TIP3    H242906   1.498   3.455   1.388  0.2554 -0.2011  0.7159
 7139TIP3   OH242907   4.301   0.746   1.904  0.1411 -0.8707  0.5082
 7139TIP3    H142908   4.230   0.799   1.869  0.4569  0.3914  1.6445
 7139TIP3    H242909   4.376   0.764   1.847 -0.2859 -1.7264 -0.3295
 7140TIP3   OH242910   3.804   3.794   5.222 -0.0356 -0.2806  0.1748
 7140TIP3    H142911   3.708   3.803   5.217 -0.2167 -2.0095  0.0909
 7140TIP3    H242912   3.836   3.858   5.159 -1.2611 -1.3973 -1.6873
 7141TIP3   OH242913   5.462   2.043  11.909 -0.7435 -0.1083 -0.3522
 7141TIP3    H142914   5.392   1.979  11.895 -2.2243  1.2971  0.3809
 7141TIP3    H242915   5.464   2.056  12.003  0.2933  0.1401 -0.3980
 7142TIP3   OH242916   0.011   0.397   5.179  0.2144 -0.8426 -0.3592
 7142TIP3    H142917   0.084   0.451   5.149 -1.1292  2.1693  1.4487
 7142TIP3    H242918   0.011   0.406   5.274 -2.7189 -0.3707 -0.3143
 7143TIP3   OH242919   0.745   6.381  12.012 -0.1146 -0.2908  0.1108
 7143TIP3    H142920   0.785   6.445  12.071  1.0829  2.7511 -3.5841
 7143TIP3    H242921   0.810   6.310  12.007  0.7501  0.4175  0.8333
 7144TIP3   OH242922   6.302   6.339  10.199 -0.6541 -0.0272  0.3166
 7144TIP3    H142923   6.393   6.365  10.194 -0.9851  1.1278 -0.0477
 7144TIP3    H242924   6.302   6.245  10.181  0.5252 -0.1799  1.0405
 7145TIP3   OH242925   4.661   5.569   3.843  0.1962  0.1704 -0.3176
 7145TIP3    H142926   4.670   5.589   3.750  0.1261 -1.7818 -0.7784
 7145TIP3    H242927   4.659   5.474   3.848 -0.0347  0.2235  1.6743
 7146TIP3   OH242928   4.102   2.341  15.221 -0.2843 -0.1466 -0.8067
 7146TIP3    H142929   4.187   2.367  15.184 -1.5332  1.8786 -2.4523
 7146TIP3    H242930   4.081   2.260  15.175  0.2845 -0.0973 -1.1710
 7147TIP3   OH242931   0.480   0.227   2.244  0.4421 -0.1366 -0.5621
 7147TIP3    H142932   0.534   0.149   2.239 -0.1490 -0.7073  1.1809
 7147TIP3    H242933   0.513   0.274   2.321 -0.6941  0.1418 -0.2255
 7148TIP3   OH242934   5.578   4.160  11.001  0.2425 -0.7573 -0.2695
 7148TIP3    H142935   5.614   4.182  10.915 -0.6614 -0.7934 -0.6586
 7148TIP3    H242936   5.508   4.224  11.015  0.8707 -0.2577  0.7829
 7149TIP3   OH242937   2.257   6.017  12.091 -0.4665 -0.0065 -0.1924
 7149TIP3    H142938   2.254   6.034  11.997  2.5852  1.2886 -0.1443
 7149TIP3    H242939   2.307   5.936  12.100  0.7279  0.7786  0.3679
 7150TIP3   OH242940   2.605   2.179   1.677 -0.6146 -0.2512  0.4467
 7150TIP3    H142941   2.610   2.196   1.583 -0.0987 -0.2345  0.4726
 7150TIP3    H242942   2.687   2.134   1.698 -0.2801  0.6064  1.0553
 7151TIP3   OH242943   6.579   1.518  16.701  0.3300 -0.1699 -0.7747
 7151TIP3    H142944   6.593   1.611  16.685  0.7260  0.0557  0.7569
 7151TIP3    H242945   6.667   1.480  16.701  0.4759 -0.0010  1.5278
 7152TIP3   OH242946   5.028   3.795  14.900  0.3776 -0.0338 -0.1667
 7152TIP3    H142947   5.091   3.787  14.972 -0.9907 -0.0489  1.0628
 7152TIP3    H242948   5.022   3.707  14.863  0.8251 -0.0964 -0.0960
 7153TIP3   OH242949   4.637   1.897  10.477 -0.2718  0.4195 -0.0704
 7153TIP3    H142950   4.695   1.930  10.545  0.2100 -2.1847  0.8976
 7153TIP3    H242951   4.693   1.847  10.418 -1.1099  0.2536 -0.7606
 7154TIP3   OH242952   2.436   2.490  15.534 -0.3303  0.5144  0.1894
 7154TIP3    H142953   2.425   2.462  15.443 -1.0983  1.5904 -0.0756
 7154TIP3    H242954   2.437   2.585  15.529  0.9854  0.5816  1.1802
 7155TIP3   OH242955   5.119   2.984   2.518 -0.0280  0.1529 -0.1755
 7155TIP3    H142956   5.157   3.065   2.484 -1.2422  0.8113 -0.0265
 7155TIP3    H242957   5.049   2.962   2.457 -1.1504  0.4428  0.9585
 7156TIP3   OH242958   0.205   2.974  15.023 -0.0796  0.2159 -0.3484
 7156TIP3    H142959   0.287   3.021  15.005 -0.1770  1.0298  1.1646
 7156TIP3    H242960   0.228   2.882  15.016  1.1368  0.4185  0.6366
 7157TIP3   OH242961   1.232   3.962   4.652 -0.0198 -0.2838  0.4875
 7157TIP3    H142962   1.171   4.014   4.704  0.2644  0.8297 -0.2510
 7157TIP3    H242963   1.318   3.980   4.691 -0.1760 -2.2113  1.8196
 7158TIP3   OH242964   2.030   2.147  16.478  0.1192 -0.3963  0.0750
 7158TIP3    H142965   2.063   2.229  16.441  0.4537 -0.0782  1.0491
 7158TIP3    H242966   1.965   2.117  16.415  1.2833 -0.3263 -1.2003
 7159TIP3   OH242967   2.581   5.035   5.085  0.6856  0.5683 -0.2391
 7159TIP3    H142968   2.652   4.971   5.091  0.0229 -0.5360 -2.7695
 7159TIP3    H242969   2.508   4.993   5.130  0.7436  0.3092 -0.3827
 7160TIP3   OH242970   5.272   5.183  10.693 -0.4029 -0.0195 -0.8160
 7160TIP3    H142971   5.181   5.206  10.713 -0.0553  0.0524  0.7552
 7160TIP3    H242972   5.293   5.237  10.617 -1.1437  1.2722 -0.1450
 7161TIP3   OH242973   4.654   5.743  14.973 -0.2067 -0.0469 -0.2516
 7161TIP3    H142974   4.661   5.671  14.910  1.1804  0.5257 -0.7874
 7161TIP3    H242975   4.607   5.705  15.047 -1.6411 -0.8064 -1.4992
 7162TIP3   OH242976   3.033   6.738  16.957  0.1967  0.0863  0.2806
 7162TIP3    H142977   2.938   6.726  16.955  0.2504 -0.4910  0.8420
 7162TIP3    H242978   3.061   6.695  17.038  0.9836 -0.1253 -0.0919
 7163TIP3   OH242979   1.438   3.268   1.304  0.4122  0.5947  0.3073
 7163TIP3    H142980   1.506   3.251   1.239  0.1973 -1.7120  0.6122
 7163TIP3    H242981   1.356   3.259   1.255  0.2725 -0.2200  0.6691
 7164TIP3   OH242982   1.836   1.051  11.714  0.5148 -0.0227  0.2148
 7164TIP3    H142983   1.811   1.101  11.792  1.3504 -0.4697  0.7879
 7164TIP3    H242984   1.918   1.090  11.686  0.8120 -0.6129  0.2484
 7165TIP3   OH242985   4.446   4.937   3.664 -0.1419  0.1538  0.2134
 7165TIP3    H142986   4.363   4.977   3.690 -0.3852 -0.5554  0.5398
 7165TIP3    H242987   4.487   4.912   3.747  0.3478  0.3900  0.0463
 7166TIP3   OH242988   0.675   1.262  12.337 -0.1549  0.0605 -0.1731
 7166TIP3    H142989   0.587   1.264  12.300 -1.4606 -0.9061  2.6520
 7166TIP3    H242990   0.664   1.226  12.425  3.0359  0.2038  0.4061
 7167TIP3   OH242991   6.011   3.167  14.311 -0.1464 -0.0487 -0.3399
 7167TIP3    H142992   6.018   3.169  14.406 -0.8244 -1.6678 -0.2197
 7167TIP3    H242993   6.050   3.084  14.285 -1.8882 -0.6394 -1.2469
 7168TIP3   OH242994   4.549   0.141   5.455  0.4968  0.4197 -0.2363
 7168TIP3    H142995   4.492   0.109   5.525  0.1915  2.3893  0.4783
 7168TIP3    H242996   4.493   0.144   5.378  1.2088 -3.2321 -1.1070
 7169TIP3   OH242997   6.297   0.450   1.373  0.2216 -0.1345 -0.0887
 7169TIP3    H142998   6.328   0.540   1.385 -0.8353  0.1391  0.6814
 7169TIP3    H242999   6.261   0.425   1.458  1.1801 -1.5687 -0.0693
 7170TIP3   OH243000   2.536   0.716   2.694  0.1185  0.1443 -0.4412
 7170TIP3    H143001   2.517   0.649   2.629  0.3868 -0.3387 -0.0371
 7170TIP3    H243002   2.588   0.782   2.648 -3.9536  2.5181 -2.1289
 7171TIP3   OH243003   5.401   0.219   5.007 -0.0232  0.4173  0.3291
 7171TIP3    H143004   5.324   0.185   5.052 -0.4154  1.0322  0.1274
 7171TIP3    H243005   5.402   0.173   4.923 -0.3396  0.6388  0.2065
 7172TIP3   OH243006   6.075   3.749   5.100 -0.3187  0.5447 -0.4285
 7172TIP3    H143007   5.994   3.722   5.143 -0.1634  0.4678 -0.1795
 7172TIP3    H243008   6.143   3.738   5.168 -0.1307  0.7888 -0.5743
 7173TIP3   OH243009   6.350   2.166  10.381 -0.1085 -0.1424  0.0585
 7173TIP3    H143010   6.440   2.140  10.360 -0.9703 -2.7646 -0.7786
 7173TIP3    H243011   6.301   2.148  10.301 -1.1588  2.7638 -0.0449
 7174TIP3   OH243012   1.598   4.818   4.686 -0.1369  0.2175 -0.0685
 7174TIP3    H143013   1.630   4.906   4.665 -0.6629  0.3333 -0.4135
 7174TIP3    H243014   1.559   4.788   4.604 -1.5349  0.3612  0.5285
 7175TIP3   OH243015   5.577   6.110   1.074  0.2320  0.6302  0.0084
 7175TIP3    H143016   5.504   6.167   1.095  0.6001  1.0135  0.2602
 7175TIP3    H243017   5.654   6.167   1.075  0.2604  0.7767 -2.7011
 7176TIP3   OH243018   3.747   0.418   4.642  0.3107  0.0375  0.2468
 7176TIP3    H143019   3.834   0.453   4.625 -1.0204  2.7426 -1.6211
 7176TIP3    H243020   3.744   0.337   4.591  1.6029  0.0755  0.0775
 7177TIP3   OH243021   1.790   2.014  14.855  0.1325 -0.1963  0.3613
 7177TIP3    H143022   1.812   2.025  14.763  0.6413 -1.8109  0.2549
 7177TIP3    H243023   1.736   1.936  14.858  1.1461 -0.8940  1.5397
 7178TIP3   OH243024   0.749   5.797   2.177  0.6637  0.0835 -0.0896
 7178TIP3    H143025   0.733   5.891   2.188 -0.8713 -0.0956 -0.5630
 7178TIP3    H243026   0.733   5.760   2.264 -0.2778  0.0834 -0.2510
 7179TIP3   OH243027   0.192   2.206  15.473 -0.3962  0.0693  0.0808
 7179TIP3    H143028   0.221   2.211  15.565  2.1934  3.6317 -0.7355
 7179TIP3    H243029   0.240   2.130  15.438  1.8727  1.0855  0.7757
 7180TIP3   OH243030   1.314   3.931  13.020  0.2826  0.4114  0.4202
 7180TIP3    H143031   1.348   3.899  12.937  1.5075 -0.0024  1.0514
 7180TIP3    H243032   1.256   3.861  13.051  0.8085  0.0076  0.5018
 7181TIP3   OH243033   1.701   4.676   5.247 -0.6593 -0.0721 -0.5854
 7181TIP3    H143034   1.770   4.630   5.199 -0.6273  1.2988 -1.8983
 7181TIP3    H243035   1.629   4.613   5.252 -0.3166 -0.5659 -1.6337
 7182TIP3   OH243036   3.476   3.041  11.976 -0.1672  0.0584  0.1782
 7182TIP3    H143037   3.527   3.040  12.057 -1.0783  1.5370  0.8047
 7182TIP3    H243038   3.467   2.948  11.953  0.2889 -0.3783  1.6376
 7183TIP3   OH243039   3.840   3.723   3.603 -0.0811  0.4281 -0.0684
 7183TIP3    H143040   3.923   3.765   3.627  0.3469 -0.7049  0.5047
 7183TIP3    H243041   3.866   3.639   3.566 -1.0138 -1.0185  2.3605
 7184TIP3   OH243042   4.175   0.073  12.541 -0.1389 -0.1728 -0.3532
 7184TIP3    H143043   4.163  -0.005  12.487  1.4151 -0.4757 -0.3114
 7184TIP3    H243044   4.118   0.139  12.502 -0.6328 -0.9978 -1.0579
 7185TIP3   OH243045   0.595   4.672  16.510 -0.3458 -0.0298  0.0036
 7185TIP3    H143046   0.532   4.605  16.537 -0.0986  0.0810  0.8823
 7185TIP3    H243047   0.584   4.742  16.574 -0.0889  0.4646 -0.4853
 7186TIP3   OH243048   5.258   2.596   3.056  0.5251  0.1434 -0.5283
 7186TIP3    H143049   5.348   2.591   3.087  0.0677  0.3082  0.9184
 7186TIP3    H243050   5.262   2.650   2.977  1.4056  2.1337  0.8074
 7187TIP3   OH243051   6.089   1.754   1.133 -0.3634 -0.3968  0.0639
 7187TIP3    H143052   6.014   1.697   1.149 -0.9312 -0.2278 -1.7148
 7187TIP3    H243053   6.150   1.735   1.204 -3.1624  1.4553  3.2605
 7188TIP3   OH243054   4.915   5.684  11.771 -0.1984  0.2625  0.9527
 7188TIP3    H143055   4.980   5.737  11.725 -0.8196  1.3667  1.2998
 7188TIP3    H243056   4.915   5.601  11.725  0.7266  0.5966  0.3107
 7189TIP3   OH243057   4.592   5.663   0.857 -0.0037  0.7555  0.5151
 7189TIP3    H143058   4.604   5.758   0.849 -0.9798  0.8057 -0.5921
 7189TIP3    H243059   4.501   5.654   0.885  0.0687  0.1322  0.5477
 7190TIP3   OH243060   3.458   2.112   1.635 -0.5037 -0.6559  0.6231
 7190TIP3    H143061   3.470   2.127   1.729 -0.0986 -0.0136  0.4770
 7190TIP3    H243062   3.364   2.118   1.622 -0.8502 -3.2217  1.3825
 7191TIP3   OH243063   3.260   3.180  13.583 -0.4188  0.4612  0.2949
 7191TIP3    H143064   3.306   3.121  13.642 -0.3382  0.9469  0.7257
 7191TIP3    H243065   3.330   3.217  13.528 -0.3980  0.5844  0.4048
 7192TIP3   OH243066   6.748   6.587  15.479  0.8288  0.4951  0.4397
 7192TIP3    H143067   6.728   6.496  15.501 -0.3201  0.4209 -0.7861
 7192TIP3    H243068   6.763   6.585  15.384  0.2441  1.6695  0.3127
 7193TIP3   OH243069   5.094   2.314   3.393 -0.1813 -0.1082  0.2292
 7193TIP3    H143070   5.065   2.399   3.360  1.2117  0.1151 -0.4848
 7193TIP3    H243071   5.162   2.336   3.457 -0.1506 -0.6784  0.3944
 7194TIP3   OH243072   1.768   5.446   4.814  0.7947 -0.4592  0.3685
 7194TIP3    H143073   1.759   5.479   4.904 -1.7093  1.1123 -0.3752
 7194TIP3    H243074   1.755   5.351   4.822 -0.7275 -0.1954  1.5436
 7195TIP3   OH243075   0.281   5.160   9.825 -0.2689 -0.1746 -0.5113
 7195TIP3    H143076   0.221   5.191   9.758 -1.1786  1.8087  1.1068
 7195TIP3    H243077   0.226   5.106   9.883  0.1089 -0.4867 -0.4432
 7196TIP3   OH243078   4.821   2.261   4.663 -0.1983  0.2173 -0.4782
 7196TIP3    H143079   4.782   2.196   4.604 -0.5635 -1.2788  1.3201
 7196TIP3    H243080   4.879   2.210   4.720 -0.7049  1.4059  1.1749
 7197TIP3   OH243081   2.825   6.570   1.937 -0.3032 -0.4427 -0.1847
 7197TIP3    H143082   2.791   6.482   1.922  0.2718 -0.7269  0.1653
 7197TIP3    H243083   2.747   6.626   1.935 -0.9003 -1.1737  1.2508
 7198TIP3   OH243084   3.191   5.250   1.584  0.4673 -0.3896  0.7043
 7198TIP3    H143085   3.120   5.195   1.551  2.0230 -1.2533 -1.3974
 7198TIP3    H243086   3.148   5.332   1.608 -1.3603 -1.1899  0.3553
 7199TIP3   OH243087   5.465   6.280   2.870  0.2965 -0.0348 -0.9756
 7199TIP3    H143088   5.415   6.199   2.881  0.8528 -0.1836  0.7710
 7199TIP3    H243089   5.399   6.349   2.865 -0.2118 -0.0215  3.0223
 7200TIP3   OH243090   6.583   0.240   3.475  0.0125  0.1287  0.5584
 7200TIP3    H143091   6.518   0.284   3.530  1.4266  1.4535  1.2401
 7200TIP3    H243092   6.545   0.240   3.387 -0.7023  1.3170  0.8490
 7201TIP3   OH243093   6.116   4.938  12.534 -0.1977  0.1089  0.6081
 7201TIP3    H143094   6.178   5.003  12.503 -1.1519  2.0146  2.4157
 7201TIP3    H243095   6.158   4.898  12.610 -0.5700  0.3892  0.9720
 7202TIP3   OH243096   5.334   0.115  11.579 -0.3419 -0.0127 -0.5783
 7202TIP3    H143097   5.419   0.150  11.554 -0.0724 -1.1687 -1.3485
 7202TIP3    H243098   5.349   0.022  11.594 -1.3011 -0.0757  0.1038
 7203TIP3   OH243099   3.465   1.428   4.697  0.5080  0.2503  0.1036
 7203TIP3    H143100   3.462   1.334   4.681  0.7939  0.2443  0.0748
 7203TIP3    H243101   3.555   1.445   4.723  0.3391  0.4455  0.5627
 7204TIP3   OH243102   6.455   0.560  10.627 -0.6711  0.3408  0.7062
 7204TIP3    H143103   6.422   0.492  10.685 -2.1705  1.6007  1.4117
 7204TIP3    H243104   6.509   0.513  10.563 -2.0371 -1.5579  0.8617
 7205TIP3   OH243105   0.155   3.900  11.140  0.2265  0.2190  0.2390
 7205TIP3    H143106   0.121   3.818  11.105 -0.4063  0.4528  0.2840
 7205TIP3    H243107   0.250   3.893  11.130  0.1850 -0.5413  0.2999
 7206TIP3   OH243108   5.915   1.488   0.857 -0.8177 -0.0340  0.3616
 7206TIP3    H143109   5.835   1.529   0.826  0.3778  2.3117  0.1975
 7206TIP3    H243110   5.965   1.470   0.778 -0.6620 -0.4041  0.5409
 7207TIP3   OH243111   0.275   0.021  13.466 -0.0257 -0.4176 -0.3092
 7207TIP3    H143112   0.239   0.102  13.430 -3.1515 -1.2848  0.5835
 7207TIP3    H243113   0.364   0.045  13.495 -1.4586  3.2812  1.6963
 7208TIP3   OH243114   4.013   0.989  17.113  0.4042  0.1197 -0.1768
 7208TIP3    H143115   3.933   1.002  17.063 -0.9334  1.1414  2.0661
 7208TIP3    H243116   3.985   0.995  17.205  2.9761  0.0045  0.6898
 7209TIP3   OH243117   1.061   5.645  17.003 -0.8844  0.0611  0.3540
 7209TIP3    H143118   1.082   5.555  16.975 -0.5950  0.2553 -0.0691
 7209TIP3    H243119   1.120   5.661  17.077 -1.3737 -0.3163  0.8276
 7210TIP3   OH243120   1.295   6.158  13.676  0.4301 -0.0229  0.0976
 7210TIP3    H143121   1.219   6.158  13.618  1.8991  1.1439 -1.9764
 7210TIP3    H243122   1.292   6.072  13.719 -1.9469 -0.0604  0.0031
 7211TIP3   OH243123   3.074   5.073   4.688 -0.4080 -0.3327 -0.3254
 7211TIP3    H143124   3.034   5.015   4.622 -1.8348  1.0515 -0.7191
 7211TIP3    H243125   3.105   5.013   4.756  0.6051 -1.7748 -1.9441
 7212TIP3   OH243126   1.394   1.489  10.453  0.3667 -0.2786  0.5471
 7212TIP3    H143127   1.360   1.429  10.387 -1.7515  1.5061 -0.1026
 7212TIP3    H243128   1.488   1.487  10.441  0.4353 -3.6229  0.7452
 7213TIP3   OH243129   0.941   0.074  15.982  0.5239  0.3484 -0.6783
 7213TIP3    H143130   0.864   0.129  15.970  0.8632  0.4647 -2.8230
 7213TIP3    H243131   1.011   0.136  16.005 -0.0645  0.1872  1.7420
 7214TIP3   OH243132   2.298   3.551   2.112 -0.5373  0.5244 -0.3147
 7214TIP3    H143133   2.286   3.503   2.194  1.5030 -0.3583 -0.4824
 7214TIP3    H243134   2.341   3.489   2.054 -0.5911  1.6223 -1.5705
 7215TIP3   OH243135   5.458   1.345   5.403 -0.1635 -0.2666 -0.8117
 7215TIP3    H143136   5.534   1.366   5.457 -0.9820  1.4054 -0.2534
 7215TIP3    H243137   5.473   1.254   5.376  1.4892 -0.3313  0.1659
 7216TIP3   OH243138   3.170   2.830   0.310 -0.7902  0.5111  0.8188
 7216TIP3    H143139   3.247   2.868   0.352 -1.1879  2.0612  0.2139
 7216TIP3    H243140   3.184   2.735   0.315  0.9588  0.7517  1.0716
 7217TIP3   OH243141   0.180   3.388  14.501  0.0740 -0.1918 -0.2161
 7217TIP3    H143142   0.159   3.342  14.583 -1.7176  0.5931 -0.1776
 7217TIP3    H243143   0.095   3.416  14.468  1.0531  3.6804  0.1161
 7218TIP3   OH243144   1.701   6.159  13.285  0.0837 -0.6000  0.6738
 7218TIP3    H143145   1.657   6.095  13.229 -1.4253  0.2069  0.8779
 7218TIP3    H243146   1.742   6.221  13.224 -4.0872  2.0696  0.1326
 7219TIP3   OH243147   3.758   4.484  16.479  0.2075  0.5346 -0.0713
 7219TIP3    H143148   3.819   4.522  16.542  0.5825  1.0156 -0.7103
 7219TIP3    H243149   3.726   4.405  16.521  0.5727  0.7667  0.6566
 7220TIP3   OH243150   0.749   3.837   0.095 -0.3536 -0.1881  0.2967
 7220TIP3    H143151   0.734   3.929   0.075  1.1654  0.8297  3.1707
 7220TIP3    H243152   0.662   3.800   0.106 -1.0152  0.6085 -1.7845
 7221TIP3   OH243153   2.684   6.492   2.535  0.5477  1.0405  0.7836
 7221TIP3    H143154   2.666   6.511   2.627 -0.3174  1.5747  0.5198
 7221TIP3    H243155   2.754   6.553   2.512  1.8409 -0.1419  1.4747
 7222TIP3   OH243156   1.205   3.021   0.811  0.5883 -0.3402  0.0598
 7222TIP3    H143157   1.122   3.068   0.801  1.0446  0.4724 -0.0566
 7222TIP3    H243158   1.182   2.942   0.859 -0.0957  0.3658  0.9460
 7223TIP3   OH243159   2.672   6.010   2.021 -0.4831 -0.4429 -0.1064
 7223TIP3    H143160   2.648   5.936   1.964  0.2166 -1.2432  0.6086
 7223TIP3    H243161   2.589   6.052   2.042 -0.8107 -0.4906 -1.2285
 7224TIP3   OH243162   4.139   3.964  15.780 -0.3218 -0.5503  0.0877
 7224TIP3    H143163   4.153   4.047  15.735  1.0702 -0.8280 -0.0168
 7224TIP3    H243164   4.146   3.897  15.712 -1.0701 -0.7912  0.2352
 7225TIP3   OH243165   0.193   2.129   2.892 -0.3800 -0.1674 -0.4311
 7225TIP3    H143166   0.100   2.104   2.889 -0.2674 -0.7930  0.5882
 7225TIP3    H243167   0.222   2.101   2.979  0.2262  1.9633  0.1018
 7226TIP3   OH243168   5.032   3.361   3.803 -0.5633 -0.0570  0.0075
 7226TIP3    H143169   5.096   3.308   3.756 -1.3645 -0.7354 -0.3328
 7226TIP3    H243170   5.005   3.428   3.740 -1.1453 -0.5611 -0.2817
 7227TIP3   OH243171   5.380   0.492   0.569  0.3691  0.5449  0.1833
 7227TIP3    H143172   5.379   0.401   0.540  1.5676  0.3322  0.7291
 7227TIP3    H243173   5.290   0.510   0.596  0.3348 -0.8427  1.1121
 7228TIP3   OH243174   3.726   5.946   0.547  0.3191 -0.2318  0.2274
 7228TIP3    H143175   3.636   5.956   0.516  0.6268 -0.5357 -0.8070
 7228TIP3    H243176   3.753   6.035   0.571  0.3208  0.1676 -1.1522
 7229TIP3   OH243177   5.368   2.830  14.059 -0.1042  0.2829 -0.7696
 7229TIP3    H143178   5.398   2.910  14.103 -1.1761 -0.4308  1.3762
 7229TIP3    H243179   5.448   2.783  14.036  0.4887  0.7936  0.2282
 7230TIP3   OH243180   1.642   1.147   5.975 -0.5065  0.3609  0.0533
 7230TIP3    H143181   1.584   1.071   5.966  0.1735 -0.4242  1.8742
 7230TIP3    H243182   1.728   1.115   5.948 -0.3287  0.6464  0.2759
 7231TIP3   OH243183   1.465   2.270  10.565  0.8689  0.3737  0.2876
 7231TIP3    H143184   1.502   2.182  10.552  0.4505  0.2776 -0.3087
 7231TIP3    H243185   1.387   2.271  10.510  0.1338  0.6741  1.2972
 7232TIP3   OH243186   2.978   0.330   4.370 -0.3298  0.1554 -0.2171
 7232TIP3    H143187   2.936   0.379   4.441  0.4454 -1.0308  1.0853
 7232TIP3    H243188   3.071   0.349   4.379 -0.1582 -0.5342 -0.4925
 7233TIP3   OH243189   2.787   5.869  15.852  0.2174  0.2754 -0.2808
 7233TIP3    H143190   2.827   5.955  15.860  2.2429 -0.7702  2.4194
 7233TIP3    H243191   2.715   5.869  15.914  0.2245  0.0235 -0.2686
 7234TIP3   OH243192   2.342   0.777  11.321  0.1224 -0.3853  0.1030
 7234TIP3    H143193   2.356   0.686  11.344  2.8152 -0.6855 -2.1759
 7234TIP3    H243194   2.423   0.821  11.346 -0.7472  1.1988  0.2698
 7235TIP3   OH243195   6.249   4.772  12.702 -0.4089 -0.2998  0.1847
 7235TIP3    H143196   6.327   4.819  12.672 -0.4747  0.0457  0.5419
 7235TIP3    H243197   6.272   4.742  12.790  0.1899 -2.2513 -0.5908
 7236TIP3   OH243198   2.233   0.431   2.890  0.0177  0.0601  0.6770
 7236TIP3    H143199   2.326   0.409   2.888  0.0738  0.2640  0.8788
 7236TIP3    H243200   2.190   0.360   2.843  0.3296  0.2450  0.1026
 7237TIP3   OH243201   5.554   0.847   1.456 -0.3481 -0.1534 -0.1229
 7237TIP3    H143202   5.573   0.941   1.458  0.2729 -0.2838  0.3353
 7237TIP3    H243203   5.600   0.815   1.379 -0.9895  0.0067 -0.5745
 7238TIP3   OH243204   3.290   4.740   2.169 -0.0301  0.6505 -0.0677
 7238TIP3    H143205   3.344   4.756   2.092  0.9805 -1.1955  0.1883
 7238TIP3    H243206   3.323   4.801   2.235  0.5150  0.7924 -0.4657
 7239TIP3   OH243207   2.529   6.104   1.218 -0.4005 -0.6907 -0.3794
 7239TIP3    H143208   2.611   6.084   1.263 -1.0451 -3.2720 -0.2134
 7239TIP3    H243209   2.556   6.152   1.140  0.9686  1.3464  1.2320
 7240TIP3   OH243210   0.023   6.267  12.138  0.2321  0.1499  0.4409
 7240TIP3    H143211  -0.041   6.325  12.096 -0.0318 -0.3631  0.1231
 7240TIP3    H243212   0.091   6.254  12.072  0.1858 -0.0700  0.4366
 7241TIP3   OH243213   4.656   6.155  16.980  0.0364  0.1455  0.4470
 7241TIP3    H143214   4.699   6.126  17.060  0.8768 -0.2960 -0.1491
 7241TIP3    H243215   4.711   6.121  16.909 -1.7664 -1.2235 -0.3649
 7242TIP3   OH243216   4.767   4.006   0.014  0.3903  0.3612  0.3729
 7242TIP3    H143217   4.714   4.024   0.091  0.9067  1.0754  0.5793
 7242TIP3    H243218   4.719   4.045  -0.059  0.5436  0.8643  0.5359
 7243TIP3   OH243219   1.373   4.673   0.807 -0.5867 -0.2302  1.0116
 7243TIP3    H143220   1.304   4.734   0.784 -0.6305  0.1331  2.0297
 7243TIP3    H243221   1.407   4.706   0.890 -0.2514 -1.2803  1.3127
 7244TIP3   OH243222   5.938   0.677  15.140  0.1049 -0.2436  0.1081
 7244TIP3    H143223   5.959   0.635  15.223  1.0669 -1.6279 -0.7815
 7244TIP3    H243224   5.843   0.692  15.144  0.0434 -0.8380  1.2110
 7245TIP3   OH243225   0.636   1.382  14.399 -0.5773 -0.3777 -0.4063
 7245TIP3    H143226   0.663   1.446  14.334  1.7038  0.1524  0.9182
 7245TIP3    H243227   0.717   1.334  14.420 -1.8062 -2.3641  0.0863
 7246TIP3   OH243228   0.763   1.777   0.027 -0.4798  0.2236  0.0043
 7246TIP3    H143229   0.726   1.693   0.001 -2.6233  0.7551  1.0992
 7246TIP3    H243230   0.808   1.759   0.109 -1.8829  0.2918  0.8246
 7247TIP3   OH243231   5.768   4.425   5.373  0.1812  0.1324  0.1929
 7247TIP3    H143232   5.776   4.497   5.311  2.6729  0.6065  0.9422
 7247TIP3    H243233   5.752   4.348   5.319  1.8701  0.6047 -1.0453
 7248TIP3   OH243234   1.191   0.637   0.693  0.4339  0.2671  0.1383
 7248TIP3    H143235   1.194   0.568   0.759 -1.1269  0.1981  0.1719
 7248TIP3    H243236   1.102   0.634   0.658  1.1300  0.4794 -1.8036
 7249TIP3   OH243237   4.270   3.905  15.412 -0.5448 -0.5193 -0.0110
 7249TIP3    H143238   4.218   3.874  15.338 -3.3818  1.0912  1.1509
 7249TIP3    H243239   4.288   3.997  15.392 -0.1837 -0.4229  0.7106
 7250TIP3   OH243240   2.952   5.451   1.609  0.0998  0.4372  0.6786
 7250TIP3    H143241   2.894   5.420   1.539  0.0920  2.7912 -0.4540
 7250TIP3    H243242   3.006   5.518   1.567  0.4273  1.6004  2.8219
 7251TIP3   OH243243   2.944   5.104   3.941  0.5039  0.4254  0.0805
 7251TIP3    H143244   2.905   5.017   3.930  0.5078  0.2321  1.5136
 7251TIP3    H243245   3.023   5.090   3.992  1.1724  1.1321 -0.7313
 7252TIP3   OH243246   2.402   5.629   2.941 -0.3197  0.0025  0.0996
 7252TIP3    H143247   2.433   5.628   3.031  0.0308  3.9066  0.2261
 7252TIP3    H243248   2.317   5.672   2.945  0.1026  1.0993 -1.4487
 7253TIP3   OH243249   1.924   0.759  16.518  0.0642 -0.4221  0.2488
 7253TIP3    H143250   1.952   0.703  16.590 -1.6501 -0.0993  1.2125
 7253TIP3    H243251   1.881   0.700  16.457 -0.9597 -0.3208  0.8462
 7254TIP3   OH243252   2.479   3.094  11.445  0.0190 -0.2891  0.0288
 7254TIP3    H143253   2.387   3.069  11.437  0.3764 -1.4943 -0.5851
 7254TIP3    H243254   2.505   3.065  11.532 -0.5309  1.3433  0.7749
 7255TIP3   OH243255   3.978   2.643  16.553  0.0457 -0.1931  0.0003
 7255TIP3    H143256   3.930   2.726  16.557  0.1173 -0.1775  0.8846
 7255TIP3    H243257   3.997   2.623  16.645  1.8610 -0.1365 -0.3400
 7256TIP3   OH243258   4.858   1.501   5.472  0.3554 -0.2656 -0.2931
 7256TIP3    H143259   4.783   1.442   5.483  1.1384 -1.4204 -0.8792
 7256TIP3    H243260   4.859   1.554   5.551 -1.0728 -0.2271 -0.2712
 7257TIP3   OH243261   3.514   3.903   0.372 -0.0807  1.0601 -0.0594
 7257TIP3    H143262   3.546   3.816   0.345  0.9710  1.5049 -0.3000
 7257TIP3    H243263   3.539   3.910   0.464  2.2022  2.0956 -0.6723
 7258TIP3   OH243264   0.869   2.219  11.764 -0.0554  0.3682 -0.5546
 7258TIP3    H143265   0.957   2.228  11.802 -0.4777 -1.4016  0.9907
 7258TIP3    H243266   0.883   2.172  11.682  0.4680  0.5011 -0.5461
 7259TIP3   OH243267   3.988   2.376   5.321  0.2928  0.1714  0.1127
 7259TIP3    H143268   3.986   2.281   5.327 -2.0719  0.0562 -1.2053
 7259TIP3    H243269   3.945   2.407   5.401 -1.2977 -0.0465 -0.6000
 7260TIP3   OH243270   5.406   4.308  13.913 -0.0097 -0.4697 -1.0020
 7260TIP3    H143271   5.416   4.374  13.981 -2.6248  0.1508 -1.1240
 7260TIP3    H243272   5.491   4.263  13.911  0.9773  1.1385  0.8815
 7261TIP3   OH243273   4.710   1.878  16.563  0.1329  0.0578  0.0648
 7261TIP3    H143274   4.662   1.929  16.497  0.0298  0.4246  0.4146
 7261TIP3    H243275   4.743   1.802  16.516  2.0435  1.4594 -0.9966
 7262TIP3   OH243276   0.434   5.695   2.839  0.3857 -0.9772 -0.8166
 7262TIP3    H143277   0.361   5.659   2.890 -1.6852  1.8974 -1.5219
 7262TIP3    H243278   0.510   5.686   2.896 -0.8134 -2.5101  0.6490
 7263TIP3   OH243279   2.474   4.655   0.217 -0.1312  0.0963 -0.7154
 7263TIP3    H143280   2.515   4.690   0.296  2.6396 -0.3940 -1.8107
 7263TIP3    H243281   2.507   4.710   0.146 -1.4010 -0.3753 -1.7138
 7264TIP3   OH243282   5.658   5.069  11.735 -0.3461  0.1548  0.1693
 7264TIP3    H143283   5.582   5.071  11.678  0.4805 -1.2210 -1.0199
 7264TIP3    H243284   5.685   5.161  11.741 -1.4491  0.5274 -0.2334
 7265TIP3   OH243285   5.637   2.960  11.805  0.3036 -1.0638 -0.1185
 7265TIP3    H143286   5.608   2.930  11.719 -3.4645  0.2924  0.4777
 7265TIP3    H243287   5.692   3.036  11.786 -1.4195 -0.0559 -1.4328
 7266TIP3   OH243288   3.106   4.552  11.345  0.3267 -0.3762 -0.1738
 7266TIP3    H143289   3.185   4.575  11.296  0.6152  1.4067  1.0509
 7266TIP3    H243290   3.137   4.495  11.415  0.4072 -0.2843 -0.1350
 7267TIP3   OH243291   3.544   6.315   2.586  0.2465  0.6568  0.1557
 7267TIP3    H143292   3.611   6.297   2.520 -0.2743  0.6797 -0.3908
 7267TIP3    H243293   3.547   6.240   2.645  1.2236  0.9825  0.5426
 7268TIP3   OH243294   5.885   4.198  12.527 -0.2106  0.0102  0.1382
 7268TIP3    H143295   5.973   4.179  12.494 -0.2311  0.6569 -0.2854
 7268TIP3    H243296   5.886   4.291  12.548 -0.3040 -0.2989  1.6707
 7269TIP3   OH243297   3.756   0.493   5.810  0.7229  0.0522  0.1299
 7269TIP3    H143298   3.714   0.510   5.894  0.4381  0.2283 -0.0466
 7269TIP3    H243299   3.819   0.564   5.800  0.9958 -0.1546  0.3473
 7270TIP3   OH243300   6.687   6.574  16.692  0.0492  0.4068 -0.0733
 7270TIP3    H143301   6.660   6.561  16.783 -0.0788 -1.1659 -0.3013
 7270TIP3    H243302   6.648   6.501  16.645  1.6229  0.1554 -1.0715
 7271TIP3   OH243303   2.139   4.417   3.597  0.4544  0.0655 -0.2961
 7271TIP3    H143304   2.118   4.509   3.580 -1.1605 -0.0419  0.9127
 7271TIP3    H243305   2.122   4.373   3.513 -0.8837  0.5532 -0.3081
 7272TIP3   OH243306   0.146   5.099   1.448 -0.7951 -0.3274  0.4445
 7272TIP3    H143307   0.164   5.104   1.354 -0.0367  0.2328  0.6120
 7272TIP3    H243308   0.211   5.156   1.488 -0.0090 -1.8631  1.4550
 7273TIP3   OH243309   2.910   3.304   0.462 -0.3697  0.2505  0.2224
 7273TIP3    H143310   2.954   3.370   0.409  0.3075 -0.2317  0.1827
 7273TIP3    H243311   2.860   3.252   0.399  1.0465 -0.8109 -0.0684
 7274TIP3   OH243312   6.663   6.120  12.988 -0.3379 -0.0477 -0.1027
 7274TIP3    H143313   6.713   6.158  13.060  0.7091  0.6527 -1.1559
 7274TIP3    H243314   6.706   6.036  12.971 -1.9941 -1.3034  1.5291
 7275TIP3   OH243315   5.536   6.371  12.169  0.3399 -0.1156  0.4313
 7275TIP3    H143316   5.444   6.373  12.194 -0.5049  1.1377 -2.3727
 7275TIP3    H243317   5.578   6.316  12.235 -2.5671 -1.5423  1.2289
 7276TIP3   OH243318   4.614   6.658  14.528 -0.1351 -0.0678  0.2473
 7276TIP3    H143319   4.681   6.595  14.500  1.7155  2.1976 -0.8125
 7276TIP3    H243320   4.621   6.660  14.623  1.1957 -0.0502  0.1722
 7277TIP3   OH243321   1.980   5.394   0.431  0.1553 -0.1950  0.3564
 7277TIP3    H143322   2.073   5.417   0.428  0.7095 -2.1170  1.2252
 7277TIP3    H243323   1.957   5.398   0.524  0.1110 -2.2610  0.4789
 7278TIP3   OH243324   5.765   2.192   3.853 -0.5999 -0.0612 -0.2243
 7278TIP3    H143325   5.759   2.240   3.935 -0.3331 -1.5004  0.6849
 7278TIP3    H243326   5.796   2.105   3.879 -1.5042 -0.8714 -1.7286
 7279TIP3   OH243327   5.772   0.430  16.130 -0.4520  0.5525 -0.2016
 7279TIP3    H143328   5.796   0.410  16.039  0.1267 -0.8530  0.2228
 7279TIP3    H243329   5.717   0.507  16.124  0.0872  0.8630 -1.6943
 7280TIP3   OH243330   5.331   1.780   2.686  0.1034  0.4798  0.5830
 7280TIP3    H143331   5.304   1.857   2.636  0.1829 -0.4090 -0.8842
 7280TIP3    H243332   5.385   1.730   2.626  0.2021 -0.6482  1.5722
 7281TIP3   OH243333   3.273   3.142  16.232  0.9378  0.1999 -0.1587
 7281TIP3    H143334   3.283   3.236  16.248 -1.5727  0.6604 -0.8652
 7281TIP3    H243335   3.301   3.130  16.142 -0.0978  0.5775 -0.5495
 7282TIP3   OH243336   4.746   0.832  14.237 -0.0819  0.4290 -0.6285
 7282TIP3    H143337   4.796   0.773  14.180  0.3870  0.6916 -0.4965
 7282TIP3    H243338   4.793   0.915  14.232 -1.1775  1.0189 -1.4193
 7283TIP3   OH243339   5.479   0.041  16.417  0.4792 -0.0614 -0.0607
 7283TIP3    H143340   5.387   0.020  16.402  0.4636  0.2608 -0.4275
 7283TIP3    H243341   5.494   0.120  16.366  1.3916 -1.0687 -1.4407
 7284TIP3   OH243342   2.008   1.726  16.633 -0.3406 -0.2671 -0.2473
 7284TIP3    H143343   2.023   1.809  16.679  0.9571 -0.0908 -0.9331
 7284TIP3    H243344   2.082   1.719  16.573 -1.7977 -0.6455 -2.0868
 7285TIP3   OH243345   6.156   3.554  13.618  0.0779 -0.6079 -0.2944
 7285TIP3    H143346   6.225   3.516  13.673  1.4606 -0.1875 -1.6857
 7285TIP3    H243347   6.109   3.479  13.582  0.9172 -0.9422 -0.7007
 7286TIP3   OH243348   5.739   0.224  12.698 -0.1943  0.5806  0.6313
 7286TIP3    H143349   5.760   0.313  12.672  1.8283  0.2895  1.0462
 7286TIP3    H243350   5.796   0.207  12.773 -1.5816 -0.5900  1.4818
 7287TIP3   OH243351   4.645   5.016  10.659  0.4118  0.4662 -0.2629
 7287TIP3    H143352   4.628   5.060  10.576 -1.4317 -0.1238 -0.2283
 7287TIP3    H243353   4.659   4.924  10.635  1.7487  0.5885 -0.0707
 7288TIP3   OH243354   0.617   0.213  10.929 -0.7581 -0.1691  0.4397
 7288TIP3    H143355   0.574   0.250  10.852 -3.0646 -0.7135  1.3782
 7288TIP3    H243356   0.627   0.120  10.909 -0.2427 -0.1022  0.3533
 7289TIP3   OH243357   5.148   4.297   2.289 -0.3880 -0.3411  0.3801
 7289TIP3    H143358   5.239   4.268   2.285 -0.2232 -0.0979  1.7860
 7289TIP3    H243359   5.153   4.392   2.275 -0.7184 -0.6084 -2.0835
 7290TIP3   OH243360   5.157   5.752   3.676  0.3159  0.6373  0.1546
 7290TIP3    H143361   5.064   5.729   3.676 -0.1728  2.4387 -0.2204
 7290TIP3    H243362   5.202   5.669   3.659 -1.3209  0.0396 -1.7259
 7291TIP3   OH243363   5.946   6.722  14.686  0.0914 -0.0432 -0.1535
 7291TIP3    H143364   6.029   6.675  14.675  0.3043  0.1795  0.4740
 7291TIP3    H243365   5.880   6.652  14.691  0.4794 -0.3328  1.4365
 7292TIP3   OH243366   4.263   4.230   0.806  0.3149  0.3490  0.0988
 7292TIP3    H143367   4.221   4.152   0.842  1.8300 -0.7495 -0.4251
 7292TIP3    H243368   4.356   4.217   0.822  0.6448  1.8306 -0.4430
 7293TIP3   OH243369   6.766   3.535  14.544 -0.3727  0.3102 -0.2075
 7293TIP3    H143370   6.707   3.607  14.525 -0.3268  0.4391  0.1480
 7293TIP3    H243371   6.724   3.459  14.502 -1.7271  0.0305  1.5541
 7294TIP3   OH243372   5.855   6.537   2.209 -0.8258 -0.4470 -0.8262
 7294TIP3    H143373   5.800   6.476   2.258 -0.6560  0.8601  1.0762
 7294TIP3    H243374   5.821   6.624   2.232  1.2625  0.3447 -0.5628
 7295TIP3   OH243375   5.632   4.549   0.058  0.3949  0.1534 -0.7358
 7295TIP3    H143376   5.709   4.494   0.054  0.4359  0.2480 -1.3151
 7295TIP3    H243377   5.559   4.491   0.037  0.2195 -0.0808  0.4164
 7296TIP3   OH243378   4.157   2.621  12.464 -0.0589  0.2863  0.1397
 7296TIP3    H143379   4.187   2.711  12.449  0.6972  0.0476  0.1961
 7296TIP3    H243380   4.074   2.631  12.511  0.6599  0.9316  1.2987
 7297TIP3   OH243381   0.368   1.383  12.363  0.0621  0.3664 -0.5773
 7297TIP3    H143382   0.330   1.397  12.277  0.3999 -1.6292 -1.0927
 7297TIP3    H243383   0.293   1.379  12.423 -0.1522  2.1142 -0.6826
 7298TIP3   OH243384   5.356   6.588   1.553  0.2536  0.2717 -0.4168
 7298TIP3    H143385   5.368   6.524   1.623 -2.9399  0.0074  0.0710
 7298TIP3    H243386   5.359   6.673   1.598  0.1485  0.2023 -0.2742
 7299TIP3   OH243387   4.617   2.448   0.955 -0.0059  0.0273 -0.2235
 7299TIP3    H143388   4.636   2.409   0.869  0.8968  1.1510 -0.5629
 7299TIP3    H243389   4.703   2.461   0.995 -0.3724  0.2750  0.5028
 7300TIP3   OH243390   4.172   3.354  16.068 -0.4483 -0.4508 -0.3490
 7300TIP3    H143391   4.150   3.425  16.007 -0.5740  0.1713  0.3990
 7300TIP3    H243392   4.254   3.382  16.109  0.4522 -1.5855 -1.3139
 7301TIP3   OH243393   5.934   0.534   5.288 -0.2492 -1.0053  0.0531
 7301TIP3    H143394   5.942   0.448   5.330  0.0003 -1.1963 -0.3740
 7301TIP3    H243395   6.019   0.575   5.301  0.0629 -1.3356 -0.8289
 7302TIP3   OH243396   6.478   4.921  14.229 -0.1781 -0.3565 -0.1916
 7302TIP3    H143397   6.475   4.996  14.289 -0.9167 -1.0913  0.7177
 7302TIP3    H243398   6.454   4.958  14.144  1.3961  0.8034 -0.1715
 7303TIP3   OH243399   0.508   5.779   2.024 -0.0232  0.2399  0.0328
 7303TIP3    H143400   0.584   5.776   2.083 -0.8977 -1.1723  1.1734
 7303TIP3    H243401   0.522   5.857   1.971  1.0021  1.4220  1.8971
 7304TIP3   OH243402   3.755   4.822  13.582  0.2843  0.8820  0.3561
 7304TIP3    H143403   3.660   4.832  13.576  0.2789  1.0135  0.6636
 7304TIP3    H243404   3.769   4.733  13.614  0.3158  0.1352 -1.6135
 7305TIP3   OH243405   3.651   5.761   1.554  0.0333 -0.4157 -0.9712
 7305TIP3    H143406   3.637   5.820   1.628 -1.0529  0.1156 -1.5777
 7305TIP3    H243407   3.741   5.729   1.565  0.6637  1.3712 -0.6571
 7306TIP3   OH243408   4.532   1.197  14.408  0.9654  0.2488  0.6732
 7306TIP3    H143409   4.439   1.195  14.430  1.0268  0.6886  0.9927
 7306TIP3    H243410   4.535   1.227  14.317  0.8266  0.9355  0.8922
 7307TIP3   OH243411   1.873   0.051  14.113 -0.2589 -0.5055  0.1282
 7307TIP3    H143412   1.878   0.061  14.018  1.3956 -1.1805  0.1024
 7307TIP3    H243413   1.781   0.065  14.135 -0.7605 -0.8531 -1.6332
 7308TIP3   OH243414   6.024   1.814   2.224 -0.1551 -0.4103  0.0213
 7308TIP3    H143415   6.054   1.842   2.311 -0.4534 -3.3816  1.2139
 7308TIP3    H243416   6.092   1.753   2.194 -0.9646 -0.8447 -0.9937
 7309TIP3   OH243417   1.227   4.449   4.989  0.2492  0.5578 -0.0338
 7309TIP3    H143418   1.139   4.472   4.959  0.2528  0.6774  0.0495
 7309TIP3    H243419   1.215   4.367   5.037  0.0776  0.9402  0.5798
 7310TIP3   OH243420   3.938   5.178  16.367  0.3520  0.0192  0.0248
 7310TIP3    H143421   3.988   5.207  16.444 -2.2338 -0.1812  1.9428
 7310TIP3    H243422   3.939   5.252  16.307 -1.0499  1.9151  2.1718
 7311TIP3   OH243423   4.841   0.782   0.191 -0.0703  0.1353  0.0873
 7311TIP3    H143424   4.903   0.802   0.121 -1.6616  2.1886 -0.8244
 7311TIP3    H243425   4.864   0.842   0.262  0.7374 -1.0800  0.9045
 7312TIP3   OH243426   3.023   0.441  12.531  0.6070 -0.5685 -0.0683
 7312TIP3    H143427   2.949   0.479  12.577 -0.1274  1.0555 -2.3862
 7312TIP3    H243428   3.098   0.495  12.558 -0.1895  1.8343 -2.2612
 7313TIP3   OH243429   3.787   2.864   3.424  0.5158  0.0580 -0.0599
 7313TIP3    H143430   3.843   2.788   3.439  0.9120  0.4653  0.5749
 7313TIP3    H243431   3.848   2.934   3.400  0.1376  0.1334 -0.8194
 7314TIP3   OH243432   5.172   6.046  10.348 -0.6899  0.4788 -0.1067
 7314TIP3    H143433   5.181   5.952  10.329 -0.2831  0.6528 -0.8094
 7314TIP3    H243434   5.093   6.052  10.401 -0.2643 -0.3568  0.6432
 7315TIP3   OH243435   4.702   5.955  16.002  0.2448 -0.1833  0.0710
 7315TIP3    H143436   4.692   5.860  16.007 -0.3899 -0.0605  2.4500
 7315TIP3    H243437   4.797   5.969  16.003  0.3404 -0.7830  1.0893
 7316TIP3   OH243438   6.015   2.497   3.841  0.5277 -0.2117  0.6172
 7316TIP3    H143439   5.930   2.541   3.849 -0.6333 -2.0919 -0.3260
 7316TIP3    H243440   6.009   2.422   3.900  1.0672 -0.9791 -0.2585
 7317TIP3   OH243441   4.445   1.379  10.873 -0.7240 -0.2714  0.0838
 7317TIP3    H143442   4.478   1.463  10.903 -0.0353 -0.5493  0.1127
 7317TIP3    H243443   4.517   1.318  10.886 -0.5664 -0.5180 -1.6401
 7318TIP3   OH243444   4.166   4.464  10.080 -0.7478  0.1583 -0.0701
 7318TIP3    H143445   4.150   4.559  10.081  0.2251  0.3717  2.2818
 7318TIP3    H243446   4.095   4.428  10.134  0.2228 -0.1577  1.0215
 7319TIP3   OH243447   5.925   6.263   2.973 -0.3893 -0.4131  0.4256
 7319TIP3    H143448   5.901   6.339   3.025 -0.0118 -1.1566  1.7299
 7319TIP3    H243449   5.844   6.213   2.964 -0.5480 -0.0699 -0.0803
 7320TIP3   OH243450   1.946   4.996  11.625  0.1758 -0.6216 -0.2804
 7320TIP3    H143451   1.852   5.008  11.612 -0.1328 -2.0770  0.4705
 7320TIP3    H243452   1.968   4.918  11.574  0.3765 -2.0382  1.8544
 7321TIP3   OH243453   5.268   2.586   4.243  0.0029  0.0462 -0.4708
 7321TIP3    H143454   5.287   2.665   4.192  1.0977 -0.2557 -0.5615
 7321TIP3    H243455   5.281   2.613   4.334  2.4038 -0.4786 -0.5722
 7322TIP3   OH243456   1.829   6.446   5.029  0.0082  0.2448  0.2705
 7322TIP3    H143457   1.892   6.495   5.082 -0.8467  0.8927  0.7051
 7322TIP3    H243458   1.882   6.407   4.959  0.4947  3.5277 -1.4020
 7323TIP3   OH243459   6.835   1.085  11.518 -0.1253  0.2522 -0.4558
 7323TIP3    H143460   6.785   1.095  11.599 -1.4066 -0.2787 -1.1546
 7323TIP3    H243461   6.838   1.173  11.481  2.5314  1.0087  1.2817
 7324TIP3   OH243462   2.324   3.625   0.148  0.0562 -0.0971  0.5109
 7324TIP3    H143463   2.235   3.648   0.119 -1.1790 -4.9414 -0.4798
 7324TIP3    H243464   2.380   3.648   0.074 -0.8559  0.2448 -0.0983
 7325TIP3   OH243465   2.428   5.823   5.025  0.2339  0.5187  0.2671
 7325TIP3    H143466   2.483   5.746   5.016  0.6460  0.6981  1.0926
 7325TIP3    H243467   2.441   5.873   4.944  0.6470  0.1525  0.1067
 7326TIP3   OH243468   5.430   3.851   3.450 -0.0202  0.5099  0.3415
 7326TIP3    H143469   5.455   3.942   3.464 -0.0032  0.4518  0.7160
 7326TIP3    H243470   5.339   3.846   3.479  0.1699  0.2750  0.9155
 7327TIP3   OH243471   3.461   1.934   0.613 -0.3172 -0.3698 -0.8921
 7327TIP3    H143472   3.496   1.860   0.564  0.4243 -1.3159  0.9882
 7327TIP3    H243473   3.375   1.905   0.642 -1.5580  0.8768 -3.0756
 7328TIP3   OH243474   2.168   3.506   5.040  0.1586  0.2656 -0.3984
 7328TIP3    H143475   2.116   3.514   5.120 -3.0053 -1.2911 -2.1057
 7328TIP3    H243476   2.240   3.448   5.064 -1.3175 -1.0522  1.1136
 7329TIP3   OH243477   3.691   3.105  14.260 -0.2897  0.5781 -0.1287
 7329TIP3    H143478   3.597   3.126  14.267 -0.1166  1.2009  0.4100
 7329TIP3    H243479   3.718   3.145  14.178 -0.6952 -0.4157 -0.7697
 7330TIP3   OH243480   1.131   3.325  12.958 -0.0523  0.1984 -0.1429
 7330TIP3    H143481   1.075   3.399  12.935 -0.8554  0.2262  1.6858
 7330TIP3    H243482   1.220   3.361  12.956 -0.3597  0.9986 -0.0581
 7331TIP3   OH243483   6.649   6.332  10.534 -0.1866  0.2367  0.1279
 7331TIP3    H143484   6.639   6.405  10.473  0.5079  0.3767  0.1711
 7331TIP3    H243485   6.566   6.285  10.528  0.0908 -0.1338 -1.4207
 7332TIP3   OH243486   3.590   0.851   2.021 -0.7985  0.4262  0.1422
 7332TIP3    H143487   3.584   0.774   1.965 -1.1154  1.5769 -1.4892
 7332TIP3    H243488   3.536   0.830   2.098 -0.1092 -1.3013  0.1797
 7333TIP3   OH243489   1.507   3.755  12.400 -0.3636  0.3476 -0.7196
 7333TIP3    H143490   1.592   3.713  12.386 -0.5129 -0.4898  0.6908
 7333TIP3    H243491   1.529   3.848  12.412  0.5622 -0.0566  1.1207
 7334TIP3   OH243492   5.763   3.314   3.244  0.0414  0.1824  0.2767
 7334TIP3    H143493   5.806   3.322   3.329  0.3648 -0.4630  0.1824
 7334TIP3    H243494   5.805   3.380   3.189 -0.1146  0.5487  0.5930
 7335TIP3   OH243495   5.690   0.679   0.251  0.1640  0.3423  0.3110
 7335TIP3    H143496   5.619   0.742   0.240  1.2856  1.3413 -1.8763
 7335TIP3    H243497   5.668   0.608   0.192  0.1428 -0.1781  0.9327
 7336TIP3   OH243498   6.656   1.542   5.796  0.1716  0.5212 -0.0456
 7336TIP3    H143499   6.609   1.464   5.766  0.9450  0.6942 -1.8352
 7336TIP3    H243500   6.613   1.566   5.878 -3.1498  0.8451 -1.6961
 7337TIP3   OH243501   4.091   4.442  12.093 -0.0682 -0.5398 -0.1134
 7337TIP3    H143502   4.154   4.467  12.025 -1.0639  2.6711 -0.0155
 7337TIP3    H243503   4.014   4.411  12.044  0.3450 -1.2736 -0.3171
 7338TIP3   OH243504   1.265   1.618   1.293  0.2082 -0.5963  0.3817
 7338TIP3    H143505   1.223   1.649   1.372 -1.7709 -1.2505 -0.3591
 7338TIP3    H243506   1.319   1.544   1.322 -0.8585 -1.1208  1.0499
 7339TIP3   OH243507   3.241   1.525  14.547 -0.7233 -0.0430 -0.1199
 7339TIP3    H143508   3.240   1.499  14.455  1.5540  1.4309 -0.6545
 7339TIP3    H243509   3.163   1.579  14.558 -0.8410  0.0528 -1.2942
 7340TIP3   OH243510   3.534   1.641   5.659 -0.4358  0.2469  0.5173
 7340TIP3    H143511   3.611   1.607   5.613 -0.2976 -0.1330  1.0092
 7340TIP3    H243512   3.541   1.736   5.651  0.8907  0.3021  1.7805
 7341TIP3   OH243513   5.048   6.811  12.302 -0.2568  0.0943 -0.0197
 7341TIP3    H143514   4.996   6.861  12.239 -1.5480 -2.1258 -0.8423
 7341TIP3    H243515   5.130   6.791  12.257 -0.9077 -0.9159 -0.8077
 7342TIP3   OH243516   6.467   6.543  16.267  0.1302 -1.0754 -0.1680
 7342TIP3    H143517   6.467   6.633  16.299  2.5310 -1.1881  0.3019
 7342TIP3    H243518   6.448   6.551  16.173  1.5691  0.0773 -0.4008
 7343TIP3   OH243519   1.345   0.099  13.682  0.0949 -0.6006  0.1913
 7343TIP3    H143520   1.429   0.086  13.726  1.2475 -1.9296 -2.1814
 7343TIP3    H243521   1.361   0.171  13.620 -1.7244  1.8212  2.3011
 7344TIP3   OH243522   0.630   5.637  12.724  0.0410  0.2601  0.2460
 7344TIP3    H143523   0.637   5.633  12.629  1.2301  0.6509  0.3089
 7344TIP3    H243524   0.720   5.630  12.756 -0.5435 -4.1108  1.5509
 7345TIP3   OH243525   4.453   5.788   1.942  0.8617  0.2969  0.3852
 7345TIP3    H143526   4.504   5.822   1.868  1.3515 -0.2195  0.4779
 7345TIP3    H243527   4.386   5.855   1.958  0.3628  0.1265 -0.9094
 7346TIP3   OH243528   3.164   1.234  11.602  0.1419  0.4839  0.0938
 7346TIP3    H143529   3.077   1.263  11.573  0.1835 -0.4149 -0.9905
 7346TIP3    H243530   3.147   1.175  11.675 -0.2122 -0.1552 -0.4899
 7347TIP3   OH243531   1.794   0.206   4.664  0.0286 -0.3498  0.1773
 7347TIP3    H143532   1.729   0.244   4.605 -0.1094  0.3586  0.7793
 7347TIP3    H243533   1.805   0.270   4.734  1.7629 -0.1914 -0.1749
 7348TIP3   OH243534   6.829   3.528  14.821  0.3588 -0.2645  0.0241
 7348TIP3    H143535   6.810   3.525  14.728 -0.7471  0.0353  0.2228
 7348TIP3    H243536   6.856   3.439  14.843  2.6239  0.1130 -0.9472
 7349TIP3   OH243537   0.750   3.955  11.949  0.1794 -0.1902  0.3335
 7349TIP3    H143538   0.752   3.871  11.903  0.6002 -0.3640  0.6639
 7349TIP3    H243539   0.678   3.946  12.012 -0.4350  0.0690 -0.3237
 7350TIP3   OH243540   5.339   2.848  13.257  0.7006  0.3014  0.5817
 7350TIP3    H143541   5.315   2.938  13.279  0.8847 -0.0629  2.4376
 7350TIP3    H243542   5.434   2.850  13.249  0.6191  0.4673 -0.3949
 7351TIP3   OH243543   0.005   4.748   5.886  0.6638  0.5212 -0.0140
 7351TIP3    H143544  -0.075   4.795   5.863  0.4350 -0.1571 -0.6487
 7351TIP3    H243545   0.010   4.756   5.981 -1.3753 -1.2756  0.3342
 7352TIP3   OH243546   4.157   0.081  13.616 -0.3400  0.2864  0.0145
 7352TIP3    H143547   4.222   0.067  13.685  0.1217  2.0463 -0.0080
 7352TIP3    H243548   4.105   0.155  13.647 -0.4440  0.7873 -1.2817
 7353TIP3   OH243549   3.015   3.349  12.682 -0.7737 -0.0772  0.3614
 7353TIP3    H143550   3.028   3.340  12.587 -0.1038  3.5862 -0.0474
 7353TIP3    H243551   3.103   3.338  12.719 -0.9282 -0.8353  0.5306
 7354TIP3   OH243552   6.784   2.800  11.003 -0.2120  0.3007 -0.4299
 7354TIP3    H143553   6.804   2.881  11.049 -0.1486  0.7807 -1.2805
 7354TIP3    H243554   6.831   2.732  11.051  0.1226  0.8404  0.0096
 7355TIP3   OH243555   6.824   0.677   1.129  0.1195  0.3656  0.3721
 7355TIP3    H143556   6.853   0.673   1.038  0.5843  0.6541  0.5007
 7355TIP3    H243557   6.772   0.757   1.135 -1.5846 -0.6662 -0.0940
 7356TIP3   OH243558   5.482   0.455  12.297 -0.4586  0.3302  0.3463
 7356TIP3    H143559   5.392   0.425  12.287 -1.0004  1.1959  2.2098
 7356TIP3    H243560   5.514   0.410  12.374 -0.1977  1.9804  1.2460
 7357TIP3   OH243561   5.514   3.488  15.060  0.3789  0.0035 -0.4455
 7357TIP3    H143562   5.578   3.550  15.025  2.1885  0.0246  2.4842
 7357TIP3    H243563   5.499   3.518  15.150  0.1944 -2.9356  0.6162
 7358TIP3   OH243564   5.555   4.675   4.510  0.6706  0.0305 -0.1297
 7358TIP3    H143565   5.618   4.606   4.490 -1.7316 -2.5934  0.5817
 7358TIP3    H243566   5.473   4.644   4.471 -1.4000  0.5676  3.3865
 7359TIP3   OH243567   0.019   6.587  10.622  0.3177 -0.4627 -0.4949
 7359TIP3    H143568   0.097   6.605  10.569  1.3216 -1.2992  0.6545
 7359TIP3    H243569  -0.053   6.625  10.571  1.5229  0.8558 -1.3039
 7360TIP3   OH243570   2.855   1.430  16.049 -0.0954 -0.2411  0.4009
 7360TIP3    H143571   2.834   1.402  15.960  2.4054  0.4656 -0.5177
 7360TIP3    H243572   2.930   1.490  16.038  0.8278 -0.7688  3.0431
 7361TIP3   OH243573   2.314   3.257  14.319 -0.0943 -0.5859 -0.3071
 7361TIP3    H143574   2.313   3.351  14.299 -0.3922 -0.3763  0.6590
 7361TIP3    H243575   2.262   3.249  14.399 -3.0773 -2.0169 -2.2038
 7362TIP3   OH243576   4.475   6.726   5.314  0.2464  0.6533  0.2193
 7362TIP3    H143577   4.483   6.699   5.405  0.2955 -1.0170 -0.2390
 7362TIP3    H243578   4.392   6.774   5.310 -2.9289 -4.1673  0.1747
 7363TIP3   OH243579   4.591   4.331  10.729 -0.2637 -0.1978  0.1110
 7363TIP3    H143580   4.630   4.390  10.665  0.4942  1.7813  2.2319
 7363TIP3    H243581   4.591   4.382  10.810 -0.2951 -2.8876  1.9124
 7364TIP3   OH243582   6.358   3.241  14.704 -0.1039  0.6339 -0.1978
 7364TIP3    H143583   6.375   3.326  14.665 -0.7375  1.3835  1.0913
 7364TIP3    H243584   6.347   3.259  14.798  2.0184 -1.1560  0.5061
 7365TIP3   OH243585   2.912   0.085   0.921 -0.1034 -0.1045  0.4388
 7365TIP3    H143586   2.867   0.011   0.961  0.2040 -0.7623 -0.4191
 7365TIP3    H243587   2.997   0.088   0.964  0.7220 -1.5930 -0.9950
 7366TIP3   OH243588   6.317   0.630  15.340  0.0727  0.5400 -0.5791
 7366TIP3    H143589   6.336   0.556  15.398 -0.2970  1.0903  0.2644
 7366TIP3    H243590   6.396   0.683  15.342  1.5175 -1.2630 -3.5158
 7367TIP3   OH243591   2.228   2.998   3.551 -0.1727 -0.4770  0.3209
 7367TIP3    H143592   2.315   3.033   3.571  0.9593 -2.9385 -0.0469
 7367TIP3    H243593   2.244   2.910   3.519 -2.7849 -0.7559 -0.4183
 7368TIP3   OH243594   6.058   3.555   3.314  0.0095  0.2327 -0.3913
 7368TIP3    H143595   6.093   3.470   3.341 -0.9158  1.0051  4.0540
 7368TIP3    H243596   5.980   3.534   3.263  0.6146 -1.5388 -0.6621
 7369TIP3   OH243597   0.636   0.339  11.349 -0.1644 -0.0093 -0.4095
 7369TIP3    H143598   0.543   0.327  11.369 -0.5552 -0.6747 -2.3977
 7369TIP3    H243599   0.675   0.253  11.360  0.0524  0.0950 -0.3542
 7370TIP3   OH243600   1.612   2.009  13.296 -0.5590 -0.0201 -0.1246
 7370TIP3    H143601   1.594   1.916  13.289 -0.4413 -0.1684  1.2240
 7370TIP3    H243602   1.706   2.013  13.316 -0.7325  0.3295  0.6555
 7371TIP3   OH243603   5.788   5.957  15.537 -0.0807  0.1183  0.1886
 7371TIP3    H143604   5.806   6.051  15.536 -0.1908  0.1425  0.3825
 7371TIP3    H243605   5.859   5.920  15.590 -0.0453  0.0913  0.1240
 7372TIP3   OH243606   6.307   3.024   2.468  0.0696  0.4269 -0.4773
 7372TIP3    H143607   6.228   2.973   2.449 -0.4378  0.9739  0.1026
 7372TIP3    H243608   6.303   3.039   2.563  0.8774  0.4609 -0.4429
 7373TIP3   OH243609   6.707   0.213  16.484  0.3792 -0.0940 -0.3183
 7373TIP3    H143610   6.764   0.178  16.416  2.1702 -1.0683  1.5903
 7373TIP3    H243611   6.761   0.215  16.563 -1.6305  0.9095  1.1399
 7374TIP3   OH243612   2.363   4.358  14.588 -0.0280  0.2639  0.2143
 7374TIP3    H143613   2.363   4.396  14.500  0.4004 -0.1707  0.0210
 7374TIP3    H243614   2.456   4.346  14.609 -0.1434 -1.3351 -0.0282
 7375TIP3   OH243615   0.733   3.587  12.118 -0.0301  0.0248  0.0115
 7375TIP3    H143616   0.704   3.676  12.137  1.6731  1.0419 -1.8155
 7375TIP3    H243617   0.683   3.561  12.040  0.6323  0.0425 -0.4327
 7376TIP3   OH243618   6.375   3.033   4.614 -1.1246 -0.1464 -0.3400
 7376TIP3    H143619   6.463   3.035   4.651 -0.9526  0.2945 -0.7621
 7376TIP3    H243620   6.317   3.036   4.691 -0.7725  1.5436 -0.0937
 7377TIP3   OH243621   3.325   4.538   4.768  0.0982  0.4122  0.0197
 7377TIP3    H143622   3.357   4.562   4.681  1.0264 -2.6518 -0.6117
 7377TIP3    H243623   3.237   4.504   4.753  0.4426 -0.5873  0.1366
 7378TIP3   OH243624   4.773   5.742   1.971 -0.3223  0.8453 -0.1376
 7378TIP3    H143625   4.696   5.784   1.934 -1.1679  0.4919  1.1436
 7378TIP3    H243626   4.743   5.654   1.995  0.5672  0.5837  0.0477
 7379TIP3   OH243627   3.328   0.871   5.014 -0.5577 -0.0250  0.1637
 7379TIP3    H143628   3.380   0.823   5.078 -0.6019  0.4567  0.5738
 7379TIP3    H243629   3.286   0.940   5.065  1.0344  1.6781 -0.7214
 7380TIP3   OH243630   4.348   5.030   0.798 -0.1437  0.0040 -0.0180
 7380TIP3    H143631   4.310   5.118   0.794 -2.0184 -0.7742 -0.4527
 7380TIP3    H243632   4.434   5.042   0.837  0.4954  2.3140 -1.9333
 7381TIP3   OH243633   0.028   3.790   0.725 -0.3790 -0.0556 -0.0967
 7381TIP3    H143634  -0.057   3.760   0.691 -0.7746  1.2108 -0.2706
 7381TIP3    H243635   0.085   3.714   0.716 -1.6221 -1.0921  0.5009
 7382TIP3   OH243636   6.181   6.056  11.090  0.4348 -0.0026 -0.6112
 7382TIP3    H143637   6.153   6.144  11.116 -0.0758 -0.0739 -0.9122
 7382TIP3    H243638   6.184   6.058  10.995  0.9553 -0.1543 -0.6023
 7383TIP3   OH243639   5.058   0.049  11.019 -0.3018  0.0807 -0.0337
 7383TIP3    H143640   5.103   0.125  10.983 -0.7786 -0.3419 -1.6004
 7383TIP3    H243641   5.121   0.011  11.081  1.5759 -0.5364 -2.1943
 7384TIP3   OH243642   4.975   0.069  15.234  0.0840 -0.4856  0.2435
 7384TIP3    H143643   5.029   0.022  15.298 -0.4594  0.2168  1.2555
 7384TIP3    H243644   5.012   0.158  15.232 -0.1299 -0.4047 -0.1359
 7385TIP3   OH243645   2.620   1.434   3.581  0.5800 -0.4289  0.9789
 7385TIP3    H143646   2.673   1.488   3.523  1.9046 -1.1290  1.5103
 7385TIP3    H243647   2.582   1.495   3.643  0.9478  0.0561  0.7296
 7386TIP3   OH243648   3.402   2.537  16.250 -0.8858  0.0177 -0.4100
 7386TIP3    H143649   3.315   2.530  16.209  0.0269  1.0206 -2.7165
 7386TIP3    H243650   3.463   2.512  16.180  0.6733 -2.4002  1.6751
 7387TIP3   OH243651   2.791   2.154   1.388  0.0643  0.0675  0.3523
 7387TIP3    H143652   2.855   2.095   1.428  0.3714  0.3136  0.2300
 7387TIP3    H243653   2.722   2.096   1.355 -0.3286 -0.1302  1.4540
 7388TIP3   OH243654   6.653   2.106   1.601  0.6481 -0.1117  0.1924
 7388TIP3    H143655   6.713   2.160   1.652 -0.0727  0.7380  0.1641
 7388TIP3    H243656   6.668   2.132   1.510  0.3523 -0.0145  0.1708
 7389TIP3   OH243657   6.794   0.136   1.703 -0.1094  0.0024  0.2647
 7389TIP3    H143658   6.834   0.112   1.787 -0.4491 -1.1222  0.1220
 7389TIP3    H243659   6.868   0.169   1.650  0.2936 -0.2662  0.6535
 7390TIP3   OH243660   4.282   5.224   5.027  0.0826  0.0731 -0.1500
 7390TIP3    H143661   4.302   5.272   4.946 -0.7070  0.2693 -0.2386
 7390TIP3    H243662   4.282   5.132   5.000  0.6140  0.0865 -0.1980
 7391TIP3   OH243663   2.783   6.037   1.711 -0.6020 -0.0518 -0.0405
 7391TIP3    H143664   2.707   6.095   1.707  0.6740  1.6641 -0.3819
 7391TIP3    H243665   2.792   6.003   1.622 -0.4799  0.4043 -0.2035
 7392TIP3   OH243666   4.459   2.040  14.484  0.1525 -0.2768 -0.3526
 7392TIP3    H143667   4.483   1.948  14.488  0.5436 -0.2074 -1.0319
 7392TIP3    H243668   4.543   2.087  14.484 -0.0392  0.0695 -0.2659
 7393TIP3   OH243669   0.813   3.746  12.693 -0.0380 -0.3182  0.3733
 7393TIP3    H143670   0.764   3.802  12.633 -0.2312 -0.5139  0.3472
 7393TIP3    H243671   0.746   3.696  12.739  0.1413 -0.6573  0.2703
 7394TIP3   OH243672   2.954   3.804   1.806 -0.5092 -0.3074 -0.1761
 7394TIP3    H143673   3.028   3.745   1.807  0.5163  0.8536  2.5464
 7394TIP3    H243674   2.913   3.793   1.892 -2.3090  0.5104 -0.8688
 7395TIP3   OH243675   5.386   1.665  13.010  0.6774  0.0745  0.4459
 7395TIP3    H143676   5.383   1.569  13.014  0.4497 -0.0071 -1.1030
 7395TIP3    H243677   5.304   1.690  12.967  0.3293  1.0448  1.6068
 7396TIP3   OH243678   6.832   0.508  13.736 -0.0204 -0.0794  0.7267
 7396TIP3    H143679   6.759   0.498  13.797  1.1243 -1.4759  1.9650
 7396TIP3    H243680   6.824   0.598  13.703 -1.6083  0.1761  1.6886
 7397TIP3   OH243681   0.774   6.166  14.872 -0.3228 -0.2192  0.2903
 7397TIP3    H143682   0.816   6.248  14.846  0.4498 -0.7283 -0.1048
 7397TIP3    H243683   0.681   6.179  14.853 -0.2337  0.6247  0.3952
 7398TIP3   OH243684   0.983   0.828   5.727  0.2793 -0.1331 -0.1772
 7398TIP3    H143685   0.987   0.909   5.779 -1.2752 -0.5272  0.6167
 7398TIP3    H243686   0.940   0.854   5.645 -0.5584 -0.1976  0.2275
 7399TIP3   OH243687   3.235   4.503  15.456  0.7824  0.3107 -0.4241
 7399TIP3    H143688   3.218   4.411  15.477  1.2858  0.1671 -0.6313
 7399TIP3    H243689   3.154   4.549  15.482  0.0025 -0.3696 -1.5551
 7400TIP3   OH243690   1.296   0.046   4.364 -0.4166 -0.5312  0.4483
 7400TIP3    H143691   1.297   0.113   4.432 -1.3907 -0.7660  0.7112
 7400TIP3    H243692   1.253  -0.029   4.405  0.6352 -1.3193  0.1516
 7401TIP3   OH243693   1.899   4.338   2.561 -0.2490 -0.4561  0.2262
 7401TIP3    H143694   1.836   4.394   2.516  0.3431 -0.9539 -1.2817
 7401TIP3    H243695   1.845   4.278   2.614 -0.9994 -0.2929 -0.3385
 7402TIP3   OH243696   6.369   3.466   0.566  0.0489 -0.2623 -0.1731
 7402TIP3    H143697   6.437   3.401   0.548  0.1000 -0.0229 -0.8799
 7402TIP3    H243698   6.402   3.546   0.525  0.0332  0.2379  0.7679
 7403TIP3   OH243699   2.332   2.254  10.446  0.9976 -0.7429  0.3113
 7403TIP3    H143700   2.273   2.207  10.387 -1.5430  0.1998  1.9661
 7403TIP3    H243701   2.420   2.235  10.411 -0.2275 -1.9676 -2.4437
 7404TIP3   OH243702   1.342   6.777   0.719  0.1861 -0.3507  0.0674
 7404TIP3    H143703   1.364   6.684   0.729 -1.7310 -0.7745  0.7301
 7404TIP3    H243704   1.417   6.814   0.673  0.5206 -2.4518 -1.2325
 7405TIP3   OH243705   5.814   4.462   5.018  0.0756 -0.5989  0.0639
 7405TIP3    H143706   5.830   4.411   4.938 -1.7517 -0.4321 -0.4387
 7405TIP3    H243707   5.745   4.524   4.994  1.1276  1.0629  1.1201
 7406TIP3   OH243708   1.193   1.738   5.327 -0.3021 -0.3472  0.0766
 7406TIP3    H143709   1.169   1.699   5.411 -0.1175  1.3917  0.9916
 7406TIP3    H243710   1.112   1.780   5.296 -0.1912 -0.3822 -0.2686
 7407TIP3   OH243711   0.745   1.861   2.056  0.0030 -0.3775 -0.9099
 7407TIP3    H143712   0.826   1.854   2.107  0.2302 -1.6106 -1.4141
 7407TIP3    H243713   0.735   1.775   2.014 -2.0250 -0.5620 -0.1700
 7408TIP3   OH243714   6.620   4.609  10.555 -0.2818 -0.3683  0.3751
 7408TIP3    H143715   6.623   4.665  10.633  1.0265 -0.3376  0.3241
 7408TIP3    H243716   6.539   4.559  10.565 -2.4546  2.7040 -0.4282
 7409TIP3   OH243717   6.455   4.908  16.564  0.1913 -0.1646  0.1662
 7409TIP3    H143718   6.540   4.941  16.592  1.6443 -2.4694 -1.1356
 7409TIP3    H243719   6.465   4.813  16.565 -2.2053 -0.4971 -0.5445
 7410TIP3   OH243720   0.686   4.593  12.964  0.3569 -0.1045 -0.2205
 7410TIP3    H143721   0.648   4.592  12.876  2.8173  0.3473 -1.3652
 7410TIP3    H243722   0.724   4.506  12.975 -0.3954 -0.3429  0.6637
 7411TIP3   OH243723   0.407   4.343   3.614 -0.4633 -0.4834 -0.2469
 7411TIP3    H143724   0.409   4.250   3.635  1.2736 -0.3313  0.4169
 7411TIP3    H243725   0.321   4.357   3.575 -0.9773 -2.2421  0.1788
 7412TIP3   OH243726   4.800   5.026   3.446 -0.1602 -0.1039  0.3417
 7412TIP3    H143727   4.714   4.991   3.427 -0.1559  0.0042  0.1254
 7412TIP3    H243728   4.857   4.990   3.378  0.0789 -0.6237  0.8026
 7413TIP3   OH243729   0.124   4.429   4.743  0.1727  0.0076  0.1471
 7413TIP3    H143730   0.070   4.468   4.811  0.2323  0.7339 -0.2146
 7413TIP3    H243731   0.116   4.489   4.669 -1.0951 -1.5168 -1.0208
 7414TIP3   OH243732   2.763   5.491  13.325  0.4455 -0.3994 -0.2808
 7414TIP3    H143733   2.765   5.418  13.262  0.0181 -0.6929  0.0385
 7414TIP3    H243734   2.676   5.529  13.315  1.1000  0.9072 -1.3669
 7415TIP3   OH243735   6.682   4.120  12.424  0.5226 -0.2042 -0.0712
 7415TIP3    H143736   6.725   4.203  12.404  0.0911  0.2295  0.7703
 7415TIP3    H243737   6.590   4.135  12.402  0.2036 -0.0184  1.3261
 7416TIP3   OH243738   2.190   1.140   6.262  0.0268 -0.5704  0.6819
 7416TIP3    H143739   2.205   1.229   6.229  0.1938 -0.2188  1.6949
 7416TIP3    H243740   2.095   1.132   6.265  0.0122 -0.3647  0.7655
 7417TIP3   OH243741   6.713   3.671  11.526 -0.1711  0.0987  0.1822
 7417TIP3    H143742   6.666   3.664  11.609 -0.6439  1.2670  0.0237
 7417TIP3    H243743   6.800   3.638  11.546 -1.1457 -2.6836  0.3516
 7418TIP3   OH243744   4.683   0.261  14.469  0.1274  0.1530 -0.1390
 7418TIP3    H143745   4.640   0.240  14.386 -0.0608  0.1563 -0.0429
 7418TIP3    H243746   4.775   0.240  14.454 -0.1906 -1.7160  0.2882
 7419TIP3   OH243747   5.905   5.721  16.716 -0.0871  0.6457  0.2703
 7419TIP3    H143748   5.898   5.626  16.713  0.6254  0.5866  0.3959
 7419TIP3    H243749   5.816   5.752  16.698 -0.1578 -0.0185 -0.5824
 7420TIP3   OH243750   0.641   3.594  12.854 -0.0613 -0.2303  0.3751
 7420TIP3    H143751   0.605   3.624  12.937 -2.3446  2.0737 -1.2851
 7420TIP3    H243752   0.612   3.503  12.847  0.2830 -0.5129  2.0787
 7421TIP3   OH243753   3.459   1.195   6.351 -0.3484 -0.1581 -0.5718
 7421TIP3    H143754   3.467   1.104   6.379  2.3825 -0.5657 -2.2964
 7421TIP3    H243755   3.370   1.201   6.315 -1.2786 -1.5580  1.3164
 7422TIP3   OH243756   5.172   5.452  11.384  0.5110  0.7907 -0.6650
 7422TIP3    H143757   5.205   5.516  11.322 -0.0562  1.0594 -0.6984
 7422TIP3    H243758   5.183   5.368  11.339  1.2746  0.8607 -0.6104
 7423TIP3   OH243759   1.584   2.701  16.024 -0.0665  0.0671 -0.1930
 7423TIP3    H143760   1.669   2.744  16.033 -0.4842  0.7134  0.8152
 7423TIP3    H243761   1.540   2.749  15.954 -0.3671  1.0332  0.6385
 7424TIP3   OH243762   2.887   6.037  11.254 -0.4214 -0.3656  0.1800
 7424TIP3    H143763   2.967   6.023  11.305 -1.3657  0.7763  2.0810
 7424TIP3    H243764   2.915   6.027  11.163  1.8630 -0.1495  0.7964
 7425TIP3   OH243765   6.404   1.801   4.091 -0.6018 -0.1062 -0.4362
 7425TIP3    H143766   6.342   1.786   4.020  0.1130 -1.3075 -0.8418
 7425TIP3    H243767   6.452   1.880   4.065 -0.6900 -0.2481 -1.0515
 7426TIP3   OH243768   6.510   4.913   3.343  0.2462 -0.4950  0.4647
 7426TIP3    H143769   6.539   4.836   3.391  0.3814  0.5731  2.1490
 7426TIP3    H243770   6.493   4.979   3.410  0.5445  1.0880 -0.9502
 7427TIP3   OH243771   5.118   4.855   4.444  0.0025 -0.3383  0.3093
 7427TIP3    H143772   5.054   4.901   4.388 -1.5714 -1.9534  0.7057
 7427TIP3    H243773   5.089   4.874   4.533  0.8389 -0.0945  0.5415
 7428TIP3   OH243774   2.533   2.647  15.037  0.3085 -0.3453  0.1906
 7428TIP3    H143775   2.464   2.712  15.047 -0.3249 -1.1037  0.8967
 7428TIP3    H243776   2.608   2.696  15.005 -0.5068  0.5263 -0.4363
 7429TIP3   OH243777   4.298   5.926   4.534 -0.5129 -0.3867  0.3369
 7429TIP3    H143778   4.284   5.992   4.466 -0.4102 -2.7444 -2.1230
 7429TIP3    H243779   4.238   5.855   4.513  1.4623 -2.3973  1.0298
 7430TIP3   OH243780   3.416   4.147   4.773  0.5688  0.1406  0.0872
 7430TIP3    H143781   3.464   4.229   4.783  0.0780  0.4656 -0.1746
 7430TIP3    H243782   3.325   4.171   4.792  0.1767 -0.0135 -1.4819
 7431TIP3   OH243783   0.990   2.138   0.567  0.4056  0.7163 -0.2378
 7431TIP3    H143784   1.038   2.055   0.571  0.1216  0.5832  1.8073
 7431TIP3    H243785   0.900   2.112   0.551 -0.0497  0.3663  2.3542
 7432TIP3   OH243786   5.257   4.120   5.394 -0.7000  0.1708  0.2500
 7432TIP3    H143787   5.284   4.113   5.303 -0.2519 -0.4917  0.4253
 7432TIP3    H243788   5.166   4.092   5.394  0.0124 -2.3586  0.3673
 7433TIP3   OH243789   0.356   3.870   0.366  0.6001 -0.4225  0.1174
 7433TIP3    H143790   0.424   3.818   0.409 -0.0852 -0.9361  0.5982
 7433TIP3    H243791   0.337   3.941   0.428 -0.5694 -1.3077  0.8207
 7434TIP3   OH243792   3.898   2.381   0.054  0.0575 -0.8057  0.4008
 7434TIP3    H143793   3.918   2.297   0.014  4.1052  0.5072 -0.8270
 7434TIP3    H243794   3.903   2.365   0.148  1.7380 -1.8205  0.1795
 7435TIP3   OH243795   1.371   5.308   3.516 -0.6270 -0.2536 -0.3590
 7435TIP3    H143796   1.398   5.391   3.555 -1.4504 -0.2294  0.1797
 7435TIP3    H243797   1.345   5.329   3.427  0.5205 -0.1800 -0.7032
 7436TIP3   OH243798   0.727   6.672   3.904 -0.1736 -0.0290 -0.3082
 7436TIP3    H143799   0.813   6.632   3.887 -0.2340 -0.3929  0.2228
 7436TIP3    H243800   0.746   6.744   3.964 -0.3041 -0.4479  0.2424
 7437TIP3   OH243801   3.219   1.469  15.726  0.4746 -0.1065  0.6153
 7437TIP3    H143802   3.263   1.551  15.703 -0.5693  0.7967  1.6544
 7437TIP3    H243803   3.281   1.400  15.702  1.1076  0.9451 -0.9159
 7438TIP3   OH243804   3.813   1.206   2.353 -0.3650  0.1060 -0.3222
 7438TIP3    H143805   3.795   1.126   2.303  1.4275  0.7402 -2.1024
 7438TIP3    H243806   3.861   1.176   2.430 -0.7095 -0.6308 -0.3870
 7439TIP3   OH243807   3.504   5.297  10.190  0.5533 -0.4994  0.3186
 7439TIP3    H143808   3.423   5.342  10.168  0.8075  0.2674  0.8886
 7439TIP3    H243809   3.476   5.214  10.231  0.0856 -0.9446 -0.8715
 7440TIP3   OH243810   5.461   3.658  13.859  0.5570 -0.9820 -0.4101
 7440TIP3    H143811   5.456   3.714  13.781  1.1362 -1.1294 -0.5581
 7440TIP3    H243812   5.536   3.600  13.842 -0.2144 -2.0104 -0.3893
 7441TIP3   OH243813   4.574   5.842  13.582  0.1934  0.5070  0.1649
 7441TIP3    H143814   4.626   5.897  13.641  1.5710  0.7153 -1.1775
 7441TIP3    H243815   4.564   5.760  13.630  1.4425  0.6044  0.6331
 7442TIP3   OH243816   5.291   5.039   0.686  0.2916 -0.2747 -0.6794
 7442TIP3    H143817   5.341   5.081   0.756  0.9248 -0.2271 -1.1492
 7442TIP3    H243818   5.341   5.057   0.607  0.5397 -1.8180 -0.9088
 7443TIP3   OH243819   0.162   4.550  13.101  0.2761  0.4274  0.1875
 7443TIP3    H143820   0.206   4.514  13.024  1.1111  1.4062  0.1817
 7443TIP3    H243821   0.169   4.645  13.090  1.4086  0.6063  2.0052
 7444TIP3   OH243822   0.065   6.523   4.423  0.2211 -0.0088 -0.0428
 7444TIP3    H143823   0.022   6.479   4.496 -0.1722  1.5547  0.6998
 7444TIP3    H243824   0.107   6.599   4.462  2.3330 -0.5916 -1.0139
 7445TIP3   OH243825   5.214   6.628  16.337 -0.1375  0.1966 -0.2472
 7445TIP3    H143826   5.308   6.616  16.326  0.2885 -1.2185  3.4980
 7445TIP3    H243827   5.202   6.722  16.346  0.9636  0.3624 -0.4449
 7446TIP3   OH243828   6.294   6.437  15.290  0.7239  0.2484 -0.2011
 7446TIP3    H143829   6.298   6.371  15.360  1.7031  0.7389  0.2144
 7446TIP3    H243830   6.380   6.434  15.249 -0.0421 -0.5273 -1.8800
 7447TIP3   OH243831   3.156   1.901   2.138 -0.3247  0.6794 -0.2476
 7447TIP3    H143832   3.087   1.840   2.166 -0.3047  0.8473  0.1840
 7447TIP3    H243833   3.211   1.849   2.080  0.8488 -0.3487  1.6601
 7448TIP3   OH243834   2.717   6.051   0.011 -0.1124 -0.5389  0.8008
 7448TIP3    H143835   2.658   6.101  -0.044  0.1104 -1.3252 -0.1959
 7448TIP3    H243836   2.671   5.969   0.028  1.5940 -2.2868 -2.1477
 7449TIP3   OH243837   4.958   2.727  16.179  0.0004  0.7894  0.1991
 7449TIP3    H143838   4.929   2.779  16.103 -0.4475  0.0324 -0.1591
 7449TIP3    H243839   4.876   2.699  16.220  0.2456  0.5035  0.4883
 7450TIP3   OH243840   6.605   0.729   1.438  0.2358 -0.0679 -0.2780
 7450TIP3    H143841   6.577   0.820   1.434 -1.1988 -0.4582  0.2560
 7450TIP3    H243842   6.525   0.680   1.458  0.9392 -1.4665 -0.7500
 7451TIP3   OH243843   2.415   3.361   4.676  0.1909 -0.0480  0.0668
 7451TIP3    H143844   2.344   3.306   4.707  0.4185 -1.5070 -1.8092
 7451TIP3    H243845   2.439   3.415   4.751 -2.7483  0.3849  0.7954
 7452TIP3   OH243846   5.246   3.614  14.035  0.0829  0.0180  0.2364
 7452TIP3    H143847   5.329   3.607  13.988  0.7024 -0.3324  1.3366
 7452TIP3    H243848   5.204   3.529  14.023  0.9338 -0.6247  1.5124
 7453TIP3   OH243849   1.663   3.416  17.065 -0.6943  0.1319 -0.9625
 7453TIP3    H143850   1.697   3.417  17.154 -1.0281  0.8002 -0.8310
 7453TIP3    H243851   1.734   3.453  17.012 -1.0822  1.2456 -0.7323
 7454TIP3   OH243852   3.186   6.080  14.280  0.4084  0.5819 -0.6097
 7454TIP3    H143853   3.279   6.063  14.267  0.5381  2.5404 -2.7918
 7454TIP3    H243854   3.151   6.094  14.192 -1.5406  1.8460  0.2909
 7455TIP3   OH243855   4.664   4.983   4.338  0.3587 -0.5099  0.6654
 7455TIP3    H143856   4.596   5.045   4.313 -0.1665 -1.0282  0.7884
 7455TIP3    H243857   4.690   5.011   4.426  0.3380 -0.2842  0.6002
 7456TIP3   OH243858   1.943   2.065  15.967 -0.1273 -0.5637  0.2968
 7456TIP3    H143859   1.872   2.024  15.918 -0.2217  0.0283 -0.0675
 7456TIP3    H243860   2.012   2.078  15.902 -0.0327 -0.3041  0.4495
 7457TIP3   OH243861   0.314   1.696  15.084 -0.2716 -0.1762  0.3864
 7457TIP3    H143862   0.237   1.742  15.118  0.0718 -0.5300  1.6784
 7457TIP3    H243863   0.286   1.605  15.077 -0.1730 -0.1933  0.2273
 7458TIP3   OH243864   1.209   6.455  12.802 -0.1272  0.1255  0.0721
 7458TIP3    H143865   1.252   6.539  12.821 -1.8719  1.0847  0.0415
 7458TIP3    H243866   1.209   6.409  12.885  0.6945  0.2204  0.1349
 7459TIP3   OH243867   0.555   6.758  13.188 -0.9763  0.0970  0.0931
 7459TIP3    H143868   0.570   6.845  13.151 -1.3461 -0.2654 -0.9531
 7459TIP3    H243869   0.461   6.743  13.179 -0.6517 -1.2062 -1.6396
 7460TIP3   OH243870   2.277   2.922   3.095  0.1174  0.4869 -0.3130
 7460TIP3    H143871   2.213   2.853   3.111 -0.0003  0.3938 -1.1666
 7460TIP3    H243872   2.295   2.918   3.001  2.9016 -0.8603  0.1595
 7461TIP3   OH243873   0.867   1.001  10.537 -0.8914 -0.2418  0.0701
 7461TIP3    H143874   0.794   0.939  10.534 -2.3927  1.2278  2.5083
 7461TIP3    H243875   0.868   1.031  10.628  0.8945  1.9926 -0.6095
 7462TIP3   OH243876   3.280   2.939  10.788  0.2938  0.2068 -0.2275
 7462TIP3    H143877   3.281   3.033  10.773 -0.5075  0.4003  0.7410
 7462TIP3    H243878   3.190   2.913  10.767  0.2363 -0.1535  0.4256
 7463TIP3   OH243879   5.195   3.184   3.667 -0.1435  0.2309  0.8726
 7463TIP3    H143880   5.239   3.117   3.615 -0.8265  0.0954  0.4550
 7463TIP3    H243881   5.141   3.135   3.729  0.1961  0.3943  1.3024
 7464TIP3   OH243882   6.060   2.486  13.883  0.6067 -0.2145 -0.3302
 7464TIP3    H143883   5.991   2.426  13.910 -0.2684  0.7551 -0.3761
 7464TIP3    H243884   6.132   2.469  13.944 -0.3376  0.0305  0.8769
 7465TIP3   OH243885   2.158   6.143  14.667  0.6081  0.0370 -0.1111
 7465TIP3    H143886   2.141   6.104  14.581  1.2609  0.3468 -0.3869
 7465TIP3    H243887   2.164   6.068  14.726 -2.5165 -0.1171  0.2104
 7466TIP3   OH243888   1.763   6.479  15.208  0.0826 -0.2169  0.2340
 7466TIP3    H143889   1.777   6.569  15.179  0.9518 -0.2386  0.5459
 7466TIP3    H243890   1.832   6.464  15.273 -0.1180 -1.0708  0.2630
 7467TIP3   OH243891   1.061   2.909   2.899 -0.1163 -0.1088  0.3312
 7467TIP3    H143892   1.063   2.814   2.915  0.6391  0.1091  1.6313
 7467TIP3    H243893   0.968   2.931   2.902 -0.2104 -0.6005  1.3749
 7468TIP3   OH243894   5.696   0.380   1.049 -0.2388 -0.2801 -0.3185
 7468TIP3    H143895   5.778   0.345   1.084  0.4657  1.1306 -0.4565
 7468TIP3    H243896   5.653   0.305   1.008 -0.1076 -1.5290  1.7284
 7469TIP3   OH243897   5.527   6.238  16.987 -0.0422  0.3130  0.2242
 7469TIP3    H143898   5.607   6.230  17.039 -0.6514 -0.2368  1.1160
 7469TIP3    H243899   5.505   6.148  16.963  0.1456  0.5490 -0.8769
 7470TIP3   OH243900   5.924   0.493  12.065 -0.1682 -0.1772  0.2577
 7470TIP3    H143901   5.906   0.442  11.986  0.7397 -0.7018  0.3823
 7470TIP3    H243902   5.931   0.583  12.035  0.9478 -0.4721 -0.3856
 7471TIP3   OH243903   6.184   0.873  17.028  0.1801 -0.0460  0.0792
 7471TIP3    H143904   6.133   0.933  17.082  2.3876  0.1689  2.1346
 7471TIP3    H243905   6.188   0.915  16.942 -0.1764  1.6745  0.8524
 7472TIP3   OH243906   4.111   5.215  10.609 -0.0703 -0.2813  0.0334
 7472TIP3    H143907   4.082   5.298  10.572  0.2592 -0.4763 -0.6689
 7472TIP3    H243908   4.104   5.152  10.538  1.2385 -0.5101  0.0710
 7473TIP3   OH243909   3.978   4.724   2.894 -0.0398  0.2179 -0.0297
 7473TIP3    H143910   4.008   4.761   2.811 -0.1731  0.2897 -0.0466
 7473TIP3    H243911   3.972   4.630   2.878 -0.4816  0.2804 -0.2304
 7474TIP3   OH243912   6.437   3.712   3.248  0.7234  0.6398  0.5988
 7474TIP3    H143913   6.408   3.625   3.275 -0.0561  0.0504 -1.8615
 7474TIP3    H243914   6.422   3.767   3.324 -0.4447 -1.0252  1.6500
 7475TIP3   OH243915   1.733   3.175   4.218 -0.1644  0.2952  0.7565
 7475TIP3    H143916   1.685   3.139   4.293 -2.5086 -1.3227 -1.3260
 7475TIP3    H243917   1.767   3.098   4.172  1.3329  1.2505  0.2002
 7476TIP3   OH243918   3.959   2.776   2.546  0.3065  0.7570  0.6290
 7476TIP3    H143919   4.049   2.768   2.579 -0.0735 -1.4470  1.2848
 7476TIP3    H243920   3.908   2.804   2.621  0.2960  1.1498  0.4785
 7477TIP3   OH243921   4.397   2.716  11.774 -0.0499 -0.4997 -0.8536
 7477TIP3    H143922   4.359   2.756  11.697 -0.7844 -0.2794 -0.3867
 7477TIP3    H243923   4.482   2.759  11.785 -1.3951  2.0539  0.4700
 7478TIP3   OH243924   4.426   0.855  16.844  0.1596 -0.5981  0.4903
 7478TIP3    H143925   4.514   0.818  16.852  0.2081 -0.4271  0.7375
 7478TIP3    H243926   4.384   0.836  16.927  0.9550  1.9128  1.5582
 7479TIP3   OH243927   0.350   2.391   2.127  0.3333  0.2704  0.1801
 7479TIP3    H143928   0.444   2.376   2.117  0.0635 -0.8553 -0.9577
 7479TIP3    H243929   0.310   2.308   2.101 -0.9707  0.6327  0.9546
 7480TIP3   OH243930   4.781   3.503  17.081  0.3205 -0.2114  0.3095
 7480TIP3    H143931   4.794   3.596  17.060 -1.1331 -0.1221 -0.3287
 7480TIP3    H243932   4.865   3.462  17.062 -0.1692  0.2439 -3.7995
 7481TIP3   OH243933   4.773   0.633  14.831 -0.7554 -0.3181  0.0199
 7481TIP3    H143934   4.736   0.557  14.785  1.5086 -2.0735  0.8973
 7481TIP3    H243935   4.867   0.629  14.812 -0.2178  0.7761  2.1395
 7482TIP3   OH243936   6.010   2.945   5.118  0.3976 -0.7905  0.5976
 7482TIP3    H143937   5.975   2.976   5.035 -3.0636  1.6230  2.7114
 7482TIP3    H243938   5.960   2.866   5.138  0.2351 -0.5861  1.0086
 7483TIP3   OH243939   4.003   3.335  11.406 -1.5487 -0.1661 -0.0488
 7483TIP3    H143940   3.953   3.259  11.438 -1.9238  0.8354  1.9351
 7483TIP3    H243941   3.936   3.396  11.376 -1.2117 -0.9040 -2.5042
 7484TIP3   OH243942   3.653   4.907  12.085 -0.1035  0.5641 -0.3447
 7484TIP3    H143943   3.728   4.847  12.090 -2.0500 -2.1829 -1.5382
 7484TIP3    H243944   3.595   4.867  12.020 -2.6391  2.5334  0.5478
 7485TIP3   OH243945   0.089   5.955   0.100  0.7426 -0.0608  0.0597
 7485TIP3    H143946   0.084   5.886   0.034  1.9386 -0.7219  0.6321
 7485TIP3    H243947   0.182   5.959   0.124  0.4710  0.7775  1.0552
 7486TIP3   OH243948   4.955   3.195  16.763 -0.2051  0.7348 -0.0151
 7486TIP3    H143949   4.991   3.279  16.736  0.1352  0.6870  0.2845
 7486TIP3    H243950   5.030   3.144  16.792 -0.3647  0.1895 -0.5427
 7487TIP3   OH243951   1.199   3.414  14.258  0.5375 -0.6920  0.2509
 7487TIP3    H143952   1.273   3.471  14.280  1.8387 -1.8477 -0.9184
 7487TIP3    H243953   1.129   3.441  14.318  1.1648  1.9407 -0.1107
 7488TIP3   OH243954   4.160   2.168  13.328 -0.6639  0.3821 -0.3970
 7488TIP3    H143955   4.082   2.218  13.352 -1.0253  0.1127 -0.9769
 7488TIP3    H243956   4.129   2.107  13.261  0.2840  1.0686 -1.4930
 7489TIP3   OH243957   0.788   2.951   0.989  0.2461  0.1977 -0.7543
 7489TIP3    H143958   0.859   2.915   1.044 -0.1024 -0.4410 -0.7161
 7489TIP3    H243959   0.772   2.884   0.923  1.0662  1.2118 -2.0336
 7490TIP3   OH243960   4.732   1.373   4.807  0.0711  0.3710 -0.5835
 7490TIP3    H143961   4.726   1.456   4.856 -0.2611  0.9489 -1.5786
 7490TIP3    H243962   4.693   1.393   4.722 -0.2798 -0.9071 -0.7292
 7491TIP3   OH243963   4.415   1.389  11.222 -0.0855 -0.1879 -0.4995
 7491TIP3    H143964   4.325   1.406  11.195 -0.0018  1.8177  0.2981
 7491TIP3    H243965   4.444   1.472  11.261  3.0406  0.2287 -3.2878
 7492TIP3   OH243966   4.985   1.722  14.460  0.3123 -0.5058 -0.5542
 7492TIP3    H143967   4.925   1.704  14.388  0.1301 -0.9777 -0.2911
 7492TIP3    H243968   4.950   1.802  14.501 -0.3556 -0.9727 -0.1840
 7493TIP3   OH243969   3.156   4.095  14.366 -0.1367 -0.5879  0.5927
 7493TIP3    H143970   3.193   4.175  14.404  1.3940 -0.9813  0.0074
 7493TIP3    H243971   3.111   4.052  14.439 -1.2447  0.9315  0.8444
 7494TIP3   OH243972   1.871   1.089  12.150 -0.5916 -0.0860  0.2666
 7494TIP3    H143973   1.778   1.069  12.157 -0.9483  0.8273 -1.2613
 7494TIP3    H243974   1.876   1.157  12.083  1.1082  0.4667  0.8805
 7495TIP3   OH243975   0.426   5.587  17.134  0.2536  0.8667 -0.1128
 7495TIP3    H143976   0.419   5.499  17.170 -0.2019  0.5571 -0.9293
 7495TIP3    H243977   0.383   5.582  17.049 -1.1064  2.2258  0.4393
 7496TIP3   OH243978   6.729   1.586  14.275  0.6158  0.0413 -0.6743
 7496TIP3    H143979   6.724   1.569  14.369  1.6689 -0.5972 -0.7127
 7496TIP3    H243980   6.740   1.681  14.268  0.2467  0.1224 -0.1688
 7497TIP3   OH243981   0.575   6.430  12.954  0.3680 -0.3212 -0.2641
 7497TIP3    H143982   0.627   6.446  12.875 -1.5405 -1.4612 -1.8668
 7497TIP3    H243983   0.510   6.500  12.954  1.5805  0.8984  1.5307
 7498TIP3   OH243984   2.459   3.040  13.211 -0.0424  0.0954  0.4463
 7498TIP3    H143985   2.448   3.094  13.289 -3.3203  0.2785 -0.0199
 7498TIP3    H243986   2.371   3.027  13.177  1.1959 -0.2171 -3.1109
 7499TIP3   OH243987   4.792   5.388  11.721 -1.4642 -0.4489 -0.1614
 7499TIP3    H143988   4.882   5.395  11.690 -1.9885 -0.7023 -1.8095
 7499TIP3    H243989   4.746   5.461  11.679 -2.2150 -0.8287 -0.0176
 7500TIP3   OH243990   6.084   5.890  11.282  0.1884 -0.1974  0.6210
 7500TIP3    H143991   6.133   5.948  11.223 -1.7326 -0.4892 -1.4054
 7500TIP3    H243992   6.148   5.824  11.310  1.3835  0.4718 -0.4208
 7501TIP3   OH243993   2.809   6.405  13.802 -0.1719 -0.2706  0.8379
 7501TIP3    H143994   2.735   6.452  13.841 -1.1087 -1.2623  0.2958
 7501TIP3    H243995   2.824   6.331  13.860  0.6772  0.1222  1.1546
 7502TIP3   OH243996   1.875   3.928   4.053  0.1853 -0.1977  0.0519
 7502TIP3    H143997   1.876   3.971   4.138  0.3038  0.7436 -0.4059
 7502TIP3    H243998   1.920   3.990   3.995 -1.4967  0.0195 -1.0807
 7503TIP3   OH243999   0.220   0.822  13.855 -0.6807  0.1951  0.2056
 7503TIP3    H144000   0.276   0.775  13.917 -1.6823 -1.3686 -0.0148
 7503TIP3    H244001   0.264   0.814  13.771 -0.4107  0.4304  0.3229
 7504TIP3   OH244002   4.792   2.037  13.944  0.0263  0.0676  0.8129
 7504TIP3    H144003   4.770   2.129  13.955  2.3168  0.7119  0.4763
 7504TIP3    H244004   4.883   2.037  13.914 -0.7423 -2.1887 -1.9721
 7505TIP3   OH244005   4.467   0.613   3.863 -0.1679  0.1001 -0.0643
 7505TIP3    H144006   4.485   0.638   3.954 -0.2347 -0.9977  0.2684
 7505TIP3    H244007   4.550   0.630   3.818  0.2902 -0.5975  0.4904
 7506TIP3   OH244008   4.683   5.473   3.157 -0.2635  0.1096 -0.2031
 7506TIP3    H144009   4.710   5.555   3.199 -1.0850  0.4568 -0.3278
 7506TIP3    H244010   4.660   5.416   3.231  1.4394 -0.4388 -0.0656
 7507TIP3   OH244011   5.431   1.168   2.117 -0.3861  0.5060 -0.1180
 7507TIP3    H144012   5.491   1.218   2.173  0.2940  0.5051 -0.8212
 7507TIP3    H244013   5.362   1.230   2.093  1.2433  1.6618 -2.2325
 7508TIP3   OH244014   2.705   6.526   2.182 -0.4002 -0.5086 -0.6511
 7508TIP3    H144015   2.639   6.477   2.132 -0.2563 -0.9506 -0.4138
 7508TIP3    H244016   2.771   6.551   2.118 -1.0883  0.4602 -1.0089
 7509TIP3   OH244017   3.307   2.626  14.525  0.4498  0.1960  0.2748
 7509TIP3    H144018   3.357   2.562  14.474  0.1625  0.8479 -0.8586
 7509TIP3    H244019   3.281   2.578  14.604 -1.4086 -1.7635 -1.3889
 7510TIP3   OH244020   0.750   3.886  11.633 -0.1812 -0.1822  0.1905
 7510TIP3    H144021   0.662   3.923  11.623 -0.2952 -0.9372 -2.9668
 7510TIP3    H244022   0.738   3.811  11.691 -1.6583 -0.2883 -0.2119
 7511TIP3   OH244023   2.789   2.445   0.963  0.2764 -0.1569  0.4997
 7511TIP3    H144024   2.700   2.442   0.928  1.0590 -1.2524 -1.5810
 7511TIP3    H244025   2.797   2.367   1.017  0.3604 -0.7441 -0.3546
 7512TIP3   OH244026   1.978   6.263   3.101  0.1979 -0.1788  0.1283
 7512TIP3    H144027   2.046   6.202   3.072  3.0391  1.9649  1.7962
 7512TIP3    H244028   1.941   6.221   3.179 -0.2652 -1.2015 -0.6004
 7513TIP3   OH244029   1.836   0.686  11.596  0.7602  0.3115  0.0930
 7513TIP3    H144030   1.916   0.650  11.558  0.4717 -1.4212  1.0007
 7513TIP3    H244031   1.857   0.699  11.689  0.7071  2.1744 -0.1132
 7514TIP3   OH244032   5.401   3.002   4.812  0.0700 -0.0624  0.0403
 7514TIP3    H144033   5.416   3.013   4.718  1.5283 -0.1350  0.2426
 7514TIP3    H244034   5.381   3.091   4.843  2.2675  0.4895  0.0702
 7515TIP3   OH244035   3.298   3.016  15.055  0.0259  0.3217 -0.3809
 7515TIP3    H144036   3.354   3.077  15.008  2.9296 -2.5086 -0.9700
 7515TIP3    H244037   3.266   2.956  14.987  0.2149 -0.9090  0.5901
 7516TIP3   OH244038   4.492   6.386   6.514  0.1907  0.0185 -1.0153
 7516TIP3    H144039   4.424   6.434   6.467 -0.8479 -0.2089  0.1994
 7516TIP3    H244040   4.446   6.313   6.556  0.7502  0.9913  1.4941
 7517TIP3   OH244041   2.129   6.109   2.641 -0.5897  0.4243  0.8866
 7517TIP3    H144042   2.184   6.114   2.719 -1.4000  0.5387  1.4686
 7517TIP3    H244043   2.188   6.133   2.569  0.4379 -0.7214  1.3140
 7518TIP3   OH244044   6.078   6.579   1.065 -0.2561  0.0789  0.1159
 7518TIP3    H144045   6.102   6.494   1.028 -2.0045 -1.0173  1.3579
 7518TIP3    H244046   5.985   6.588   1.045  0.0204  1.9697 -0.4534
 7519TIP3   OH244047   2.085   1.742   3.166  0.1395  0.5162  0.6448
 7519TIP3    H144048   2.089   1.684   3.241  0.3000  0.5831  0.6880
 7519TIP3    H244049   2.023   1.810   3.191 -2.2574 -1.1154 -0.4410
 7520TIP3   OH244050   5.684   1.237  12.825 -0.3460  0.2533 -0.2303
 7520TIP3    H144051   5.777   1.247  12.805  0.0457 -1.3597  0.6135
 7520TIP3    H244052   5.678   1.256  12.919 -0.1577 -3.2180  0.6164
 7521TIP3   OH244053   0.174   3.890  15.737 -0.5338 -0.5045  0.0966
 7521TIP3    H144054   0.203   3.925  15.653  0.0013 -2.7151 -0.7003
 7521TIP3    H244055   0.168   3.967  15.794  2.7455  0.6569 -0.8918
 7522TIP3   OH244056   2.873   2.811  11.105 -0.7355  0.3309  0.1518
 7522TIP3    H144057   2.871   2.906  11.118 -0.3916  0.5375 -1.2069
 7522TIP3    H244058   2.905   2.799  11.016  0.5541 -1.1074  0.7697
 7523TIP3   OH244059   5.819   4.456  15.150  0.3613 -0.4052  0.0719
 7523TIP3    H144060   5.794   4.535  15.198  0.3700 -1.2183  1.4468
 7523TIP3    H244061   5.914   4.460  15.144  0.3061  0.1071 -0.6351
 7524TIP3   OH244062   4.562   1.777  15.639  0.2278 -0.5220 -0.2170
 7524TIP3    H144063   4.520   1.853  15.680  0.9393 -0.6957  0.8626
 7524TIP3    H244064   4.651   1.807  15.621  0.3140 -0.8919 -0.4017
 7525TIP3   OH244065   1.852   1.760  11.216  0.5798 -0.0274 -0.0160
 7525TIP3    H144066   1.804   1.685  11.182 -0.1196 -0.3966  1.6959
 7525TIP3    H244067   1.902   1.725  11.290  2.5112  0.6200 -0.9273
 7526TIP3   OH244068   3.439   3.775  15.489 -0.1288  0.3466 -0.1687
 7526TIP3    H144069   3.405   3.698  15.443 -0.9281  0.9453 -0.6075
 7526TIP3    H244070   3.466   3.835  15.420  0.5187  0.4610  0.1714
 7527TIP3   OH244071   2.003   0.327   1.250  0.8845  0.7816 -0.1676
 7527TIP3    H144072   1.958   0.397   1.202 -0.2005 -0.4201 -0.9889
 7527TIP3    H244073   2.090   0.324   1.212  0.4677  0.7417 -1.1614
 7528TIP3   OH244074   0.623   4.365   4.301  0.3954  0.2914 -0.2420
 7528TIP3    H144075   0.633   4.446   4.351 -1.2454  1.3789 -1.5596
 7528TIP3    H244076   0.693   4.368   4.236 -0.1453  1.1095 -0.8139
 7529TIP3   OH244077   1.011   4.331   5.697 -0.3402  0.7276  0.4359
 7529TIP3    H144078   1.037   4.419   5.724  1.0035  0.4130  0.2713
 7529TIP3    H244079   1.038   4.275   5.770 -1.1267  0.4307  0.5106
 7530TIP3   OH244080   2.527   0.483  13.454 -0.2617  0.0283 -0.5831
 7530TIP3    H144081   2.471   0.558  13.433  1.0972  1.4548  0.6321
 7530TIP3    H244082   2.478   0.435  13.520 -1.1504 -0.2008 -1.3749
 7531TIP3   OH244083   1.919   3.954  13.060 -0.4703 -0.3153 -0.0545
 7531TIP3    H144084   1.864   3.891  13.106 -2.1344  1.5469  0.6937
 7531TIP3    H244085   2.005   3.947  13.101 -1.0357 -1.0393  1.0368
 7532TIP3   OH244086   1.415   6.749   5.080 -0.5223  0.1927 -0.3531
 7532TIP3    H144087   1.493   6.729   5.029 -0.5836  0.6961 -0.6570
 7532TIP3    H244088   1.382   6.664   5.109 -1.0698 -0.1960 -2.0091
 7533TIP3   OH244089   4.819   6.478  14.494 -0.2845 -0.0035 -0.0540
 7533TIP3    H144090   4.789   6.423  14.421 -1.8946 -0.5612  0.9744
 7533TIP3    H244091   4.816   6.420  14.570  2.5867  0.2168  0.3043
 7534TIP3   OH244092   1.957   6.139  13.992 -0.0909  0.3569 -0.0086
 7534TIP3    H144093   1.904   6.206  13.947  0.0730  0.8570  0.5296
 7534TIP3    H244094   2.046   6.173  13.990  0.2034 -0.4272 -0.7996
 7535TIP3   OH244095   4.519   5.186   1.382 -0.2780 -0.6343 -0.2206
 7535TIP3    H144096   4.507   5.094   1.405 -0.7862 -0.5369 -0.0684
 7535TIP3    H244097   4.603   5.210   1.422 -1.1124 -0.4809  1.5621
 7536TIP3   OH244098   6.681   0.836  15.605 -0.1229 -0.3734  0.4734
 7536TIP3    H144099   6.639   0.810  15.523  2.2036 -3.3938  0.0414
 7536TIP3    H244100   6.627   0.795  15.674  0.1274 -1.3067  0.1374
 7537TIP3   OH244101   1.366   1.005  13.570  0.7188 -0.1910 -0.3900
 7537TIP3    H144102   1.329   0.924  13.536 -0.7400 -0.3216  1.3530
 7537TIP3    H244103   1.410   0.980  13.651  2.7380  0.3539 -1.2675
 7538TIP3   OH244104   5.135   3.338  16.053 -0.4745 -0.2918  0.4928
 7538TIP3    H144105   5.171   3.420  16.019  0.4804 -0.5259  0.8840
 7538TIP3    H244106   5.083   3.363  16.129  0.6610 -0.1087  1.2493
 7539TIP3   OH244107   5.912   2.331  11.056 -0.2577 -0.5598 -0.0203
 7539TIP3    H144108   5.819   2.309  11.066  0.1577 -1.8577  1.4646
 7539TIP3    H244109   5.957   2.248  11.067  1.1193  0.1577 -0.0526
 7540TIP3   OH244110   4.698   3.046  11.375  0.0902 -0.2734  0.2540
 7540TIP3    H144111   4.603   3.039  11.382 -0.1617  0.2125 -1.8743
 7540TIP3    H244112   4.717   3.138  11.395 -0.4574  0.7462 -3.1804
 7541TIP3   OH244113   3.264   4.007  15.457  0.2172 -0.6968  0.1825
 7541TIP3    H144114   3.344   3.979  15.411 -0.3123 -0.2099 -1.0883
 7541TIP3    H244115   3.211   3.927  15.462  0.7585 -1.0144  1.0030
 7542TIP3   OH244116   3.659   1.850  15.860  0.2618 -0.2141  0.3258
 7542TIP3    H144117   3.687   1.865  15.769 -0.1511 -0.8812  0.0828
 7542TIP3    H244118   3.692   1.926  15.908  0.0487  0.3993 -0.4766
 7543TIP3   OH244119   6.106   0.427   4.349  0.5506  0.2566  0.1239
 7543TIP3    H144120   6.187   0.464   4.311  0.7759  0.5165  0.8443
 7543TIP3    H244121   6.100   0.339   4.312  0.6755  0.5589 -0.6462
 7544TIP3   OH244122   2.406   4.027  16.123 -0.9359  0.2655 -0.0019
 7544TIP3    H144123   2.448   4.040  16.038 -1.2972 -0.1335 -0.2512
 7544TIP3    H244124   2.372   4.113  16.147 -1.2642  0.2802 -0.5014
 7545TIP3   OH244125   6.482   5.403   4.486 -0.3659 -0.0216 -0.7798
 7545TIP3    H144126   6.442   5.331   4.536  2.2223 -0.2585  1.1671
 7545TIP3    H244127   6.415   5.472   4.485 -0.7298 -0.1298  2.8337
 7546TIP3   OH244128   2.093   5.159  11.789  1.0997 -0.0151 -0.2975
 7546TIP3    H144129   2.114   5.124  11.876  2.3537  1.6059  0.1139
 7546TIP3    H244130   2.061   5.084  11.740  0.6747 -1.0499  1.4642
 7547TIP3   OH244131   5.422   6.563  14.250 -0.0167  0.2417 -0.1991
 7547TIP3    H144132   5.459   6.574  14.337 -2.3199  0.2233  0.8596
 7547TIP3    H244133   5.338   6.609  14.253 -0.7680 -0.8887 -1.9710
 7548TIP3   OH244134   4.122   1.257   6.461  0.2558  0.7062  0.3811
 7548TIP3    H144135   4.062   1.296   6.397  1.8988  0.8389 -1.1640
 7548TIP3    H244136   4.088   1.169   6.475 -0.9070  1.1387  0.3793
 7549TIP3   OH244137   1.837   0.593  13.635  0.4615 -0.2343 -0.2267
 7549TIP3    H144138   1.762   0.565  13.688  0.7007 -0.7416 -0.1506
 7549TIP3    H244139   1.804   0.666  13.584  0.0849 -0.0585  0.2604
 7550TIP3   OH244140   4.433   5.113   3.087  0.1106  0.2341 -0.5081
 7550TIP3    H144141   4.444   5.122   3.181  0.2049  0.4317 -0.5376
 7550TIP3    H244142   4.400   5.198   3.058 -0.4105  0.0110 -0.5817
 7551TIP3   OH244143   0.089   0.775  14.582 -0.0042 -0.3808  0.3042
 7551TIP3    H144144   0.139   0.698  14.610  0.5660 -0.4300 -0.7940
 7551TIP3    H244145   0.138   0.810  14.508 -0.4438  0.8582  0.5851
 7552TIP3   OH244146   0.974   4.248  15.852  0.1730 -0.1001 -0.2670
 7552TIP3    H144147   1.021   4.306  15.791  0.1385 -0.0386 -0.2354
 7552TIP3    H244148   1.002   4.160  15.828  1.6934  0.0317  0.9012
 7553TIP3   OH244149   0.895   6.587   0.635  0.0222  0.0219 -0.1750
 7553TIP3    H144150   0.924   6.678   0.638  0.5218 -0.0431 -1.8564
 7553TIP3    H244151   0.801   6.592   0.617 -1.0967  0.2133  4.4311
 7554TIP3   OH244152   3.636   1.550   0.931  0.2307  0.0905 -0.5781
 7554TIP3    H144153   3.542   1.536   0.942  0.1646  0.1758 -1.0295
 7554TIP3    H244154   3.651   1.545   0.837  0.3291  2.2454 -0.7403
 7555TIP3   OH244155   2.613   5.762   3.588  0.4491 -0.1394 -0.0222
 7555TIP3    H144156   2.597   5.802   3.502 -0.1756 -0.3351 -0.0057
 7555TIP3    H244157   2.546   5.694   3.595  0.1858  0.2013  0.8246
 7556TIP3   OH244158   4.902   3.014   2.748 -0.2073 -0.2080 -0.1819
 7556TIP3    H144159   4.910   2.959   2.826 -1.2535 -0.3248 -0.1387
 7556TIP3    H244160   4.929   2.957   2.676 -0.9208 -0.6736 -0.0939
 7557TIP3   OH244161   5.805   6.402   0.604  0.2596 -0.4262  0.5307
 7557TIP3    H144162   5.846   6.350   0.673 -1.5957 -0.5311  1.6449
 7557TIP3    H244163   5.778   6.337   0.539  0.7853 -0.4879  0.3726
 7558TIP3   OH244164   1.615   0.915  12.624  0.1866  0.2616 -0.0251
 7558TIP3    H144165   1.566   0.949  12.699 -0.1427  1.4466 -0.7492
 7558TIP3    H244166   1.561   0.939  12.548  1.0965  0.1366 -0.7174
 7559TIP3   OH244167   1.656   0.850   2.884  0.0743 -0.2161 -0.3162
 7559TIP3    H144168   1.625   0.838   2.974  0.0946 -1.7825 -0.4892
 7559TIP3    H244169   1.610   0.782   2.834  1.1132 -0.2647 -1.2375
 7560TIP3   OH244170   5.115   4.284   5.173  0.0058 -0.0954  0.1090
 7560TIP3    H144171   5.078   4.327   5.096  0.9959  1.3432  0.4127
 7560TIP3    H244172   5.075   4.197   5.172  1.3403 -0.8319 -3.0719
 7561TIP3   OH244173   6.230   2.504   6.456  0.0648  0.3583  0.2223
 7561TIP3    H144174   6.154   2.558   6.433  0.4942  0.2673 -1.5657
 7561TIP3    H244175   6.294   2.566   6.489 -0.2274  0.6477  0.2542
 7562TIP3   OH244176   3.482   3.647  15.752 -0.3746  0.1134  0.2854
 7562TIP3    H144177   3.531   3.572  15.717  0.4202 -0.0113  1.5945
 7562TIP3    H244178   3.488   3.714  15.684 -0.7026 -0.8305 -0.7141
 7563TIP3   OH244179   3.608   3.815  11.277 -0.0359  0.5631  0.6515
 7563TIP3    H144180   3.689   3.797  11.324  1.2637  1.5688 -1.1013
 7563TIP3    H244181   3.572   3.893  11.319  2.1332  2.6615 -1.0805
 7564TIP3   OH244182   4.871   0.524   2.729  0.4494 -0.5329  0.6883
 7564TIP3    H144183   4.911   0.551   2.646 -1.0689  0.5286  0.2720
 7564TIP3    H244184   4.945   0.493   2.781  1.3708 -2.0131 -1.3344
 7565TIP3   OH244185   3.965   0.918  15.070  0.9056 -0.5939  0.4793
 7565TIP3    H144186   3.926   0.863  15.001 -1.8077  0.4302  1.0506
 7565TIP3    H244187   3.951   0.868  15.151  0.2163  0.0233  0.7578
 7566TIP3   OH244188   4.638   3.551  14.109 -0.2590  0.0603 -0.1388
 7566TIP3    H144189   4.726   3.573  14.140  0.5426 -1.4496 -1.2241
 7566TIP3    H244190   4.608   3.630  14.064  0.3600  0.7260  0.5823
 7567TIP3   OH244191   3.356   1.547  10.454 -0.6826  0.3594  0.2892
 7567TIP3    H144192   3.423   1.596  10.406 -0.0725  0.8018  1.5398
 7567TIP3    H244193   3.273   1.584  10.425 -0.2999  0.9628 -0.0462
 7568TIP3   OH244194   6.540   5.164  12.934 -0.3875  0.1584 -0.0436
 7568TIP3    H144195   6.630   5.195  12.937 -0.2591 -0.1521 -0.5469
 7568TIP3    H244196   6.541   5.083  12.985 -0.1993 -0.2751 -0.7212
 7569TIP3   OH244197   1.545   2.468   4.586  0.7199 -0.1731 -0.1965
 7569TIP3    H144198   1.593   2.416   4.520 -0.5053 -0.9681 -0.4924
 7569TIP3    H244199   1.529   2.406   4.657  1.1654  0.4208  0.4285
 7570TIP3   OH244200   3.197   3.764   3.699 -0.0420 -0.4339 -0.6435
 7570TIP3    H144201   3.210   3.672   3.723  1.2823  0.0367  0.5939
 7570TIP3    H244202   3.151   3.761   3.615 -1.1139 -2.2051 -0.0316
 7571TIP3   OH244203   5.098   3.741  13.791  0.2191 -0.2915  0.2903
 7571TIP3    H144204   5.118   3.679  13.720 -0.7137 -1.5890  1.1091
 7571TIP3    H244205   5.107   3.689  13.871 -3.0106 -0.1082  0.9008
 7572TIP3   OH244206   6.165   0.586  16.396  0.0613  0.7749 -0.1127
 7572TIP3    H144207   6.156   0.667  16.446  1.7759  0.8051  0.1995
 7572TIP3    H244208   6.239   0.602  16.338  0.0949 -0.3955 -0.4058
 7573TIP3   OH244209   5.332   1.330   2.472  0.1753 -0.4587 -0.1504
 7573TIP3    H144210   5.307   1.277   2.396  1.5462 -0.6337 -0.5076
 7573TIP3    H244211   5.333   1.267   2.545 -2.3501 -0.0618  0.3306
 7574TIP3   OH244212   2.312   0.124  13.502  0.1062  0.9314 -0.6209
 7574TIP3    H144213   2.258   0.051  13.533  2.2754 -0.3366  0.4008
 7574TIP3    H244214   2.252   0.177  13.450 -1.6656 -1.3835 -1.1262
 7575TIP3   OH244215   6.368   0.842   4.520 -0.3509  0.6899 -0.7980
 7575TIP3    H144216   6.410   0.883   4.596 -1.7420 -0.0130  0.3882
 7575TIP3    H244217   6.424   0.767   4.500 -0.2706  0.5573 -0.1082
 7576TIP3   OH244218   1.158   1.428  15.529 -0.2909  0.6866  0.1780
 7576TIP3    H144219   1.190   1.407  15.616 -0.4235  0.6019  0.2063
 7576TIP3    H244220   1.236   1.454  15.480 -0.1684  0.4023  0.2227
 7577TIP3   OH244221   5.073   3.817  14.123  0.0634  0.1787 -0.5419
 7577TIP3    H144222   4.990   3.777  14.098  1.0378 -0.9945 -2.1383
 7577TIP3    H244223   5.138   3.749  14.108  1.3927  1.2616  0.0561
 7578TIP3   OH244224   3.107   4.047   5.383  0.0267  0.7926 -0.0757
 7578TIP3    H144225   3.090   4.070   5.292  0.2799 -0.5035 -0.4764
 7578TIP3    H244226   3.025   4.067   5.429 -0.3640  0.7416 -0.7415
 7579TIP3   OH244227   1.323   2.984   2.974  0.1168 -0.4439 -0.2382
 7579TIP3    H144228   1.245   2.954   2.927  0.1129 -0.8698  0.0310
 7579TIP3    H244229   1.391   2.991   2.906  0.6305 -2.8528 -0.0849
 7580TIP3   OH244230   6.560   4.779   2.305 -0.4070  0.2116 -0.2360
 7580TIP3    H144231   6.653   4.799   2.303 -0.3022 -0.2891 -0.9116
 7580TIP3    H244232   6.549   4.721   2.381  0.0252 -0.5962 -0.7769
 7581TIP3   OH244233   1.494   4.394  12.033 -0.3808  0.1739  0.2645
 7581TIP3    H144234   1.580   4.435  12.044 -0.2655 -0.3312  1.3106
 7581TIP3    H244235   1.442   4.427  12.106 -0.2100 -1.6933  1.3004
 7582TIP3   OH244236   0.549   3.188  11.410  0.2046  0.2905  0.5631
 7582TIP3    H144237   0.558   3.247  11.484  0.3938 -1.1551  1.7420
 7582TIP3    H244238   0.464   3.208  11.373 -0.3244  0.3910  1.7869
 7583TIP3   OH244239   4.779   2.151  11.629  0.2425 -0.2972  0.1085
 7583TIP3    H144240   4.749   2.242  11.621 -0.8433 -0.5406  1.1358
 7583TIP3    H244241   4.710   2.107  11.678  0.6323 -1.7568 -0.6105
 7584TIP3   OH244242   2.371   0.952   2.806  0.2290 -0.2325 -0.4609
 7584TIP3    H144243   2.374   0.866   2.848 -1.8999  0.8554  2.2918
 7584TIP3    H244244   2.462   0.979   2.798  0.8397 -1.8609  0.5651
 7585TIP3   OH244245   4.139   0.389   0.874 -0.4110 -0.0275  0.1060
 7585TIP3    H144246   4.207   0.352   0.818  1.2151  0.8038  1.4066
 7585TIP3    H244247   4.142   0.335   0.953 -1.0834  0.1878  0.2819
 7586TIP3   OH244248   2.934   4.629   4.415 -0.0374 -0.3621 -0.4046
 7586TIP3    H144249   2.869   4.567   4.450  1.0269 -1.9244 -1.0549
 7586TIP3    H244250   2.902   4.648   4.326 -1.4947  1.7683  0.4988
 7587TIP3   OH244251   3.600   1.713   6.138 -0.2872  0.9033 -0.0599
 7587TIP3    H144252   3.654   1.657   6.084  0.1397 -0.5445  1.7677
 7587TIP3    H244253   3.660   1.750   6.203 -1.1777  0.5358  1.0112
 7588TIP3   OH244254   0.785   5.214   4.927 -0.0505 -0.4175 -0.4134
 7588TIP3    H144255   0.723   5.277   4.891 -1.4780 -2.2445 -1.3038
 7588TIP3    H244256   0.840   5.189   4.853  2.4580  1.8098  0.5295
 7589TIP3   OH244257   6.158   0.053  15.274  0.6017  0.5240 -0.2104
 7589TIP3    H144258   6.232   0.094  15.317  0.7497  0.0988 -0.0514
 7589TIP3    H244259   6.145  -0.029  15.322 -0.1260  0.7120 -0.0818
 7590TIP3   OH244260   0.040   3.306  14.164  0.7745 -0.1995 -0.6136
 7590TIP3    H144261   0.118   3.258  14.136  0.1986 -1.1033 -0.7214
 7590TIP3    H244262   0.045   3.389  14.117  1.1544 -0.6550 -1.4048
 7591TIP3   OH244263   5.090   4.939   1.251  0.3054  0.0434  0.1658
 7591TIP3    H144264   5.008   4.892   1.237 -0.2413  0.6721  1.1457
 7591TIP3    H244265   5.146   4.877   1.296 -0.8602  0.6815  2.6290
 7592TIP3   OH244266   2.192   2.292  11.987  0.1908  1.0283  0.3311
 7592TIP3    H144267   2.178   2.217  12.045  3.5134  0.0156  0.0498
 7592TIP3    H244268   2.143   2.271  11.908 -0.8835  0.3544  1.1417
 7593TIP3   OH244269   2.282   0.359  10.179 -0.6138  0.4537 -0.5088
 7593TIP3    H144270   2.364   0.390  10.219 -0.4353 -1.6763  0.9925
 7593TIP3    H244271   2.302   0.269  10.152 -2.5580 -0.2672  0.3092
 7594TIP3   OH244272   5.979   6.007  14.807 -0.4160  0.1536  0.1872
 7594TIP3    H144273   5.906   6.067  14.825 -0.5382 -0.0498  0.3597
 7594TIP3    H244274   5.985   5.952  14.884 -0.8936 -0.6651 -0.3470
 7595TIP3   OH244275   2.189   2.007  10.807 -0.3238 -0.1715  0.2283
 7595TIP3    H144276   2.149   2.070  10.746  0.8675  1.6775  1.2734
 7595TIP3    H244277   2.125   1.936  10.812 -0.7480 -0.1212 -2.6787
 7596TIP3   OH244278   4.415   1.118   1.788  0.3094  0.3569 -0.3805
 7596TIP3    H144279   4.386   1.165   1.866  1.0196  1.2830 -0.6519
 7596TIP3    H244280   4.335   1.100   1.740  0.0512  1.8122 -0.5354
 7597TIP3   OH244281   5.115   5.190   3.086  0.4940 -0.1568 -0.0352
 7597TIP3    H144282   5.051   5.184   3.015  1.8262  1.1997 -1.4137
 7597TIP3    H244283   5.151   5.101   3.092  0.1538 -0.3689 -0.8826
 7598TIP3   OH244284   6.782   4.520   4.939 -0.0448 -0.8238 -0.1382
 7598TIP3    H144285   6.763   4.601   4.987 -0.5870  1.3857 -3.7411
 7598TIP3    H244286   6.696   4.483   4.919 -0.1119  0.6655 -2.9880
 7599TIP3   OH244287   5.127   5.544   0.481  0.2128  0.3980  0.1904
 7599TIP3    H144288   5.059   5.511   0.422 -0.1485 -0.4282  1.0317
 7599TIP3    H244289   5.178   5.466   0.504  0.6003  0.7789  0.6465
 7600TIP3   OH244290   0.430   3.553   3.773  0.5882  0.4772  0.0592
 7600TIP3    H144291   0.494   3.617   3.804  0.3515 -0.0067  1.6524
 7600TIP3    H244292   0.474   3.469   3.785  0.0323  0.2067  0.2085
 7601TIP3   OH244293   4.742   4.093  13.751  0.2339 -0.2987  0.3775
 7601TIP3    H144294   4.751   4.182  13.785  2.3037  0.6871 -2.3485
 7601TIP3    H244295   4.790   4.038  13.814  2.5924  1.2092  0.0471
 7602TIP3   OH244296   2.256   2.468  14.100 -0.5062 -0.2839 -0.0144
 7602TIP3    H144297   2.203   2.533  14.053  1.1355 -0.9888 -3.1411
 7602TIP3    H244298   2.284   2.512  14.180 -1.3081  2.0317 -0.9249
 7603TIP3   OH244299   5.866   4.666   0.191 -0.2230 -0.0763  1.3951
 7603TIP3    H144300   5.774   4.647   0.170 -0.1610 -1.1699  2.0401
 7603TIP3    H244301   5.861   4.731   0.261 -0.4727  0.9578  0.4384
 7604TIP3   OH244302   5.376   3.792  14.398 -0.1463  0.0528  0.7220
 7604TIP3    H144303   5.350   3.700  14.404  1.3357 -0.3565  1.4622
 7604TIP3    H244304   5.346   3.831  14.480 -2.3372  0.7069 -0.3192
 7605TIP3   OH244305   0.217   5.321   0.998 -0.1436 -0.0937 -0.3345
 7605TIP3    H144306   0.226   5.227   0.981  1.1046 -0.0950  0.2372
 7605TIP3    H244307   0.165   5.326   1.079  1.2903 -0.3807  0.6444
 7606TIP3   OH244308   4.171   1.072  11.328  0.8135 -0.0694 -1.0373
 7606TIP3    H144309   4.225   1.036  11.257 -0.6039 -3.2749 -0.6521
 7606TIP3    H244310   4.191   1.017  11.403 -0.8713  0.5188 -0.1155
 7607TIP3   OH244311   3.300   4.174   2.323  0.1241  0.7170 -0.6562
 7607TIP3    H144312   3.358   4.135   2.389  1.3625 -0.4656 -2.3376
 7607TIP3    H244313   3.325   4.266   2.320  0.1597  0.7562  0.3839
 7608TIP3   OH244314   5.716   5.452   4.545 -0.5654  0.2517 -0.7489
 7608TIP3    H144315   5.703   5.381   4.482 -0.9529 -0.4048  0.0637
 7608TIP3    H244316   5.678   5.529   4.502 -2.5219 -0.5693 -0.5720
 7609TIP3   OH244317   3.464   2.239   1.881  1.2527  0.6540  0.1149
 7609TIP3    H144318   3.414   2.171   1.926 -0.3210  1.7858  0.1333
 7609TIP3    H244319   3.522   2.274   1.949  2.1005 -0.6536  0.0996
 7610TIP3   OH244320   0.439   4.305   0.299  0.3389 -0.2865 -0.1049
 7610TIP3    H144321   0.461   4.310   0.206  1.5694  0.7867  0.2007
 7610TIP3    H244322   0.503   4.244   0.335  1.0132  0.6318  0.3084
 7611TIP3   OH244323   5.379   3.794  10.550 -0.1894 -0.2007 -0.2356
 7611TIP3    H144324   5.321   3.863  10.515 -0.0831 -0.3509 -0.7145
 7611TIP3    H244325   5.389   3.733  10.477 -1.2931 -1.3952  0.5658
 7612TIP3   OH244326   3.439   1.779  14.322  0.1141 -0.5417  0.0678
 7612TIP3    H144327   3.345   1.781  14.303 -0.2907 -0.0667  1.9487
 7612TIP3    H244328   3.451   1.697  14.371  0.8312 -0.9380 -0.7334
 7613TIP3   OH244329   0.546   1.064  12.865  0.3993  0.8205 -0.1235
 7613TIP3    H144330   0.535   1.006  12.941 -3.0372  1.6409  0.1688
 7613TIP3    H244331   0.563   1.150  12.903  1.5069  0.7580 -0.4356
 7614TIP3   OH244332   1.117   4.778  10.404 -0.0243  0.5777 -0.2113
 7614TIP3    H144333   1.150   4.756  10.317  2.5152  0.4994  0.7061
 7614TIP3    H244334   1.115   4.874  10.405  0.8272  0.6052 -0.0852
 7615TIP3   OH244335   5.428   0.519   1.073  0.2603  0.1917 -0.6900
 7615TIP3    H144336   5.513   0.479   1.059  0.6587  1.0096 -0.6484
 7615TIP3    H244337   5.439   0.611   1.048 -0.0002  0.8359  1.3158
 7616TIP3   OH244338   1.194   2.586  12.079  0.6289  0.6624 -0.0880
 7616TIP3    H144339   1.287   2.566  12.076  0.6952  0.7030  1.3126
 7616TIP3    H244340   1.188   2.677  12.052  1.2919  1.4461  2.2284
 7617TIP3   OH244341   2.635   3.374  16.356 -0.0118 -0.2458 -0.1435
 7617TIP3    H144342   2.730   3.375  16.343  0.2076 -0.7763  1.1531
 7617TIP3    H244343   2.624   3.325  16.438 -1.3595  0.4424  0.1046
 7618TIP3   OH244344   4.845   2.580  12.486  0.1885  0.1024 -0.5788
 7618TIP3    H144345   4.803   2.666  12.494 -1.1191 -0.6304  1.0867
 7618TIP3    H244346   4.894   2.570  12.568  0.7329 -0.5465 -0.9780
 7619TIP3   OH244347   1.326   0.951  12.794 -0.4173 -0.6692  0.1014
 7619TIP3    H144348   1.277   0.981  12.717  0.3436  0.5821  0.0887
 7619TIP3    H244349   1.260   0.940  12.862 -0.8277  0.2711 -0.1339
 7620TIP3   OH244350   1.430   0.042  12.116  0.3676  0.0009  0.0883
 7620TIP3    H144351   1.496   0.103  12.082 -1.9641  1.4644 -2.1221
 7620TIP3    H244352   1.377   0.095  12.175  0.0292 -0.6783  0.4015
 7621TIP3   OH244353   3.297   3.966  11.620 -0.1061 -0.3135  0.6265
 7621TIP3    H144354   3.222   3.908  11.629 -0.6398  0.3676  0.6907
 7621TIP3    H244355   3.297   4.019  11.700  0.4051 -0.2649  0.5984
 7622TIP3   OH244356   4.199   0.231  16.252  0.3522  0.3671  1.2769
 7622TIP3    H144357   4.216   0.232  16.346  4.0936  0.8426  0.7735
 7622TIP3    H244358   4.223   0.319  16.223 -0.3531  0.1044 -0.1716
 7623TIP3   OH244359   0.973   5.450   1.882 -0.2671  0.4063 -0.2289
 7623TIP3    H144360   0.952   5.523   1.941  1.7165  0.9052 -0.0809
 7623TIP3    H244361   0.925   5.375   1.919 -0.0361  0.9857  1.3046
 7624TIP3   OH244362   3.530   0.844   0.401 -0.5581 -0.1906  0.2205
 7624TIP3    H144363   3.602   0.787   0.374  1.5441  2.6439 -0.6070
 7624TIP3    H244364   3.451   0.794   0.378  1.1170 -2.1009 -1.9481
 7625TIP3   OH244365   4.929   0.193   4.586  0.2011  0.4771 -0.3499
 7625TIP3    H144366   4.864   0.171   4.519  1.3134  0.6121 -1.5286
 7625TIP3    H244367   4.963   0.278   4.559  2.1402 -0.3758 -0.8531
 7626TIP3   OH244368   5.314   4.949   4.229  0.0029 -0.6235 -0.2257
 7626TIP3    H144369   5.259   4.925   4.304 -0.3076  1.5454  0.3309
 7626TIP3    H244370   5.403   4.926   4.256 -0.2641 -1.1495  0.2228
 7627TIP3   OH244371   4.274   6.441  11.030  0.3809  0.1378 -0.5335
 7627TIP3    H144372   4.274   6.373  10.963  0.1177 -1.0999  0.6566
 7627TIP3    H244373   4.184   6.471  11.035  0.7519  1.5818 -2.0000
 7628TIP3   OH244374   0.678   5.081   2.310  0.1414  0.0059 -0.8557
 7628TIP3    H144375   0.772   5.086   2.330 -0.2025  0.1500  0.8030
 7628TIP3    H244376   0.638   5.047   2.389 -1.2431  0.0652 -1.5024
 7629TIP3   OH244377   6.264   5.287   2.402 -0.0888 -0.3763 -0.2372
 7629TIP3    H144378   6.292   5.289   2.493 -0.2907 -1.9741 -0.1029
 7629TIP3    H244379   6.331   5.337   2.355  1.1648 -1.2799  0.5256
 7630TIP3   OH244380   5.310   1.138   2.696  0.2950 -0.6520 -0.0662
 7630TIP3    H144381   5.289   1.217   2.746  0.1165 -1.9494  1.9989
 7630TIP3    H244382   5.226   1.110   2.660  0.3798  0.1445 -0.9189
 7631TIP3   OH244383   1.601   0.495  11.606  0.1173  0.2846  0.0418
 7631TIP3    H144384   1.545   0.477  11.530  0.1572 -2.2684  0.5132
 7631TIP3    H244385   1.684   0.526  11.568  0.1494 -0.9734 -1.0078
 7632TIP3   OH244386   2.269   4.601   2.901 -0.1663 -0.1745 -0.3926
 7632TIP3    H144387   2.335   4.609   2.832 -1.3637 -0.0730 -1.5482
 7632TIP3    H244388   2.192   4.565   2.857 -1.5819  1.6392  0.4654
 7633TIP3   OH244389   3.258   2.604  12.062 -0.2228  0.1163 -0.1600
 7633TIP3    H144390   3.217   2.539  12.005 -1.1486 -0.0529  0.6751
 7633TIP3    H244391   3.185   2.643  12.110  0.6436 -1.6704  2.9218
 7634TIP3   OH244392   0.053   5.462  14.643  0.1969 -0.1081  0.0370
 7634TIP3    H144393   0.090   5.442  14.729 -3.4766 -1.5153  1.5024
 7634TIP3    H244394  -0.036   5.491  14.661 -1.8840 -3.3791 -3.2786
 7635TIP3   OH244395   1.938   3.206   5.572  0.0486  0.1765  0.4711
 7635TIP3    H144396   1.994   3.158   5.633 -0.5004 -0.0112  0.8330
 7635TIP3    H244397   1.890   3.267   5.627  1.0123  1.4350 -0.0231
 7636TIP3   OH244398   4.065   2.587   3.296  0.2262 -0.2300 -0.1058
 7636TIP3    H144399   4.015   2.579   3.377 -1.6103  0.5956 -1.0957
 7636TIP3    H244400   4.126   2.660   3.313 -1.2353  1.0119  0.0444
 7637TIP3   OH244401   2.509   4.058  16.993  0.0608  0.3621 -0.0737
 7637TIP3    H144402   2.581   4.007  17.031 -0.6662 -0.8735 -0.3059
 7637TIP3    H244403   2.475   4.110  17.066  0.9466  0.6969  0.1162
 7638TIP3   OH244404   0.341   5.394   4.661  0.4904 -0.0664  0.3445
 7638TIP3    H144405   0.375   5.354   4.741 -1.8574  1.2662  2.1427
 7638TIP3    H244406   0.401   5.466   4.642  2.1841 -1.5776 -0.3277
 7639TIP3   OH244407   4.672   5.694   0.089 -0.3685 -0.0014  0.8161
 7639TIP3    H144408   4.592   5.722   0.133 -0.5004 -1.8999  1.8748
 7639TIP3    H244409   4.656   5.603   0.066  0.1008  0.5989 -2.3367
 7640TIP3   OH244410   1.399   1.641  13.082  0.2269 -0.5764  0.0552
 7640TIP3    H144411   1.385   1.677  12.995 -0.4169 -1.8095 -0.3763
 7640TIP3    H244412   1.352   1.558  13.081  0.7858 -0.9281  1.3539
 7641TIP3   OH244413   5.705   6.665  12.519 -0.2504 -0.0327 -0.2408
 7641TIP3    H144414   5.716   6.759  12.531 -0.0965 -0.3091  2.2081
 7641TIP3    H244415   5.655   6.637  12.596  1.1106 -2.1869 -0.0634
 7642TIP3   OH244416   3.749   0.379  16.809  0.0092  0.1448  0.1437
 7642TIP3    H144417   3.728   0.312  16.874  3.2396  0.1265  1.3511
 7642TIP3    H244418   3.787   0.331  16.736  0.9945  0.4851  0.4074
 7643TIP3   OH244419   0.033   1.110  12.044  0.3741 -0.3169 -0.0842
 7643TIP3    H144420   0.024   1.203  12.063  0.6628 -0.2717 -0.1615
 7643TIP3    H244421   0.106   1.105  11.982 -0.1241 -0.5260 -0.6540
 7644TIP3   OH244422   6.385   1.312  12.121  0.1256 -0.3489  0.1989
 7644TIP3    H144423   6.454   1.303  12.187  1.7204 -2.6308 -1.6087
 7644TIP3    H244424   6.308   1.272  12.161  0.3116  0.5841  1.5777
 7645TIP3   OH244425   5.991   6.246   4.534  0.7333  0.1111 -0.0060
 7645TIP3    H144426   5.912   6.237   4.588  0.4729 -0.8595 -0.5264
 7645TIP3    H244427   5.993   6.339   4.511 -1.4195 -0.1616 -1.6555
 7646TIP3   OH244428   3.410   4.398  14.614 -0.0083  0.0387  0.0667
 7646TIP3    H144429   3.376   4.417  14.701  0.1090 -1.5592  0.4903
 7646TIP3    H244430   3.505   4.405  14.624 -0.0348  1.3573 -0.3399
 7647TIP3   OH244431   4.852   0.172   5.487 -0.0079 -0.2557 -0.8036
 7647TIP3    H144432   4.863   0.089   5.533 -1.0010  0.2549  0.4006
 7647TIP3    H244433   4.760   0.173   5.461  0.0386  0.3894 -0.9624
 7648TIP3   OH244434   2.176   1.768  11.188  0.3679  0.2905 -0.1874
 7648TIP3    H144435   2.094   1.726  11.163  0.3352 -0.4290  1.0689
 7648TIP3    H244436   2.175   1.852  11.142 -1.4678  0.6628  0.4706
 7649TIP3   OH244437   2.066   4.196  11.764  0.6023 -0.0954  0.1700
 7649TIP3    H144438   2.126   4.127  11.794 -0.1364 -0.5441  0.6663
 7649TIP3    H244439   1.980   4.153  11.764 -0.2633  1.4271  2.7471
 7650TIP3   OH244440   6.108   4.422  15.195 -0.1311  0.2535 -0.0989
 7650TIP3    H144441   6.084   4.342  15.242 -0.5833  1.3070  1.5529
 7650TIP3    H244442   6.174   4.463  15.251  1.7237  0.0119 -1.9904
 7651TIP3   OH244443   3.466   1.162  14.545 -0.3242  0.4666  0.3235
 7651TIP3    H144444   3.515   1.086  14.576  0.4479  1.9088  2.9809
 7651TIP3    H244445   3.435   1.205  14.625  0.7298  3.8648 -0.9285
 7652TIP3   OH244446   1.881   4.986  13.225  0.4768  0.4485  0.7143
 7652TIP3    H144447   1.960   5.031  13.195  2.3342 -1.1684  2.8222
 7652TIP3    H244448   1.894   4.976  13.319 -1.3025 -1.6809  0.7947
 7653TIP3   OH244449   3.668   4.833  13.905 -0.1451  0.1248  0.2133
 7653TIP3    H144450   3.727   4.803  13.973 -1.2326 -1.5114  0.4865
 7653TIP3    H244451   3.646   4.754  13.855 -0.1248  1.1192 -1.4636
 7654TIP3   OH244452   1.814   0.897  14.942 -0.4647 -0.4082 -0.3393
 7654TIP3    H144453   1.861   0.876  15.023 -1.2947 -0.1169  0.2280
 7654TIP3    H244454   1.828   0.991  14.930 -1.1958 -0.2428  0.0376
 7655TIP3   OH244455   6.240   4.412   1.789  0.4268  0.6733 -0.1061
 7655TIP3    H144456   6.190   4.415   1.870 -0.5964 -0.2195 -0.6724
 7655TIP3    H244457   6.175   4.395   1.721  1.5990 -2.2100 -0.6879
 7656TIP3   OH244458   2.594   1.743  12.025 -0.1470 -0.1330  0.2440
 7656TIP3    H144459   2.518   1.737  12.083  1.0993  0.7946  2.0772
 7656TIP3    H244460   2.593   1.661  11.976 -0.8314 -1.3573  2.1939
 7657TIP3   OH244461   5.024   2.905   0.807  0.0193 -0.0692 -0.7451
 7657TIP3    H144462   5.039   2.999   0.796 -1.7002  0.5116  1.2915
 7657TIP3    H244463   5.082   2.880   0.880 -1.7541  0.1531  0.8129
 7658TIP3   OH244464   5.050   0.862  16.621 -0.0780  0.1629 -1.1046
 7658TIP3    H144465   5.114   0.861  16.550 -0.8091 -0.4049 -1.7703
 7658TIP3    H244466   5.016   0.951  16.621 -0.5954 -0.0182 -1.9670
 7659TIP3   OH244467   5.113   5.878   2.761 -0.4394  0.2080 -0.1025
 7659TIP3    H144468   5.093   5.789   2.791  0.4329 -0.1137 -0.4603
 7659TIP3    H244469   5.152   5.866   2.674 -1.6010  1.0315 -0.7739
 7660TIP3   OH244470   4.533   0.557  14.403 -0.3391 -0.3465 -0.0374
 7660TIP3    H144471   4.550   0.646  14.435  1.5367 -0.8220  0.4277
 7660TIP3    H244472   4.614   0.510  14.422 -1.7439 -2.5121  0.9224
 7661TIP3   OH244473   2.613   5.009   1.807 -0.3528 -0.2096  0.1593
 7661TIP3    H144474   2.551   5.037   1.875 -0.0032 -0.4621  0.5841
 7661TIP3    H244475   2.578   4.925   1.777 -0.0721 -0.4807  0.5864
 7662TIP3   OH244476   5.770   1.704  16.779  0.3882  0.7465 -0.2178
 7662TIP3    H144477   5.777   1.618  16.737  0.5198 -0.4525  2.1226
 7662TIP3    H244478   5.676   1.723  16.780  0.3040  0.3399 -0.2088
 7663TIP3   OH244479   0.464   4.701   4.211 -0.2179 -0.5068 -0.1527
 7663TIP3    H144480   0.547   4.691   4.164  1.2569 -0.1513  2.1651
 7663TIP3    H244481   0.404   4.641   4.168  1.6655 -1.8827 -1.0290
 7664TIP3   OH244482   6.246   4.444   2.224  0.6558 -0.1530 -0.0845
 7664TIP3    H144483   6.312   4.381   2.197  0.1568 -0.4476 -0.6625
 7664TIP3    H244484   6.192   4.457   2.146 -0.6555 -0.7943  0.6802
 7665TIP3   OH244485   1.768   2.271  14.550  0.1591 -0.9545 -0.3408
 7665TIP3    H144486   1.762   2.359  14.589  1.6237 -1.6702  1.6974
 7665TIP3    H244487   1.703   2.271  14.481  1.1256  2.2323 -1.4318
 7666TIP3   OH244488   6.099   6.481  13.268 -0.4719 -0.2638 -0.0365
 7666TIP3    H144489   6.172   6.531  13.305 -0.8562  1.1807 -1.1253
 7666TIP3    H244490   6.033   6.547  13.247 -2.2698 -1.5568  1.2197
 7667TIP3   OH244491   0.818   5.055  11.696  0.2184 -0.3243  0.4614
 7667TIP3    H144492   0.839   5.105  11.617 -0.6690 -1.6289 -0.6466
 7667TIP3    H244493   0.795   4.968  11.664 -1.1323 -0.6202  2.0752
 7668TIP3   OH244494   4.336   6.318  11.982 -0.1549 -0.2426  0.4195
 7668TIP3    H144495   4.425   6.300  12.014 -0.0344  0.2383  0.3566
 7668TIP3    H244496   4.280   6.310  12.060 -0.0217 -0.2670  0.5127
 7669TIP3   OH244497   1.193   2.320   1.342  0.0165 -0.6632  0.4640
 7669TIP3    H144498   1.192   2.239   1.393 -0.8917  0.8896  3.1410
 7669TIP3    H244499   1.187   2.292   1.251  2.0890 -3.6386  1.1333
 7670TIP3   OH244500   2.293   0.846   2.218  0.0025 -0.2740  0.1161
 7670TIP3    H144501   2.262   0.846   2.309  1.1808  0.4355  0.5364
 7670TIP3    H244502   2.260   0.928   2.182 -0.2256 -0.4214 -0.0078
 7671TIP3   OH244503   1.460   3.917   1.632  0.0267 -0.2903 -0.5781
 7671TIP3    H144504   1.475   3.967   1.552 -1.9959 -0.6855 -1.2645
 7671TIP3    H244505   1.382   3.956   1.671  1.7618  0.8343  2.0434
 7672TIP3   OH244506   4.489   0.887  12.702 -0.1130  0.6567  0.1952
 7672TIP3    H144507   4.542   0.929  12.770  1.4202 -0.3096 -0.3448
 7672TIP3    H244508   4.400   0.915  12.720  0.2942  0.6651  2.4140
 7673TIP3   OH244509   2.547   1.020  13.425 -0.6266 -0.1580  0.2763
 7673TIP3    H144510   2.568   0.989  13.336 -0.8125 -0.2350  0.2602
 7673TIP3    H244511   2.555   1.115  13.419  0.6509 -0.2318  0.5013
 7674TIP3   OH244512   0.889   6.223   1.150 -0.5715 -0.4396 -0.0865
 7674TIP3    H144513   0.930   6.138   1.135  1.0763  0.6471 -2.1549
 7674TIP3    H244514   0.951   6.271   1.205 -0.5697  0.1173 -0.5691
 7675TIP3   OH244515   0.817   5.313  15.951 -0.4972 -0.1160 -1.1289
 7675TIP3    H144516   0.851   5.384  15.896 -0.3375 -0.3690 -1.3615
 7675TIP3    H244517   0.770   5.358  16.021 -0.1105  0.2269 -1.0843
 7676TIP3   OH244518   5.405   3.925   5.534 -0.3161 -0.7169  0.3276
 7676TIP3    H144519   5.337   3.859   5.550 -1.0595 -0.2220 -0.6963
 7676TIP3    H244520   5.362   3.992   5.481  0.5335  0.4061  0.9894
 7677TIP3   OH244521   1.827   3.054  12.225  0.6520  0.7066  0.5821
 7677TIP3    H144522   1.776   3.132  12.204  0.9781  1.3329  2.0025
 7677TIP3    H244523   1.897   3.086  12.282 -0.9177 -0.9952  3.7171
 7678TIP3   OH244524   1.365   6.066  11.112 -0.4914 -0.2726  0.3840
 7678TIP3    H144525   1.283   6.105  11.082 -0.5061  1.2936  2.2899
 7678TIP3    H244526   1.434   6.118  11.070 -0.4470 -0.7771 -0.1978
 7679TIP3   OH244527   4.974   4.780   0.667  0.1252 -0.1494 -0.0170
 7679TIP3    H144528   5.051   4.781   0.610 -1.2100  1.5758 -1.9639
 7679TIP3    H244529   4.908   4.732   0.616 -0.1055 -1.7315  1.6738
 7680TIP3   OH244530   3.395   5.234   4.765 -0.2286 -0.4515 -0.5807
 7680TIP3    H144531   3.364   5.144   4.778  0.1585 -0.5955 -0.6421
 7680TIP3    H244532   3.371   5.256   4.675 -0.0366 -0.6117 -0.6724
 7681TIP3   OH244533   3.609   0.790   3.211  0.7109  0.5506 -0.5359
 7681TIP3    H144534   3.682   0.837   3.171  0.2923  1.8594  0.1701
 7681TIP3    H244535   3.531   0.838   3.182  0.2298 -0.0352 -0.2204
 7682TIP3   OH244536   6.374   1.381  15.993 -0.0810  0.0160  0.3600
 7682TIP3    H144537   6.461   1.343  16.004 -0.4657 -0.2674  3.2379
 7682TIP3    H244538   6.389   1.464  15.948  1.4105 -0.9088 -0.9663
 7683TIP3   OH244539   5.253   5.697  10.706  0.3106 -0.0079  0.0933
 7683TIP3    H144540   5.248   5.723  10.799  0.1665 -1.1556  0.4199
 7683TIP3    H244541   5.174   5.734  10.667 -0.0100 -0.1450  0.5983
 7684TIP3   OH244542   0.350   0.888  11.617 -0.3864  0.2701  0.4061
 7684TIP3    H144543   0.354   0.956  11.551 -0.7991 -1.2614 -1.2757
 7684TIP3    H244544   0.259   0.859  11.616  0.2866 -2.0661 -0.8692
 7685TIP3   OH244545   5.165   6.210  16.155  0.1971 -0.8885 -0.2632
 7685TIP3    H144546   5.081   6.175  16.184  0.7017 -0.5592  1.7837
 7685TIP3    H244547   5.230   6.162  16.208  1.0942  0.8004  0.2403
 7686TIP3   OH244548   4.720   1.701   2.343  0.7563 -0.2397 -0.0467
 7686TIP3    H144549   4.682   1.762   2.406  0.8109 -1.0429  0.7918
 7686TIP3    H244550   4.669   1.713   2.264  0.2342  0.3064  0.3630
 7687TIP3   OH244551   2.896   1.566   5.033 -0.0788 -0.0546  0.5324
 7687TIP3    H144552   2.941   1.629   5.090  0.0788 -1.6698  2.2877
 7687TIP3    H244553   2.927   1.587   4.945  0.9752  1.4504  1.2200
 7688TIP3   OH244554   3.772   2.243  14.168 -0.2138  0.5538 -0.0010
 7688TIP3    H144555   3.850   2.295  14.188 -0.3600  1.2711 -1.2189
 7688TIP3    H244556   3.762   2.185  14.244  0.9464  1.1086  0.6025
 7689TIP3   OH244557   1.514   3.044   5.341 -0.3085 -0.6334 -0.0816
 7689TIP3    H144558   1.538   3.124   5.389 -2.8949 -0.1613  0.5512
 7689TIP3    H244559   1.511   2.976   5.408 -2.7339 -0.2183  0.3344
 7690TIP3   OH244560   3.451   1.083  11.158  0.8317  0.0643 -0.4588
 7690TIP3    H144561   3.428   1.051  11.245  2.2599  0.4623  0.0924
 7690TIP3    H244562   3.372   1.071  11.106  0.2283 -1.0022  0.6633
 7691TIP3   OH244563   2.909   4.668  14.637  0.3209 -0.0032  0.3655
 7691TIP3    H144564   2.962   4.589  14.624 -1.2016 -1.2455  1.2744
 7691TIP3    H244565   2.824   4.645  14.599  0.2944  1.8091 -0.7623
 7692TIP3   OH244566   2.542   3.769  11.342  0.0845  0.0456 -0.4823
 7692TIP3    H144567   2.627   3.769  11.385  0.2939  1.2341 -0.8634
 7692TIP3    H244568   2.556   3.719  11.261  0.3468 -0.0063 -0.4052
 7693TIP3   OH244569   4.733   4.348  15.214 -0.1355  0.4592 -0.2818
 7693TIP3    H144570   4.788   4.391  15.147 -0.5094  1.3677 -0.0181
 7693TIP3    H244571   4.774   4.372  15.297  1.5534 -2.3365 -0.1700
 7694TIP3   OH244572   4.742   4.164  15.813 -0.3801 -0.7163  0.4903
 7694TIP3    H144573   4.815   4.161  15.751 -1.7820  0.6994 -1.3427
 7694TIP3    H244574   4.711   4.074  15.817  1.1242 -1.2440  0.9059
 7695TIP3   OH244575   6.064   4.595   5.473  1.0790 -0.2307  0.2765
 7695TIP3    H144576   6.072   4.683   5.436 -2.3585  0.7118  1.4103
 7695TIP3    H244577   6.153   4.558   5.468  2.5063  3.0229 -0.8171
 7696TIP3   OH244578   0.643   4.142   0.376  0.6713 -0.2316 -0.0654
 7696TIP3    H144579   0.722   4.176   0.334  0.8637 -1.3922 -0.7084
 7696TIP3    H244580   0.669   4.056   0.409 -0.3109 -0.6218 -0.2636
 7697TIP3   OH244581   1.196   2.971  10.216  0.4092 -0.6893  0.0899
 7697TIP3    H144582   1.274   2.933  10.175  0.0562 -1.6292  0.2852
 7697TIP3    H244583   1.122   2.925  10.176 -0.1584  1.1430 -1.1230
 7698TIP3   OH244584   5.894   3.035   2.968  0.5087  0.0147 -0.6261
 7698TIP3    H144585   5.943   3.117   2.973 -0.6504  0.6859  0.6235
 7698TIP3    H244586   5.956   2.968   2.996  0.4035  1.0207  2.3226
 7699TIP3   OH244587   4.902   4.940   3.204  0.0662 -0.2501  0.1726
 7699TIP3    H144588   4.899   5.021   3.154  0.0901 -1.3669 -1.7514
 7699TIP3    H244589   4.995   4.918   3.210  0.1444  0.4558  1.7289
 7700TIP3   OH244590   5.317   1.454  15.431  0.7242  0.3620 -0.2942
 7700TIP3    H144591   5.259   1.483  15.360 -0.8884 -2.3335 -0.2191
 7700TIP3    H244592   5.301   1.516  15.502 -2.1219 -0.2289 -0.3000
 7701TIP3   OH244593   5.302   4.271   4.560  0.0955 -0.0188 -0.1906
 7701TIP3    H144594   5.226   4.314   4.599 -0.4854 -0.4472 -0.8486
 7701TIP3    H244595   5.269   4.188   4.526  1.1947 -1.0139  1.0252
 7702TIP3   OH244596   6.038   0.475   0.108  0.5678  0.2733  0.0050
 7702TIP3    H144597   5.971   0.522   0.157  1.2838  0.2642  1.0353
 7702TIP3    H244598   6.117   0.528   0.118  0.5899  0.6120 -1.7229
 7703TIP3   OH244599   5.811   2.350   0.044  0.3836  0.3090 -0.7532
 7703TIP3    H144600   5.785   2.264   0.012 -0.3007  0.0533  0.4324
 7703TIP3    H244601   5.836   2.398  -0.034  0.3227 -0.8108 -1.4842
 7704TIP3   OH244602   5.094   3.458  14.457 -0.2004 -0.1443  0.0459
 7704TIP3    H144603   5.048   3.530  14.413  0.8780  0.0081 -0.8911
 7704TIP3    H244604   5.070   3.380  14.406  0.1554 -0.1385 -0.1378
 7705TIP3   OH244605   1.666   4.586   1.469 -0.2097  0.3049 -0.1136
 7705TIP3    H144606   1.645   4.571   1.561 -1.8182  1.5791 -0.2206
 7705TIP3    H244607   1.752   4.628   1.470  0.7596 -1.5826  0.6304
 7706TIP3   OH244608   3.613   4.880  17.053 -0.1258 -0.6598  0.4313
 7706TIP3    H144609   3.607   4.958  17.107  1.0246 -0.0768 -0.2583
 7706TIP3    H244610   3.691   4.893  16.999 -0.5280 -1.7871 -0.4762
 7707TIP3   OH244611   5.820   5.187   2.064 -0.0815  0.0320 -0.2363
 7707TIP3    H144612   5.912   5.209   2.052 -0.1244 -0.6412 -2.1292
 7707TIP3    H244613   5.780   5.201   1.977 -1.1681 -2.3366 -0.1887
 7708TIP3   OH244614   3.323   3.919  12.290  0.5546  0.3514  0.7133
 7708TIP3    H144615   3.312   3.954  12.379  2.0941  1.6726  0.4436
 7708TIP3    H244616   3.345   3.827  12.303  0.3451  0.4252  1.6929
 7709TIP3   OH244617   3.593   6.364   5.173 -0.4013 -0.3896 -0.2449
 7709TIP3    H144618   3.505   6.375   5.137 -0.7097 -0.4932  0.4447
 7709TIP3    H244619   3.616   6.274   5.154  0.9959  0.5055 -3.4655
 7710TIP3   OH244620   4.462   0.033  14.455  0.6488  0.1020 -0.0704
 7710TIP3    H144621   4.482  -0.057  14.479  1.0781  0.4316  0.8518
 7710TIP3    H244622   4.498   0.044  14.367  1.6630 -0.2730  0.2892
 7711TIP3   OH244623   6.774   3.279  11.289 -0.6312  0.0860 -0.1276
 7711TIP3    H144624   6.710   3.320  11.231 -0.0111  0.9746 -0.2031
 7711TIP3    H244625   6.835   3.350  11.311  0.1460 -0.6683  0.1902
 7712TIP3   OH244626   0.177   5.047  14.969  0.1741 -0.0805  0.5265
 7712TIP3    H144627   0.186   5.010  15.057  0.0455 -1.9449 -0.1922
 7712TIP3    H244628   0.118   4.987  14.923 -0.1145  1.0909 -0.7117
 7713TIP3   OH244629   0.358   4.270   5.572 -0.0820  0.0881 -0.2077
 7713TIP3    H144630   0.306   4.199   5.611  0.1603  0.7689  1.4550
 7713TIP3    H244631   0.294   4.321   5.523 -0.9835  0.7344  1.5498
 7714TIP3   OH244632   1.213   0.754   3.502  0.5426  0.3366  0.3044
 7714TIP3    H144633   1.225   0.721   3.413  0.6085  0.0230  0.4270
 7714TIP3    H244634   1.292   0.805   3.520  1.2249 -0.8160  0.7131
 7715TIP3   OH244635   4.823   0.040   6.621 -0.3365  0.7337 -0.3719
 7715TIP3    H144636   4.799   0.036   6.528  0.4592 -1.8683 -0.5569
 7715TIP3    H244637   4.874  -0.040   6.636 -0.1074  1.2723  2.2318
 7716TIP3   OH244638   3.290   0.561   4.010 -0.2823 -0.0399 -0.3806
 7716TIP3    H144639   3.290   0.656   4.001 -1.9663  0.2988  2.0230
 7716TIP3    H244640   3.361   0.542   4.071  0.8614 -0.5053 -1.8135
 7717TIP3   OH244641   1.682   2.006   5.113  0.0069  0.0846 -0.1176
 7717TIP3    H144642   1.767   1.964   5.123 -0.6007 -0.9818  0.7954
 7717TIP3    H244643   1.650   1.974   5.029 -0.5937 -1.6415  0.7085
 7718TIP3   OH244644   0.750   5.745  13.175  0.7913 -0.0812  0.4637
 7718TIP3    H144645   0.744   5.838  13.199 -1.0097  0.2619 -1.1219
 7718TIP3    H244646   0.696   5.700  13.239 -2.3390  0.6041 -1.4665
 7719TIP3   OH244647   4.567   4.359  14.222 -0.0479  0.2236  0.4766
 7719TIP3    H144648   4.621   4.421  14.272 -0.7575 -0.0617  1.6411
 7719TIP3    H244649   4.628   4.290  14.196  0.1465 -0.1613  1.8859
 7720TIP3   OH244650   1.095   3.560   4.704  0.2459  0.5256 -0.0730
 7720TIP3    H144651   1.180   3.534   4.668 -0.7889 -1.0756 -1.5295
 7720TIP3    H244652   1.053   3.610   4.633 -0.1629  1.0306  0.5093
 7721TIP3   OH244653   6.338   2.752   0.375 -0.6754 -0.9041  0.6049
 7721TIP3    H144654   6.352   2.800   0.457 -2.1103 -1.7653  1.3926
 7721TIP3    H244655   6.320   2.662   0.403  0.2347 -1.5388 -0.7457
 7722TIP3   OH244656   3.041   1.865  16.872 -0.1706  0.3191  0.1200
 7722TIP3    H144657   3.059   1.771  16.875 -0.4494  0.2716  0.3033
 7722TIP3    H244658   2.995   1.878  16.789  1.2314  0.5364 -0.6521
 7723TIP3   OH244659   2.131   3.303   2.761 -0.6495  1.0741  0.1678
 7723TIP3    H144660   2.045   3.331   2.794 -0.7295  1.2412 -0.1671
 7723TIP3    H244661   2.143   3.355   2.681 -0.4222  0.7479 -0.0126
 7724TIP3   OH244662   0.302   1.755  16.157 -0.4536  0.2589  0.7158
 7724TIP3    H144663   0.328   1.747  16.065  1.7920  1.4257  1.1905
 7724TIP3    H244664   0.287   1.848  16.170 -1.6043  0.0051  1.3604
 7725TIP3   OH244665   3.844   4.925  16.912  0.6953  0.3777 -0.1511
 7725TIP3    H144666   3.891   4.980  16.975  0.5594  1.3492 -0.8734
 7725TIP3    H244667   3.913   4.875  16.868  0.8374  0.0899  0.3957
 7726TIP3   OH244668   5.931   2.998  14.583  0.3495 -0.1666  0.1514
 7726TIP3    H144669   5.923   2.946  14.503 -1.2696  0.6280 -0.2509
 7726TIP3    H244670   6.017   2.976  14.618 -0.6501 -4.0416  0.6561
 7727TIP3   OH244671   2.440   0.283   3.395 -0.3718  0.3328 -0.3317
 7727TIP3    H144672   2.492   0.336   3.456 -0.4573  0.9020 -0.7399
 7727TIP3    H244673   2.438   0.335   3.315 -0.9226 -0.0443 -0.5667
 7728TIP3   OH244674   1.201   5.133  12.536  0.2581  0.0664  0.2520
 7728TIP3    H144675   1.220   5.129  12.442 -1.9213  1.5642 -0.3224
 7728TIP3    H244676   1.212   5.225  12.559 -1.0078  0.0437  1.0308
 7729TIP3   OH244677   1.997   2.033   5.458  0.5160 -0.2244  0.5074
 7729TIP3    H144678   2.001   2.115   5.507 -0.3181  0.2622 -0.2075
 7729TIP3    H244679   1.907   2.029   5.424  1.2337 -0.1788 -1.5502
 7730TIP3   OH244680   2.595   6.733  16.718 -0.5099 -0.1484 -0.4640
 7730TIP3    H144681   2.613   6.704  16.628 -2.7598 -0.7049 -0.7816
 7730TIP3    H244682   2.578   6.827  16.709 -2.5221 -0.5098 -0.9762
 7731TIP3   OH244683   5.702   5.465   0.915  0.3150 -0.1971 -0.1819
 7731TIP3    H144684   5.666   5.511   0.992 -0.9925  0.2645 -1.0324
 7731TIP3    H244685   5.652   5.384   0.910  1.0035 -0.6430 -0.0665
 7732TIP3   OH244686   4.649   3.233   2.748 -0.2144 -0.1824 -0.0605
 7732TIP3    H144687   4.731   3.184   2.741 -0.2175  0.0651 -4.0629
 7732TIP3    H244688   4.581   3.169   2.727 -0.9069  0.0845  1.2490
 7733TIP3   OH244689   5.874   2.915  15.588  0.4200 -0.5317 -0.0555
 7733TIP3    H144690   5.896   2.911  15.495  1.0033 -0.2131  0.0596
 7733TIP3    H244691   5.906   3.001  15.616  2.4713 -1.5741  0.9856
 7734TIP3   OH244692   0.710   3.877  14.987 -0.4260  0.5177 -0.2028
 7734TIP3    H144693   0.690   3.829  15.067 -2.1723  1.6358  0.0662
 7734TIP3    H244694   0.628   3.881  14.939 -0.5611  3.7704  0.1039
 7735TIP3   OH244695   5.771   3.357   5.613 -0.2483 -0.1297 -0.2737
 7735TIP3    H144696   5.703   3.290   5.606 -0.5087  0.0138  0.7818
 7735TIP3    H244697   5.781   3.373   5.707  1.2447 -0.1401 -0.4013
 7736TIP3   OH244698   4.724   3.607  16.708 -0.2884  1.2812  0.1495
 7736TIP3    H144699   4.633   3.627  16.729 -0.3423  0.9994  0.1789
 7736TIP3    H244700   4.773   3.644  16.782 -0.7116 -2.9253  2.9241
 7737TIP3   OH244701   0.434   4.617   0.678 -0.4112  0.2808  0.4553
 7737TIP3    H144702   0.514   4.610   0.627  0.2196  0.2543  1.4203
 7737TIP3    H244703   0.385   4.538   0.656 -0.6044  0.7354 -0.8322
 7738TIP3   OH244704   2.072   1.565   3.643  0.0227  0.0575  0.0150
 7738TIP3    H144705   1.983   1.539   3.620  0.1614 -0.0687 -0.3938
 7738TIP3    H244706   2.085   1.531   3.732 -0.0002 -0.7891 -0.2964
 7739TIP3   OH244707   4.529   3.901  13.652 -0.0981  0.3252 -0.0735
 7739TIP3    H144708   4.588   3.830  13.625  0.9671  1.7697 -1.7058
 7739TIP3    H244709   4.586   3.966  13.691 -0.6122  1.5840 -1.3376
 7740TIP3   OH244710   6.657   3.170  14.765  0.0037 -0.0899  0.4001
 7740TIP3    H144711   6.589   3.219  14.718 -0.6881 -0.9860  0.4430
 7740TIP3    H244712   6.612   3.133  14.841  0.8376  0.3444  1.1198
 7741TIP3   OH244713   3.407   1.149   0.792 -0.5835 -0.1017 -0.4922
 7741TIP3    H144714   3.446   1.152   0.879 -0.0919  0.2349 -0.7213
 7741TIP3    H244715   3.446   1.071   0.751  0.3924  0.6012 -0.9608
 7742TIP3   OH244716   1.249   6.209   6.274 -0.1050 -0.1616 -0.1106
 7742TIP3    H144717   1.333   6.252   6.290  0.0280 -0.0974 -0.9273
 7742TIP3    H244718   1.184   6.279   6.285 -0.2363 -0.5552  2.1709
 7743TIP3   OH244719   6.610   5.390  12.715  0.6541  0.2874 -0.3864
 7743TIP3    H144720   6.673   5.437  12.769 -0.0578  2.2678 -1.1682
 7743TIP3    H244721   6.591   5.310  12.763  1.4439  1.1018  1.3505
 7744TIP3   OH244722   2.985   4.965   3.159 -0.3389  0.2112  0.3760
 7744TIP3    H144723   3.068   5.008   3.137  0.0626 -0.8246 -0.1558
 7744TIP3    H244724   3.004   4.872   3.158 -2.4336 -0.4310 -4.1359
 7745TIP3   OH244725   5.508   6.097  14.964 -0.1399 -0.8272  0.0576
 7745TIP3    H144726   5.461   6.180  14.952 -1.2586 -1.5045 -0.4034
 7745TIP3    H244727   5.496   6.077  15.057 -0.5521 -0.8620 -0.0004
 7746TIP3   OH244728   5.786   1.100  15.377 -0.2901 -0.0882  0.2123
 7746TIP3    H144729   5.738   1.141  15.305  0.9910 -2.2277 -2.0226
 7746TIP3    H244730   5.788   1.167  15.445 -2.5847  1.6385 -1.2521
 7747TIP3   OH244731   5.820   4.980  15.720  0.2259 -0.7477 -0.3633
 7747TIP3    H144732   5.786   4.963  15.808 -1.3930 -0.4981 -0.9007
 7747TIP3    H244733   5.899   5.033  15.734 -1.7526  2.1252  0.9087
 7748TIP3   OH244734   0.397   6.033  10.235  0.3094 -0.0649 -0.4775
 7748TIP3    H144735   0.415   6.000  10.322  1.4595 -0.1521 -0.7354
 7748TIP3    H244736   0.302   6.023  10.224  0.1440  0.0279  0.7784
 7749TIP3   OH244737   6.565   0.286   4.694 -0.2421 -0.1015 -0.1147
 7749TIP3    H144738   6.654   0.249   4.692 -0.3895 -0.4455 -0.2887
 7749TIP3    H244739   6.519   0.242   4.623 -0.7682 -0.4804  0.4495
 7750TIP3   OH244740   4.024   2.733  11.447 -0.0448  0.2105  0.2059
 7750TIP3    H144741   3.931   2.745  11.427 -0.7956 -0.0903  3.0976
 7750TIP3    H244742   4.064   2.712  11.362 -2.7420 -0.5326 -0.9967
 7751TIP3   OH244743   6.041   0.294  10.237  0.4955 -0.3647 -0.1029
 7751TIP3    H144744   6.017   0.202  10.252 -0.5923 -0.2503 -0.9834
 7751TIP3    H244745   5.964   0.332  10.194  1.3807  0.6663 -0.8344
 7752TIP3   OH244746   0.511   2.069   3.168  0.1314 -0.2277  0.6607
 7752TIP3    H144747   0.567   2.027   3.103  0.5013  1.1171  0.0936
 7752TIP3    H244748   0.426   2.024   3.158  0.4163 -0.6111 -0.1661
 7753TIP3   OH244749   4.269   3.399  11.476 -0.1571 -0.0732  0.7131
 7753TIP3    H144750   4.295   3.421  11.387 -0.1004 -0.3787  0.6533
 7753TIP3    H244751   4.181   3.363  11.467 -0.2701  0.1732  0.8175
 7754TIP3   OH244752   0.280   1.723  13.430 -0.3875  0.0650 -0.3671
 7754TIP3    H144753   0.324   1.643  13.458  0.1847  0.5669  0.1961
 7754TIP3    H244754   0.258   1.708  13.338 -1.9173 -1.4425  0.2028
 7755TIP3   OH244755   6.052   3.435  15.642  0.3120 -0.3088  0.6452
 7755TIP3    H144756   6.000   3.457  15.565 -0.4139 -0.0755  1.1912
 7755TIP3    H244757   6.045   3.513  15.698  0.9067 -0.4408  0.9082
 7756TIP3   OH244758   2.825   1.427  16.658  0.1595  0.4384  0.5732
 7756TIP3    H144759   2.852   1.336  16.644  0.8339  0.5843  0.8802
 7756TIP3    H244760   2.829   1.466  16.570  0.0671  0.2256  0.4736
 7757TIP3   OH244761   0.605   5.827   3.715  0.3037  0.2519 -0.0498
 7757TIP3    H144762   0.696   5.821   3.684  0.8856  1.1122  1.4172
 7757TIP3    H244763   0.605   5.781   3.798 -0.4389  0.8953  0.3166
 7758TIP3   OH244764   1.794   4.577  16.595 -0.2498  0.6566 -0.0542
 7758TIP3    H144765   1.857   4.600  16.525 -0.9948  0.1203 -0.9180
 7758TIP3    H244766   1.848   4.540  16.664  0.4813  0.9358 -0.4606
 7759TIP3   OH244767   6.062   4.934   1.374 -0.0326  0.4271  0.7581
 7759TIP3    H144768   6.055   4.909   1.282 -1.9367  1.1698  0.6555
 7759TIP3    H244769   6.106   5.019   1.372  0.2351  0.2887  0.5804
 7760TIP3   OH244770   1.433   3.633  12.945 -0.0887 -0.0645  0.5409
 7760TIP3    H144771   1.486   3.693  12.998  2.9136 -2.3536  0.3781
 7760TIP3    H244772   1.432   3.672  12.858 -1.7553  1.7406  1.2801
 7761TIP3   OH244773   5.986   5.419   5.744 -0.3287  0.1597 -0.4378
 7761TIP3    H144774   5.924   5.358   5.784 -0.6226 -0.3979 -1.6740
 7761TIP3    H244775   6.071   5.378   5.757 -0.4432 -0.1218 -0.5659
 7762TIP3   OH244776   6.192   5.948   5.262  0.6733 -0.0628 -0.3640
 7762TIP3    H144777   6.208   5.929   5.355 -1.6603 -1.5075 -0.1723
 7762TIP3    H244778   6.272   5.991   5.232  1.6294  0.1422  2.2232
 7763TIP3   OH244779   0.114   4.725  12.050  0.2108  0.0580  0.0555
 7763TIP3    H144780   0.136   4.774  12.130 -1.4069  1.1723 -0.1381
 7763TIP3    H244781   0.147   4.636  12.067  2.5680  0.9655  0.7171
 7764TIP3   OH244782   2.174   5.399   1.371  0.8055  0.5864  0.4688
 7764TIP3    H144783   2.197   5.314   1.332 -0.0563  1.4669 -2.1881
 7764TIP3    H244784   2.087   5.386   1.407  1.3286 -0.0669  1.5347
 7765TIP3   OH244785   2.547   1.363  14.650  0.0352  0.7873 -0.7098
 7765TIP3    H144786   2.588   1.332  14.569 -2.3511  1.4596 -2.2828
 7765TIP3    H244787   2.596   1.320  14.719  1.9058 -0.1718 -2.5167
 7766TIP3   OH244788   0.908   4.377   3.090  0.4027  0.6355  0.4620
 7766TIP3    H144789   0.905   4.283   3.103  0.8577  0.5843  0.1718
 7766TIP3    H244790   1.001   4.399   3.088  0.3411  0.8621 -1.1289
 7767TIP3   OH244791   0.061   4.914   0.570  0.3144 -0.1407 -0.0636
 7767TIP3    H144792   0.071   4.826   0.533 -2.4592 -0.1955 -0.9513
 7767TIP3    H244793   0.046   4.900   0.664 -0.9293 -0.7362 -0.3300
 7768TIP3   OH244794   3.541   3.035   3.066  0.4924  0.3359  0.0191
 7768TIP3    H144795   3.458   2.987   3.068  0.6256 -0.1426 -2.5350
 7768TIP3    H244796   3.551   3.069   3.155 -0.3600 -3.0790  1.6104
 7769TIP3   OH244797   6.528   0.056  12.368  0.6327  0.5637  0.0045
 7769TIP3    H144798   6.504   0.140  12.407  0.7359  0.2816  0.6911
 7769TIP3    H244799   6.468  -0.007  12.408 -0.0209  0.4334 -1.1540
 7770TIP3   OH244800   2.377   4.434   2.580  0.2116  0.1004  0.1156
 7770TIP3    H144801   2.430   4.368   2.536  0.1375 -0.3947  0.7417
 7770TIP3    H244802   2.440   4.484   2.632 -0.0692 -1.6993  2.3846
 7771TIP3   OH244803   4.393   3.557   5.410 -0.1513 -0.3045  0.4274
 7771TIP3    H144804   4.354   3.607   5.482  0.6212  2.4749 -0.9351
 7771TIP3    H244805   4.487   3.560   5.428  0.0504  0.4497 -0.6554
 7772TIP3   OH244806   6.086   5.087  16.475  1.0576 -1.0319  0.7244
 7772TIP3    H144807   5.992   5.094  16.491  0.7921 -0.8920 -0.7797
 7772TIP3    H244808   6.127   5.118  16.556 -0.1897 -0.0659  1.0062
 7773TIP3   OH244809   1.789   4.895  13.754  0.5594 -0.0445 -0.5875
 7773TIP3    H144810   1.881   4.870  13.768  0.2701 -0.0661  1.5768
 7773TIP3    H244811   1.793   4.985  13.724  1.2657  0.4992  1.0313
 7774TIP3   OH244812   4.007   4.801   2.245  0.2950 -0.0580 -0.5135
 7774TIP3    H144813   4.099   4.792   2.271  0.5041 -0.4158 -1.3489
 7774TIP3    H244814   4.005   4.775   2.153 -0.3709  1.4584 -0.9653
 7775TIP3   OH244815   1.642   3.798   3.592  0.3153 -0.4119  0.3136
 7775TIP3    H144816   1.680   3.885   3.579 -0.6236  0.4252  2.5732
 7775TIP3    H244817   1.684   3.766   3.672  0.4606 -1.9679 -0.3546
 7776TIP3   OH244818   1.853   2.604  12.393  0.2908 -0.5501 -0.3795
 7776TIP3    H144819   1.840   2.671  12.325  2.1842 -1.2433 -1.5189
 7776TIP3    H244820   1.882   2.527  12.344  1.3760 -1.1757  1.1796
 7777TIP3   OH244821   1.006   3.486  15.401  0.3784  0.1236  0.0740
 7777TIP3    H144822   1.087   3.532  15.426 -0.5377  1.7536  0.1650
 7777TIP3    H244823   0.973   3.450  15.483  0.3230  0.6043  0.2652
 7778TIP3   OH244824   0.072   2.910   4.045  0.4955 -0.7619  0.5964
 7778TIP3    H144825   0.031   2.938   4.127 -0.2416 -1.1598  0.3744
 7778TIP3    H244826   0.004   2.857   4.001  0.3745  0.5352 -0.8799
 7779TIP3   OH244827   4.199   6.163   2.505 -0.1138  0.4722 -0.1559
 7779TIP3    H144828   4.233   6.247   2.476  0.6636 -0.0221 -0.7052
 7779TIP3    H244829   4.262   6.131   2.569  1.2354 -1.0323 -2.1008
 7780TIP3   OH244830   5.192   5.255  14.538 -0.0901 -0.2890  0.0422
 7780TIP3    H144831   5.267   5.201  14.565 -0.8918 -0.7961  1.3530
 7780TIP3    H244832   5.223   5.345  14.549  0.4442 -0.4911  0.2429
 7781TIP3   OH244833   5.256   5.431   3.791  0.3016 -0.3507 -0.4131
 7781TIP3    H144834   5.261   5.341   3.822 -0.0670 -1.0161 -2.1770
 7781TIP3    H244835   5.173   5.436   3.745  0.9222  0.5067 -1.4779
 7782TIP3   OH244836   0.402   5.670   0.832 -0.3226 -0.0807 -0.2475
 7782TIP3    H144837   0.338   5.700   0.897 -0.7571 -0.4177 -0.5146
 7782TIP3    H244838   0.480   5.723   0.850  0.0670 -1.1475  1.4982
 7783TIP3   OH244839   1.968   6.345  11.998 -0.1720  0.4966  0.0452
 7783TIP3    H144840   1.971   6.366  12.092  0.0334 -0.8278  0.3524
 7783TIP3    H244841   2.019   6.265  11.990  2.0158  1.9620 -1.6234
 7784TIP3   OH244842   3.449   1.087   2.276  0.2047 -0.3401 -0.2565
 7784TIP3    H144843   3.373   1.118   2.227 -1.1680  1.5943  2.7834
 7784TIP3    H244844   3.433   0.994   2.289  0.1258 -0.6917 -2.4560
 7785TIP3   OH244845   4.282   3.040  13.194  0.0207 -0.2143  0.0954
 7785TIP3    H144846   4.358   2.994  13.229 -1.2539 -1.9669  0.7030
 7785TIP3    H244847   4.220   3.044  13.267 -1.9210 -2.2158 -1.2744
 7786TIP3   OH244848   4.666   2.279   3.656  1.0013  0.1810 -0.2891
 7786TIP3    H144849   4.633   2.284   3.746  0.8556 -0.5571 -0.2941
 7786TIP3    H244850   4.592   2.245   3.605  1.5506 -0.8820 -0.4146
 7787TIP3   OH244851   3.751   0.752   0.053  0.4952 -0.0867 -0.6990
 7787TIP3    H144852   3.734   0.823   0.115 -1.2830 -1.0578  0.0142
 7787TIP3    H244853   3.735   0.791  -0.033  0.9524  0.7413 -0.4198
 7788TIP3   OH244854   4.454   5.493  12.278 -0.1026  0.8247  0.0730
 7788TIP3    H144855   4.401   5.417  12.253 -0.6433  1.3124 -0.2909
 7788TIP3    H244856   4.497   5.521  12.197  1.8114 -0.3846  0.6269
 7789TIP3   OH244857   1.085   2.964   3.682 -0.4816  0.3173 -0.2025
 7789TIP3    H144858   1.013   2.986   3.741 -0.1944 -0.8389  0.6257
 7789TIP3    H244859   1.141   3.041   3.682 -0.8511  0.5972  0.4937
 7790TIP3   OH244860   5.657   3.129  13.379 -0.7042 -0.1351 -0.1073
 7790TIP3    H144861   5.678   3.086  13.297  0.8843  2.2341 -1.0421
 7790TIP3    H244862   5.708   3.081  13.445 -2.3370 -2.3337 -0.3480
 7791TIP3   OH244863   0.722   5.490  16.820  0.0766 -0.2193  0.3505
 7791TIP3    H144864   0.769   5.409  16.800  1.1264 -0.2379  2.6054
 7791TIP3    H244865   0.715   5.535  16.735  0.7575 -1.9817 -0.6981
 7792TIP3   OH244866   2.076   4.067  14.824  0.3933  0.9230 -0.0046
 7792TIP3    H144867   1.985   4.096  14.821  0.2378  0.3927 -0.7305
 7792TIP3    H244868   2.070   3.971  14.824  0.9760  0.8679 -1.4652
 7793TIP3   OH244869   5.160   1.680  12.819 -0.5458 -0.3600  0.7261
 7793TIP3    H144870   5.181   1.710  12.731  0.5876  1.3038  1.5162
 7793TIP3    H244871   5.154   1.584  12.811  1.6241 -0.4369 -0.7566
 7794TIP3   OH244872   1.732   4.067   1.273 -0.1350 -0.7787 -0.0144
 7794TIP3    H144873   1.773   3.989   1.311 -0.6780 -0.4504  1.3060
 7794TIP3    H244874   1.804   4.130   1.266 -0.4986  0.2119  3.4129
 7795TIP3   OH244875   3.867   6.750  13.635 -0.2659  0.9259  0.0490
 7795TIP3    H144876   3.789   6.709  13.597 -0.5366  1.4281  0.0570
 7795TIP3    H244877   3.841   6.777  13.723  0.0233  0.7852  0.1803
 7796TIP3   OH244878   6.266   6.229  16.647 -0.7558 -0.1421 -0.3481
 7796TIP3    H144879   6.174   6.241  16.625 -0.7057  0.8456 -0.0555
 7796TIP3    H244880   6.283   6.293  16.717 -0.2037 -1.2624  0.5887
 7797TIP3   OH244881   6.335   5.616   6.292 -0.2088 -0.1200 -0.4320
 7797TIP3    H144882   6.346   5.689   6.231  1.5572 -0.1515 -0.1889
 7797TIP3    H244883   6.363   5.539   6.242 -0.9513 -0.4808 -0.3070
 7798TIP3   OH244884   3.290   0.250   1.312 -0.4233  0.5090  0.0236
 7798TIP3    H144885   3.350   0.256   1.237  1.9208 -1.4841  1.5940
 7798TIP3    H244886   3.220   0.191   1.282  1.4142 -1.7347 -0.1484
 7799TIP3   OH244887   3.416   4.117  16.577  0.0383 -0.6881 -0.3662
 7799TIP3    H144888   3.333   4.141  16.619  0.3434 -1.0375  0.4450
 7799TIP3    H244889   3.401   4.028  16.545  1.3081 -2.3460  3.1982
 7800TIP3   OH244890   1.876   4.037  10.893  0.1941 -0.4396 -0.2142
 7800TIP3    H144891   1.911   3.992  10.970 -0.8952  0.1308  0.6600
 7800TIP3    H244892   1.782   4.019  10.895 -0.2252  1.4830 -0.0469
 7801TIP3   OH244893   4.286   5.338   4.765 -0.0510 -0.5727  0.2120
 7801TIP3    H144894   4.375   5.324   4.798 -0.2776  0.8455  1.5758
 7801TIP3    H244895   4.290   5.425   4.723 -0.7016 -0.6773 -0.0737
 7802TIP3   OH244896   1.502   5.654   1.377 -0.1837  0.1529 -0.4598
 7802TIP3    H144897   1.478   5.740   1.411  0.0329  0.8350 -1.9228
 7802TIP3    H244898   1.419   5.611   1.357 -0.2766  0.3874 -0.5730
 7803TIP3   OH244899   6.590   3.046   4.892 -0.0278 -0.0123 -0.2566
 7803TIP3    H144900   6.555   2.957   4.902  1.2358 -0.3285  2.1097
 7803TIP3    H244901   6.681   3.033   4.864  0.4865  0.4397  1.1122
 7804TIP3   OH244902   3.691   3.211   2.908  0.3178 -0.1114  0.0776
 7804TIP3    H144903   3.637   3.133   2.919 -1.4454  1.1360  0.5288
 7804TIP3    H244904   3.687   3.230   2.814 -2.8647  1.8594  0.4976
 7805TIP3   OH244905   2.778   4.274  14.960  0.6753  0.0102  0.0218
 7805TIP3    H144906   2.683   4.286  14.951  0.7225  1.1124  0.7858
 7805TIP3    H244907   2.815   4.361  14.941  1.6901 -0.7889 -2.0248
 7806TIP3   OH244908   6.617   5.824   0.365  0.7953 -0.4190 -0.1625
 7806TIP3    H144909   6.647   5.808   0.454  1.1454 -1.6172 -0.4707
 7806TIP3    H244910   6.627   5.739   0.321 -0.8710 -0.2635 -0.9083
 7807TIP3   OH244911   5.119   0.618   0.275 -0.2010  0.0302  0.0229
 7807TIP3    H144912   5.163   0.543   0.235  1.0447 -0.0405  1.4538
 7807TIP3    H244913   5.025   0.601   0.261  0.1328  0.2221 -3.1445
 7808TIP3   OH244914   1.538   4.683  16.602  0.0448  0.4913  0.6707
 7808TIP3    H144915   1.620   4.633  16.600  0.0937  0.5437  1.2766
 7808TIP3    H244916   1.549   4.744  16.674 -0.0659  1.3057  0.0102
 7809TIP3   OH244917   2.634   0.047   2.557  0.7407  0.0555 -0.0570
 7809TIP3    H144918   2.547   0.047   2.596  0.7374  1.6452  0.0268
 7809TIP3    H244919   2.619   0.032   2.464  0.4977 -0.9293  0.1348
 7810TIP3   OH244920   5.564   5.997   2.215 -0.3910  0.2120  0.0210
 7810TIP3    H144921   5.641   5.975   2.162 -0.9434 -0.5075 -0.5091
 7810TIP3    H244922   5.555   6.092   2.206  1.5518  0.6117  1.6643
 7811TIP3   OH244923   6.391   6.181  13.092 -0.1025 -0.2256 -0.6436
 7811TIP3    H144924   6.384   6.248  13.161 -1.0661 -0.9575  0.0055
 7811TIP3    H244925   6.484   6.179  13.071  0.1990  0.1382  0.5253
 7812TIP3   OH244926   6.754   4.074  10.507 -0.1874  0.0136 -0.1034
 7812TIP3    H144927   6.672   4.055  10.554  0.4999 -1.8254  0.4317
 7812TIP3    H244928   6.763   4.169  10.512 -2.5545  0.3348 -0.6309
 7813TIP3   OH244929   1.394   0.522  16.211 -0.1213  0.2449  0.3458
 7813TIP3    H144930   1.334   0.510  16.137  0.8649  1.2350 -0.6551
 7813TIP3    H244931   1.468   0.465  16.191  0.3848  0.9138  0.2870
 7814TIP3   OH244932   4.273   3.218  12.828  0.2692 -0.1784  0.4365
 7814TIP3    H144933   4.190   3.256  12.799  0.4361  1.4567  1.9259
 7814TIP3    H244934   4.322   3.203  12.747 -0.0650  2.3070 -0.3051
 7815TIP3   OH244935   2.264   6.446   4.662 -0.3795  0.4558 -0.1233
 7815TIP3    H144936   2.352   6.449   4.623  0.2307 -1.1159  1.0194
 7815TIP3    H244937   2.263   6.518   4.725 -0.3478  1.2146 -0.9736
 7816TIP3   OH244938   0.952   5.040  11.959  0.1421  0.4329 -0.0633
 7816TIP3    H144939   0.877   5.039  11.900 -0.1855 -2.1299  0.2589
 7816TIP3    H244940   0.998   4.958  11.940  2.3183  1.4526  0.4699
 7817TIP3   OH244941   2.619   4.847   2.523 -0.1171 -0.2326  0.1791
 7817TIP3    H144942   2.689   4.812   2.468 -0.9685 -0.9075 -0.5064
 7817TIP3    H244943   2.539   4.828   2.475 -0.7281  1.3435  0.5156
 7818TIP3   OH244944   0.697   4.981  16.409 -0.1744  0.0958 -0.6611
 7818TIP3    H144945   0.650   5.039  16.469 -0.0179 -1.3395  0.8951
 7818TIP3    H244946   0.641   4.977  16.331 -1.4584  0.3170  0.2224
 7819TIP3   OH244947   0.094   4.879   4.949  0.0071  0.2131 -0.4678
 7819TIP3    H144948   0.044   4.905   5.026 -0.8007  0.3545 -1.0275
 7819TIP3    H244949   0.105   4.959   4.898 -0.5758 -0.1127 -1.1219
 7820TIP3   OH244950   2.351   5.247   0.167  0.2292  0.0792 -0.2052
 7820TIP3    H144951   2.397   5.169   0.197 -0.9878 -0.3911  0.4781
 7820TIP3    H244952   2.333   5.297   0.247 -1.2155 -0.1876 -0.3289
 7821TIP3   OH244953   3.961   5.735  14.354  0.2160  0.4019 -0.2860
 7821TIP3    H144954   4.000   5.776  14.431  1.2110  0.6366 -0.8999
 7821TIP3    H244955   4.000   5.647  14.350  0.0048  0.3110 -0.4046
 7822TIP3   OH244956   6.826   2.774  15.705 -0.1895  0.0529  0.3457
 7822TIP3    H144957   6.786   2.806  15.786  0.3105  1.3506  0.1077
 7822TIP3    H244958   6.793   2.833  15.637 -0.3260 -0.8012 -0.3510
 7823TIP3   OH244959   6.252   1.316  15.302  0.4603 -0.2082  0.5128
 7823TIP3    H144960   6.246   1.380  15.231  0.9985  0.1561  0.7959
 7823TIP3    H244961   6.345   1.312  15.324  0.7557 -2.4775 -0.7709
 7824TIP3   OH244962   0.657   4.921   5.371  0.3383 -0.1952  0.0958
 7824TIP3    H144963   0.616   4.879   5.447  0.6531  0.4146  0.6165
 7824TIP3    H244964   0.747   4.889   5.372 -0.0046 -1.2634 -0.8451
 7825TIP3   OH244965   0.846   2.700   0.838  0.0920 -0.1271  0.2731
 7825TIP3    H144966   0.776   2.644   0.873  0.3076 -0.8991 -0.5105
 7825TIP3    H244967   0.922   2.679   0.892 -0.0288  0.0171  0.5057
 7826TIP3   OH244968   5.414   4.340  12.185 -0.4903 -0.0560  0.2786
 7826TIP3    H144969   5.402   4.410  12.249  0.3663 -0.5156  0.9671
 7826TIP3    H244970   5.367   4.371  12.107 -0.6640  0.9905  0.7713
 7827TIP3   OH244971   0.702   5.737  12.138  0.1393 -0.1400  0.0939
 7827TIP3    H144972   0.671   5.660  12.092  2.5814 -0.9284 -0.3449
 7827TIP3    H244973   0.688   5.809  12.077 -1.0173 -0.4018  0.0296
 7828TIP3   OH244974   4.603   0.194   5.100  0.1620 -0.5009  0.0895
 7828TIP3    H144975   4.608   0.285   5.130 -1.1141  0.7331 -2.9066
 7828TIP3    H244976   4.692   0.173   5.073  0.3283  0.2026  0.0593
 7829TIP3   OH244977   0.244   1.462  17.007 -0.2766 -1.1825  0.1329
 7829TIP3    H144978   0.306   1.390  17.021 -1.3450 -1.7903  2.2630
 7829TIP3    H244979   0.158   1.421  17.013 -0.9567 -0.2593 -2.2096
 7830TIP3   OH244980   1.671   5.679   3.996 -0.5096  0.2622 -0.1403
 7830TIP3    H144981   1.670   5.695   3.902 -0.8443 -1.3208 -0.4233
 7830TIP3    H244982   1.692   5.586   4.005 -4.6143 -0.7768  1.1306
 7831TIP3   OH244983   5.868   3.517   4.170 -0.2179 -0.1187 -0.3327
 7831TIP3    H144984   5.889   3.461   4.095  1.7891  1.1157 -0.7670
 7831TIP3    H244985   5.946   3.514   4.225 -0.6999  0.9663  0.4508
 7832TIP3   OH244986   5.688   3.991   1.515 -0.6152 -0.9498 -0.5678
 7832TIP3    H144987   5.639   4.074   1.515  0.9662  0.0409  0.3960
 7832TIP3    H244988   5.707   3.974   1.423  0.1808  0.5066 -0.7066
 7833TIP3   OH244989   2.485   4.442   6.463  0.3023  0.0208  0.2018
 7833TIP3    H144990   2.461   4.451   6.371  1.8015  1.0168 -0.1341
 7833TIP3    H244991   2.446   4.518   6.506  2.2838  1.3811 -0.2591
 7834TIP3   OH244992   4.986   4.359  16.746  0.7721 -0.3440 -0.7091
 7834TIP3    H144993   4.958   4.268  16.737  1.9921 -0.8292  0.0383
 7834TIP3    H244994   5.079   4.358  16.721  1.0776  0.4886  0.3134
 7835TIP3   OH244995   0.002   5.776  11.517 -0.0685  0.6794  0.4639
 7835TIP3    H144996  -0.071   5.777  11.455 -1.0761 -2.6665  1.3674
 7835TIP3    H244997  -0.037   5.750  11.600  2.0971 -1.4464  0.9476
 7836TIP3   OH244998   0.594   3.261  14.332  0.3078  0.0508  0.4341
 7836TIP3    H144999   0.575   3.350  14.305 -1.4379 -0.0446  1.2510
 7836TIP3    H245000   0.648   3.225  14.261  0.1470  1.4102 -0.3959
 7837TIP3   OH245001   6.720   5.567   2.652 -0.0300  0.1650 -0.1705
 7837TIP3    H145002   6.802   5.616   2.643  0.1720 -0.2726 -0.7836
 7837TIP3    H245003   6.705   5.530   2.565 -0.4853 -0.3809  0.1386
 7838TIP3   OH245004   2.484   1.462   1.082 -0.1495 -0.1358  0.2723
 7838TIP3    H145005   2.537   1.394   1.123 -0.7804 -0.5130  0.4804
 7838TIP3    H245006   2.539   1.497   1.012 -0.0185 -1.2142 -0.1766
 7839TIP3   OH245007   0.469   4.984   5.685 -0.7186 -0.0514  0.3959
 7839TIP3    H145008   0.545   4.954   5.734 -0.1144 -1.3059 -1.2291
 7839TIP3    H245009   0.394   4.956   5.737 -0.1028 -1.8745  0.3763
 7840TIP3   OH245010   4.569   0.995   3.752  0.5940 -0.1908 -0.2469
 7840TIP3    H145011   4.531   1.047   3.823  1.5468  1.8870 -1.1908
 7840TIP3    H245012   4.495   0.974   3.695 -0.0837 -1.4074  1.0053
 7841TIP3   OH245013   0.070   5.382   3.814 -0.7763  0.0509  0.1672
 7841TIP3    H145014   0.132   5.311   3.830 -2.0837 -1.5609 -1.5629
 7841TIP3    H245015   0.054   5.420   3.901  1.4314 -0.4556  0.8447
 7842TIP3   OH245016   2.607   3.417  11.313 -0.2265  0.2457  0.0648
 7842TIP3    H145017   2.559   3.447  11.390  1.3548  0.7335  0.9160
 7842TIP3    H245018   2.690   3.383  11.348  0.3852  0.1588 -1.3823
 7843TIP3   OH245019   3.853   4.038   2.354  0.4834  0.0385  0.2469
 7843TIP3    H145020   3.804   4.047   2.272  0.0179 -2.0283  0.2348
 7843TIP3    H245021   3.867   3.943   2.363  1.1100  0.2754  2.2252
 7844TIP3   OH245022   3.970   0.997   0.545 -0.3388 -0.0454 -0.5660
 7844TIP3    H145023   3.898   0.976   0.605 -0.1790 -1.0050 -0.6929
 7844TIP3    H245024   4.035   1.041   0.599 -0.5953 -0.0726 -0.2341
 7845TIP3   OH245025   6.028   6.333  10.287 -0.1867 -0.3593  0.1440
 7845TIP3    H145026   6.078   6.263  10.246 -0.8570 -0.8303  0.1004
 7845TIP3    H245027   6.093   6.390  10.327  0.4021 -0.6122 -0.4522
 7846TIP3   OH245028   4.378   0.162  13.165  0.5027  0.3175 -0.2923
 7846TIP3    H145029   4.346   0.251  13.182 -0.2246  0.0769 -0.4029
 7846TIP3    H245030   4.456   0.155  13.221  0.1921  0.7962  0.2190
 7847TIP3   OH245031   4.940   4.144  16.319  0.0150  0.1923  0.3301
 7847TIP3    H145032   4.956   4.216  16.379 -1.8251  2.3119 -1.5186
 7847TIP3    H245033   4.856   4.107  16.346  0.0056  0.0290  0.0902
 7848TIP3   OH245034   1.556   1.654  15.629 -0.4996  0.3186 -0.5786
 7848TIP3    H145035   1.558   1.564  15.663  2.8133 -0.2956 -2.0124
 7848TIP3    H245036   1.503   1.647  15.549 -0.4679 -0.2886 -0.5558
 7849TIP3   OH245037   2.917   1.481  16.368 -0.8597  0.2087 -0.4280
 7849TIP3    H145038   2.902   1.393  16.333  0.0074 -0.1811  0.1491
 7849TIP3    H245039   3.012   1.487  16.379 -0.7565  1.7008 -1.6901
 7850TIP3   OH245040   3.077   1.146  10.692  0.0052 -0.0006  0.2959
 7850TIP3    H145041   3.143   1.208  10.724 -1.4398  0.6782  2.1589
 7850TIP3    H245042   3.126   1.087  10.634  2.0740  0.9233  0.9878
 7851TIP3   OH245043   3.995   4.306  16.580 -0.1560 -1.1189 -0.2782
 7851TIP3    H145044   4.029   4.365  16.513 -1.8602 -0.3753 -0.5353
 7851TIP3    H245045   4.073   4.273  16.625  1.1227 -2.3147 -3.1433
 7852TIP3   OH245046   0.817   0.446   0.283 -0.5254  0.5620 -0.2523
 7852TIP3    H145047   0.822   0.386   0.357 -1.0965  1.1190  0.2435
 7852TIP3    H245048   0.778   0.393   0.213 -2.3345  0.7077  0.5888
 7853TIP3   OH245049   1.699   1.506  12.136  0.0513  0.3261 -0.1909
 7853TIP3    H145050   1.605   1.491  12.148 -0.0787  0.9146 -0.4526
 7853TIP3    H245051   1.741   1.449  12.200 -0.5244  1.0750  0.8713
 7854TIP3   OH245052   6.825   4.068   3.511  0.2248 -0.2220 -0.2213
 7854TIP3    H145053   6.768   3.998   3.480  1.0057 -0.8526 -0.2673
 7854TIP3    H245054   6.812   4.069   3.606  1.0059 -1.1825 -0.0804
 7855TIP3   OH245055   5.111   4.334  12.601  0.0758  0.2516  0.2054
 7855TIP3    H145056   5.123   4.367  12.512 -0.1488  2.7213  1.0286
 7855TIP3    H245057   5.028   4.286  12.597 -1.4642  2.7723 -0.3408
 7856TIP3   OH245058   2.155   6.686   5.447 -0.0118 -0.0086 -0.3434
 7856TIP3    H145059   2.203   6.644   5.519  0.4484 -0.5872 -0.9651
 7856TIP3    H245060   2.115   6.763   5.486 -1.2655 -1.2516  0.9581
 7857TIP3   OH245061   2.096   5.755   0.724  0.4172 -0.4116  0.1573
 7857TIP3    H145062   2.081   5.846   0.748 -1.1828 -0.8393  0.9372
 7857TIP3    H245063   2.096   5.707   0.807  0.4506 -1.2132 -0.2890
 7858TIP3   OH245064   4.983   0.612  15.978  0.5362  0.4403  0.1715
 7858TIP3    H145065   4.929   0.558  16.036 -0.1562  0.1603 -0.7218
 7858TIP3    H245066   5.042   0.550  15.936  2.1600  0.8328  1.7272
 7859TIP3   OH245067   0.738   6.541  15.126  0.0408  0.5783  0.0925
 7859TIP3    H145068   0.726   6.550  15.220  0.8286  0.8647  0.1785
 7859TIP3    H245069   0.825   6.578  15.110 -0.1720  0.7278 -0.7738
 7860TIP3   OH245070   5.787   3.401  12.707 -0.3865  0.1363 -0.6171
 7860TIP3    H145071   5.809   3.354  12.626 -2.3872 -0.2503 -0.9888
 7860TIP3    H245072   5.733   3.474  12.679 -0.4615  0.4496  0.3130
 7861TIP3   OH245073   6.068   1.851  15.156  0.4352  0.1468 -0.5667
 7861TIP3    H145074   6.066   1.856  15.252 -0.6403  0.0113 -0.5641
 7861TIP3    H245075   6.158   1.830  15.134  0.1476 -2.6092  0.5729
 7862TIP3   OH245076   2.857   6.137  10.078 -0.5456  0.7367 -0.2395
 7862TIP3    H145077   2.768   6.131  10.044 -0.3581 -1.2750 -0.4989
 7862TIP3    H245078   2.907   6.177  10.008 -1.3200  2.3849  0.1104
 7863TIP3   OH245079   2.052   6.595  11.312  0.3248 -0.3421 -0.1228
 7863TIP3    H145080   2.109   6.658  11.269  1.9797 -1.3315  0.5571
 7863TIP3    H245081   2.017   6.541  11.242 -2.4977  2.2869 -0.9498
 7864TIP3   OH245082   4.307   5.866   2.186  0.4142 -0.3472 -0.0829
 7864TIP3    H145083   4.298   5.949   2.139  0.4541 -0.5398 -0.4364
 7864TIP3    H245084   4.401   5.861   2.206  0.0899  0.7236  1.8693
 7865TIP3   OH245085   4.573   6.219   4.307 -0.1937 -0.8881  0.2392
 7865TIP3    H145086   4.572   6.126   4.285  2.7897 -0.9780  0.1386
 7865TIP3    H245087   4.562   6.221   4.402 -3.1273 -1.0759  0.0061
 7866TIP3   OH245088   6.588   4.736  11.434  0.6771  0.1328 -0.6749
 7866TIP3    H145089   6.678   4.706  11.421  2.0744  3.0178  1.2696
 7866TIP3    H245090   6.577   4.806  11.370 -0.2567 -0.2120 -0.9112
 7867TIP3   OH245091   4.418   5.350  15.701 -0.2566  0.1819  0.4711
 7867TIP3    H145092   4.496   5.398  15.730 -0.6221 -0.5910  2.9460
 7867TIP3    H245093   4.373   5.326  15.782 -3.3637  0.9991 -0.8798
 7868TIP3   OH245094   4.638   4.607  16.369 -0.2824 -0.2194  0.1078
 7868TIP3    H145095   4.673   4.643  16.451  1.6676 -2.9046  0.6187
 7868TIP3    H245096   4.584   4.533  16.398  0.6945 -1.4031 -0.9697
 7869TIP3   OH245097   5.204   3.679   3.550 -0.1259 -0.0680  0.3881
 7869TIP3    H145098   5.255   3.680   3.631  1.3797 -1.1186 -0.5058
 7869TIP3    H245099   5.200   3.587   3.525  0.1034  0.3111 -1.1371
 7870TIP3   OH245100   4.587   2.517   1.513  0.3470 -0.0682  0.0519
 7870TIP3    H145101   4.674   2.544   1.542  0.1091 -1.3765  2.2051
 7870TIP3    H245102   4.528   2.581   1.552  0.2882  0.8301 -1.4241
 7871TIP3   OH245103   3.460   2.324  13.158  0.1484  0.2918  0.0723
 7871TIP3    H145104   3.405   2.250  13.135 -1.2371  1.2869  0.0663
 7871TIP3    H245105   3.519   2.335  13.083 -0.6143  0.0923 -0.5684
 7872TIP3   OH245106   3.801   3.075  16.718  0.2808 -0.2267  0.1342
 7872TIP3    H145107   3.826   3.009  16.782  1.1480 -0.7839 -0.7544
 7872TIP3    H245108   3.883   3.117  16.693 -0.1407  0.5078 -0.0600
 7873TIP3   OH245109   4.467   4.240  15.834  0.4768 -0.1070  0.3099
 7873TIP3    H145110   4.556   4.261  15.863  0.4845 -0.5842  0.6478
 7873TIP3    H245111   4.469   4.249  15.739  0.9431 -0.3161  0.2980
 7874TIP3   OH245112   5.953   3.289  12.457 -0.2469  0.3458 -0.2085
 7874TIP3    H145113   6.031   3.342  12.440  1.3652 -1.6504  0.5402
 7874TIP3    H245114   5.923   3.262  12.370  0.2914  0.5879 -0.4709
 7875TIP3   OH245115   3.281   6.154   3.417 -0.1771  0.0347 -0.2210
 7875TIP3    H145116   3.305   6.196   3.334  1.1234 -0.2184  0.0077
 7875TIP3    H245117   3.217   6.087   3.391  0.9631 -0.7362 -1.2057
 7876TIP3   OH245118   5.863   5.904  11.868  0.0246  0.2459  0.1591
 7876TIP3    H145119   5.858   5.882  11.775 -0.1104  0.9172  0.0016
 7876TIP3    H245120   5.811   5.836  11.912 -1.0749  0.7147 -0.3886
 7877TIP3   OH245121   2.423   2.844   5.621  0.1738  0.1512  0.5396
 7877TIP3    H145122   2.331   2.837   5.643  0.4893 -0.9895  1.6022
 7877TIP3    H245123   2.424   2.887   5.535 -1.2454  1.8472  1.3200
 7878TIP3   OH245124   4.757   0.442   0.437 -0.1640 -0.2164  0.3865
 7878TIP3    H145125   4.697   0.397   0.496  0.6230  0.1768  1.5263
 7878TIP3    H245126   4.790   0.516   0.488 -0.1234  0.6598 -0.8524
 7879TIP3   OH245127   1.085   6.126  14.132  0.3245  0.1089 -0.2825
 7879TIP3    H145128   1.138   6.190  14.084 -1.3053  1.8905  0.1908
 7879TIP3    H245129   0.999   6.131  14.091 -0.2277 -0.7531  0.7299
 7880TIP3   OH245130   5.049   6.333  12.487 -0.3499 -0.6565  0.1541
 7880TIP3    H145131   5.003   6.402  12.439 -2.8312 -2.3840 -0.1399
 7880TIP3    H245132   5.044   6.360  12.579  1.1530  0.8399 -0.1577
 7881TIP3   OH245133   5.907   5.161   2.753 -0.0700  0.7737  0.3450
 7881TIP3    H145134   5.885   5.185   2.663  3.0606 -0.2020 -0.8144
 7881TIP3    H245135   5.916   5.244   2.798 -0.6411  1.3150 -0.4991
 7882TIP3   OH245136   4.118   2.452  15.633 -0.7716  0.4128  0.5051
 7882TIP3    H145137   4.058   2.395  15.584 -1.5769  0.0693  1.8440
 7882TIP3    H245138   4.204   2.412  15.621 -1.2814 -0.9802  1.2005
 7883TIP3   OH245139   1.125   0.325   0.559 -0.4584  0.0633  0.1275
 7883TIP3    H145140   1.152   0.416   0.558  0.3757 -0.1810 -0.1711
 7883TIP3    H245141   1.056   0.321   0.625 -1.3003  1.1213 -0.6535
 7884TIP3   OH245142   0.987   3.502  11.710  0.3032  0.1450 -0.3180
 7884TIP3    H145143   0.932   3.461  11.777 -0.4849 -1.7100 -1.9824
 7884TIP3    H245144   1.064   3.533  11.758 -0.0457 -1.4502  1.3998
 7885TIP3   OH245145   3.639   5.357   4.884  0.1298 -0.2140 -0.5004
 7885TIP3    H145146   3.671   5.300   4.954  0.3198  0.2844 -0.1756
 7885TIP3    H245147   3.569   5.307   4.841 -1.0903  0.0871  1.0495
 7886TIP3   OH245148   1.658   0.232   5.015 -0.1952  0.5502 -0.3039
 7886TIP3    H145149   1.734   0.179   5.040 -0.3911 -0.2430 -1.3349
 7886TIP3    H245150   1.696   0.315   4.987  0.3299  0.1115 -0.9470
 7887TIP3   OH245151   1.219   3.142  10.715 -0.5021  0.2604 -0.0330
 7887TIP3    H145152   1.267   3.059  10.724  0.1446  0.8777  3.2085
 7887TIP3    H245153   1.128   3.116  10.703 -0.2682 -0.9297  0.5854
 7888TIP3   OH245154   5.468   2.494   2.698 -0.1286  0.0926 -0.1553
 7888TIP3    H145155   5.515   2.524   2.621 -0.4984 -2.3796 -1.4630
 7888TIP3    H245156   5.412   2.568   2.723  1.3266  1.5748 -1.1178
 7889TIP3   OH245157   5.414   3.061  15.001  0.3092 -0.3190  0.2073
 7889TIP3    H145158   5.353   3.110  15.057 -0.0845  0.0701 -0.5473
 7889TIP3    H245159   5.359   2.996  14.958  0.4545 -0.0898 -0.3332
 7890TIP3   OH245160   6.084   4.709   4.451  0.0666  0.8813 -0.3278
 7890TIP3    H145161   6.138   4.750   4.518 -0.9654  1.3492  0.2312
 7890TIP3    H245162   5.997   4.745   4.465 -0.7120 -0.9043 -0.3124
 7891TIP3   OH245163   6.504   4.943  16.947 -0.0138 -0.6174  0.0375
 7891TIP3    H145164   6.538   5.024  16.908 -0.5160 -0.4148  0.0108
 7891TIP3    H245165   6.421   4.969  16.988 -0.2373 -1.1438 -0.0752
 7892TIP3   OH245166   6.700   3.511   0.307 -0.3204 -0.4807  0.2392
 7892TIP3    H145167   6.737   3.525   0.220 -2.7180  1.5219 -0.5831
 7892TIP3    H245168   6.684   3.599   0.341 -0.6998 -1.2386  2.1396
 7893TIP3   OH245169   0.980   2.043   2.271 -0.5488 -0.8954 -0.3260
 7893TIP3    H145170   1.056   2.100   2.283 -1.3401 -0.0014  0.7730
 7893TIP3    H245171   1.012   1.970   2.219  0.5594  0.4657 -1.6510
 7894TIP3   OH245172   5.519   6.595   0.746 -0.0040  0.2263 -0.1219
 7894TIP3    H145173   5.576   6.526   0.712 -0.8460 -0.3165 -0.4682
 7894TIP3    H245174   5.433   6.553   0.754 -0.2240  0.8469  0.9893
 7895TIP3   OH245175   0.319   6.344   0.044 -0.1582  0.2800  0.4806
 7895TIP3    H145176   0.312   6.302  -0.042 -0.6371 -0.0052  0.6591
 7895TIP3    H245177   0.237   6.393   0.054 -0.8866 -1.1022  1.5181
 7896TIP3   OH245178   2.966   0.529  16.975 -0.4534  0.1390 -0.2700
 7896TIP3    H145179   3.057   0.546  16.999 -0.8799  1.9484  0.2050
 7896TIP3    H245180   2.920   0.611  16.996 -2.0968 -0.5695 -0.9644
 7897TIP3   OH245181   2.260   0.473   1.730 -0.4341 -0.2733 -0.2725
 7897TIP3    H145182   2.307   0.410   1.784  1.5186  1.2044 -0.1461
 7897TIP3    H245183   2.225   0.537   1.792 -0.3898  0.0479 -0.5787
 7898TIP3   OH245184   4.966   3.075  13.551 -0.0525 -0.2295 -0.0612
 7898TIP3    H145185   5.046   3.116  13.585 -0.2586  0.0112  0.1327
 7898TIP3    H245186   4.961   3.105  13.460  0.5899 -1.0085 -0.3719
 7899TIP3   OH245187   0.414   3.821   3.987  0.3197  0.3285 -0.0545
 7899TIP3    H145188   0.474   3.776   3.927  2.4438  1.9456  0.7519
 7899TIP3    H245189   0.390   3.901   3.941  0.2551  0.5749  0.4097
 7900TIP3   OH245190   4.867   4.231  12.461 -0.2969  0.3734 -0.5584
 7900TIP3    H145191   4.844   4.218  12.553  0.7847 -1.2396 -0.4724
 7900TIP3    H245192   4.783   4.229  12.414 -0.7175 -0.6326  0.2106
 7901TIP3   OH245193   5.774   1.043  16.375  0.1219 -0.2045 -0.1236
 7901TIP3    H145194   5.696   1.045  16.320 -0.8666 -0.1341  1.2458
 7901TIP3    H245195   5.778   0.953  16.409 -0.4986  0.3058  1.3617
 7902TIP3   OH245196   2.949   6.398   2.709 -0.2323  0.3118  0.6817
 7902TIP3    H145197   2.885   6.329   2.725  0.8066 -1.1375 -1.1235
 7902TIP3    H245198   2.909   6.453   2.641 -0.6411  0.9481  1.4209
 7903TIP3   OH245199   3.101   0.940   5.726 -0.1689  0.0724 -0.5415
 7903TIP3    H145200   3.018   0.903   5.756  0.4499 -0.5684  0.4601
 7903TIP3    H245201   3.095   0.942   5.631 -1.6082  0.7187 -0.4578
 7904TIP3   OH245202   0.962   4.190   2.740 -0.3949 -0.3315  0.7328
 7904TIP3    H145203   0.988   4.261   2.799 -0.4295 -0.6007  1.0745
 7904TIP3    H245204   0.923   4.235   2.665  1.0172  0.0721  0.2144
 7905TIP3   OH245205   3.140   1.678  11.534  0.0500 -0.0882 -0.4548
 7905TIP3    H145206   3.084   1.748  11.567 -0.0659 -0.0404 -0.7556
 7905TIP3    H245207   3.229   1.706  11.558 -0.0076  0.0927 -0.4493
 7906TIP3   OH245208   4.084   5.912   5.073  0.0544  0.0388 -0.1647
 7906TIP3    H145209   4.084   5.974   5.000 -0.3393  0.7108  0.3968
 7906TIP3    H245210   4.119   5.831   5.035 -1.1120  0.0613 -1.3570
 7907TIP3   OH245211   3.042   0.296  13.189 -0.2976 -0.4289 -0.4336
 7907TIP3    H145212   2.982   0.260  13.254  1.2489 -1.8888  0.2776
 7907TIP3    H245213   3.003   0.379  13.163 -2.1491 -0.9078  0.6261
 7908TIP3   OH245214   5.623   1.881  11.208 -0.0586  0.2322  0.4517
 7908TIP3    H145215   5.688   1.918  11.149 -0.1056 -2.4654 -1.4722
 7908TIP3    H245216   5.675   1.835  11.275  0.0713 -0.9224 -0.4104
 7909TIP3   OH245217   3.789   5.510  11.826  0.1811 -0.8201 -0.3364
 7909TIP3    H145218   3.830   5.435  11.781  0.1291 -0.4559 -0.9993
 7909TIP3    H245219   3.800   5.583  11.765 -1.4948 -0.7208 -0.5559
 7910TIP3   OH245220   2.387   5.752   4.190 -0.4453 -0.1411  0.6284
 7910TIP3    H145221   2.309   5.718   4.234  0.0148 -0.6717  1.0623
 7910TIP3    H245222   2.459   5.728   4.248  0.0342  0.4169  0.2765
 7911TIP3   OH245223   6.512   1.122  13.759 -0.1993  0.1483 -0.3414
 7911TIP3    H145224   6.537   1.083  13.676  0.7165  1.1218 -0.5446
 7911TIP3    H245225   6.593   1.155  13.796 -0.7329  0.5580  0.5038
 7912TIP3   OH245226   4.472   0.108   3.055  0.1179  0.0651  0.1318
 7912TIP3    H145227   4.463   0.071   3.142  0.1025 -1.8861 -0.6449
 7912TIP3    H245228   4.415   0.054   3.000 -0.2037  1.5127 -1.0291
 7913TIP3   OH245229   4.635   3.252   5.323 -0.9667 -0.0857 -0.0409
 7913TIP3    H145230   4.708   3.192   5.334 -0.1385  1.1454  1.5784
 7913TIP3    H245231   4.594   3.256   5.409 -1.1872  1.4197 -0.1906
 7914TIP3   OH245232   6.669   4.449  11.077 -0.2442 -0.0050  0.0204
 7914TIP3    H145233   6.739   4.479  11.134  1.5173 -1.6632 -1.1604
 7914TIP3    H245234   6.630   4.529  11.042  0.4931  0.9517  1.3393
 7915TIP3   OH245235   3.201   0.562   0.536 -0.0574  0.3642  0.3079
 7915TIP3    H145236   3.263   0.573   0.608  0.7665  0.9316 -0.4772
 7915TIP3    H245237   3.158   0.479   0.555  0.5131  0.2472  1.1766
 7916TIP3   OH245238   3.112   6.693   3.378 -0.6893  0.4558 -0.4634
 7916TIP3    H145239   3.163   6.769   3.350  0.5708  0.0089  0.4875
 7916TIP3    H245240   3.065   6.723   3.456  1.3501 -0.2253  1.1074
 7917TIP3   OH245241   2.540   2.260   5.680  0.4446  0.0597  0.6530
 7917TIP3    H145242   2.554   2.353   5.699  0.0134  0.0091  1.2404
 7917TIP3    H245243   2.450   2.243   5.709  1.2939 -1.1000  2.7744
 7918TIP3   OH245244   3.299   2.202  15.847 -0.1088 -0.6441 -0.1873
 7918TIP3    H145245   3.234   2.188  15.916  1.5495 -0.8711  1.4199
 7918TIP3    H245246   3.326   2.293  15.857 -0.8669 -0.2374 -1.5259
 7919TIP3   OH245247   3.176   0.277  11.540 -0.2637 -0.0754  0.5057
 7919TIP3    H145248   3.098   0.329  11.525  0.8073  2.2302  2.3108
 7919TIP3    H245249   3.223   0.278  11.457 -0.3984  1.7172  0.4137
 7920TIP3   OH245250   5.370   3.129  13.307 -0.2010  0.3339  0.0381
 7920TIP3    H145251   5.435   3.119  13.376  0.0539 -2.0410 -0.4687
 7920TIP3    H245252   5.420   3.152  13.229 -0.3379  1.5876  0.3011
 7921TIP3   OH245253   3.717   5.355   2.171  0.7418 -0.3424  0.0882
 7921TIP3    H145254   3.703   5.271   2.215 -1.3728 -1.6019 -2.6815
 7921TIP3    H245255   3.656   5.415   2.213  1.2246 -0.5514  1.1112
 7922TIP3   OH245256   4.181   3.608  16.340 -0.0501  0.3174 -0.9762
 7922TIP3    H145257   4.162   3.524  16.381  1.0570  0.2477 -0.5702
 7922TIP3    H245258   4.152   3.598  16.249  1.1346 -0.9339 -1.2600
 7923TIP3   OH245259   6.465   4.804  13.514 -0.2192  0.3666  0.2849
 7923TIP3    H145260   6.456   4.835  13.604 -1.5462  1.1192 -0.0795
 7923TIP3    H245261   6.377   4.773  13.490  0.4245 -1.1258 -0.3080
 7924TIP3   OH245262   2.111   3.640   3.249  0.2544  0.3399 -0.1367
 7924TIP3    H145263   2.165   3.569   3.216  0.9388 -1.0254  3.4813
 7924TIP3    H245264   2.068   3.604   3.327  1.4137  4.0632  2.5251
 7925TIP3   OH245265   2.211   2.511  12.932 -0.0356 -0.4054 -0.2858
 7925TIP3    H145266   2.249   2.464  13.006  0.2657 -0.4935 -0.4974
 7925TIP3    H245267   2.182   2.443  12.872  1.1381 -0.3280 -0.9709
 7926TIP3   OH245268   0.299   5.722  16.335  0.5798 -0.3605  0.0305
 7926TIP3    H145269   0.375   5.675  16.370  0.2474 -0.7318  0.2593
 7926TIP3    H245270   0.279   5.788  16.401 -0.6053 -1.6419  1.0058
 7927TIP3   OH245271   2.429   3.770  14.167  0.3206 -0.1666  0.6119
 7927TIP3    H145272   2.486   3.782  14.091  0.4988 -0.0563  0.7616
 7927TIP3    H245273   2.422   3.675  14.177 -2.1122 -0.3013 -1.3401
 7928TIP3   OH245274   6.087   4.852  16.205 -0.1149  0.0521  0.4524
 7928TIP3    H145275   6.090   4.948  16.201 -0.7901  0.0609 -0.1160
 7928TIP3    H245276   6.151   4.823  16.140 -0.1326  0.1179  0.4057
 7929TIP3   OH245277   2.353   4.620   1.161 -0.9366  0.2626 -0.5426
 7929TIP3    H145278   2.385   4.533   1.134  0.9576  1.1314 -1.2596
 7929TIP3    H245279   2.270   4.602   1.204 -0.3782 -1.9632 -0.2644
 7930TIP3   OH245280   1.191   5.233   5.194 -0.3939 -0.0341 -0.6078
 7930TIP3    H145281   1.120   5.283   5.235  0.7259  1.0670  0.1122
 7930TIP3    H245282   1.156   5.145   5.183 -0.7942 -0.4394  2.8296
 7931TIP3   OH245283   3.145   1.328   1.178 -0.0158  0.4868  0.0236
 7931TIP3    H145284   3.057   1.321   1.142  0.0916  0.3212 -0.2105
 7931TIP3    H245285   3.188   1.246   1.154  0.2951  0.6878 -0.1218
 7932TIP3   OH245286   2.808   1.788  13.548  0.3940 -0.1796  0.2909
 7932TIP3    H145287   2.806   1.866  13.603  0.6738 -0.0663  0.1490
 7932TIP3    H245288   2.868   1.811  13.477 -1.1683  0.2676 -0.9482
 7933TIP3   OH245289   5.127   1.649  11.922  0.0547 -0.2302  0.1942
 7933TIP3    H145290   5.093   1.659  11.833 -0.5719  0.6476  0.5143
 7933TIP3    H245291   5.092   1.724  11.970  0.9429 -0.3146  1.0177
 7934TIP3   OH245292   1.887   1.447   2.833  0.1406 -0.4466  0.0351
 7934TIP3    H145293   1.797   1.417   2.818  0.1961  0.1192 -1.7094
 7934TIP3    H245294   1.924   1.383   2.894 -0.5360 -2.4989 -1.5857
 7935TIP3   OH245295   6.318   4.167  13.230 -0.4934 -0.2210  0.0380
 7935TIP3    H145296   6.266   4.087  13.242  0.6378 -0.8942  0.6609
 7935TIP3    H245297   6.345   4.190  13.319 -0.0937  0.3693 -0.2367
 7936TIP3   OH245298   2.629   0.269   4.571 -0.0915  0.0999  0.1751
 7936TIP3    H145299   2.677   0.222   4.640 -1.1161 -0.9674  0.1933
 7936TIP3    H245300   2.694   0.328   4.533  0.6217  0.3918  1.7516
 7937TIP3   OH245301   2.752   6.581  14.447 -0.2837 -0.0197 -0.1268
 7937TIP3    H145302   2.680   6.525  14.478 -1.0710  0.5211 -0.9429
 7937TIP3    H245303   2.717   6.625  14.369  1.5825 -1.2105 -1.7170
 7938TIP3   OH245304   2.988   3.569  15.388 -0.0045 -0.2426  0.4338
 7938TIP3    H145305   2.928   3.600  15.321 -1.8179 -1.6821  1.2970
 7938TIP3    H245306   3.010   3.480  15.361 -2.1331 -1.5172  2.4897
 7939TIP3   OH245307   0.427   1.206  13.985 -0.1020  0.3529  0.1573
 7939TIP3    H145308   0.340   1.189  13.948  0.3850 -0.0731 -0.8512
 7939TIP3    H245309   0.446   1.297  13.961 -0.2037  0.3877  0.2134
 7940TIP3   OH245310   5.815   5.537   0.018  0.1749 -0.3482 -0.0424
 7940TIP3    H145311   5.893   5.481   0.028  0.3898 -0.0003  0.2382
 7940TIP3    H245312   5.793   5.530  -0.075  1.6485  1.0025 -0.5442
 7941TIP3   OH245313   1.071   0.173   5.184 -0.1857  0.2033 -0.0931
 7941TIP3    H145314   1.148   0.229   5.195  0.6678 -0.6712 -1.3128
 7941TIP3    H245315   1.064   0.159   5.090 -3.2016  2.0417 -0.2737
 7942TIP3   OH245316   6.121   2.209  13.251  0.1747  0.1050 -0.0178
 7942TIP3    H145317   6.123   2.120  13.285 -0.3102  0.9870  2.5652
 7942TIP3    H245318   6.207   2.245  13.272 -0.0338  0.5990 -0.0052
 7943TIP3   OH245319   2.505   5.276  15.559  0.3781  0.3282 -0.0917
 7943TIP3    H145320   2.592   5.316  15.557  0.5412  0.0440  0.9119
 7943TIP3    H245321   2.447   5.343  15.523  0.7681  1.1616  0.7836
 7944TIP3   OH245322   6.413   3.656  13.867  0.1723  0.4050  0.0021
 7944TIP3    H145323   6.328   3.699  13.862 -0.5018 -1.0381 -1.2660
 7944TIP3    H245324   6.426   3.640  13.961 -1.3186 -0.0731  0.1473
 7945TIP3   OH245325   1.127   0.722   4.404  0.7260 -0.7814 -0.5976
 7945TIP3    H145326   1.222   0.723   4.392  0.7192  1.2679 -0.9611
 7945TIP3    H245327   1.092   0.702   4.318  0.8486  1.6560 -1.2990
 7946TIP3   OH245328   4.791   4.078   3.829  0.1410  0.2234  0.0290
 7946TIP3    H145329   4.797   4.160   3.878 -1.0742  0.2823  0.1105
 7946TIP3    H245330   4.882   4.050   3.819  0.4666  0.5348  1.7571
 7947TIP3   OH245331   3.294   0.119  15.924 -0.5034 -0.2042 -0.2393
 7947TIP3    H145332   3.371   0.161  15.887 -1.5405  0.6764 -1.4808
 7947TIP3    H245333   3.276   0.167  16.005  0.3016 -0.4972  0.1231
 7948TIP3   OH245334   0.911   3.796  13.119 -0.3871 -0.1491  0.3574
 7948TIP3    H145335   0.933   3.803  13.026 -1.2018 -0.6461  0.1160
 7948TIP3    H245336   0.936   3.707  13.144 -0.0078  0.0398  0.6653
 7949TIP3   OH245337   0.975   1.297   3.048 -0.5451 -0.4952  0.4172
 7949TIP3    H145338   1.063   1.260   3.047 -0.1639  0.2420  2.2912
 7949TIP3    H245339   0.934   1.262   3.127 -1.9404 -0.7767 -0.3858
 7950TIP3   OH245340   0.298   3.905  14.373  0.7949  0.0628 -0.1921
 7950TIP3    H145341   0.286   3.814  14.348 -2.1099  0.1532  0.4380
 7950TIP3    H245342   0.310   3.951  14.290 -0.0353 -0.6588 -0.7373
 7951TIP3   OH245343   0.331   5.711  11.860  0.4448 -0.4346 -0.4549
 7951TIP3    H145344   0.326   5.733  11.767  0.1896 -0.0538 -0.3556
 7951TIP3    H245345   0.284   5.628  11.868  0.6542 -0.5758 -0.7005
 7952TIP3   OH245346   4.908   6.481  13.248 -0.2592 -0.2708  0.3548
 7952TIP3    H145347   4.901   6.534  13.328  1.1378 -0.0785  0.3729
 7952TIP3    H245348   4.828   6.428  13.247 -0.5757  0.1516  1.5647
 7953TIP3   OH245349   5.759   6.405  12.420  0.4431  0.4028  0.2839
 7953TIP3    H145350   5.849   6.373  12.410 -0.0332 -0.4905 -1.5943
 7953TIP3    H245351   5.769   6.491  12.462  2.5942  2.4677 -3.8668
 7954TIP3   OH245352   6.312   2.219  12.663 -0.0254 -0.0945 -0.1537
 7954TIP3    H145353   6.258   2.222  12.584 -1.2837 -1.6176  0.5763
 7954TIP3    H245354   6.271   2.281  12.722 -1.1135 -1.3205  0.4351
 7955TIP3   OH245355   4.627   1.843  14.119 -0.4353 -0.1102  0.2309
 7955TIP3    H145356   4.666   1.883  14.041  0.9075 -0.5235  0.6647
 7955TIP3    H245357   4.561   1.783  14.084  0.5366 -0.7084 -0.6534
 7956TIP3   OH245358   2.392   2.813  14.253 -0.3812 -0.7240 -0.6036
 7956TIP3    H145359   2.312   2.864  14.251  0.1065  0.0530 -0.7285
 7956TIP3    H245360   2.368   2.732  14.299 -1.1087 -0.2901 -0.2043
 7957TIP3   OH245361   1.242   6.418  14.634 -0.4695 -0.8157  0.5438
 7957TIP3    H145362   1.330   6.456  14.633  0.3867 -2.6618  1.0322
 7957TIP3    H245363   1.231   6.381  14.547 -0.8014 -0.5478  0.4689
 7958TIP3   OH245364   6.674   1.296  12.905  0.0287 -0.5255  0.0645
 7958TIP3    H145365   6.613   1.352  12.857 -1.1043 -1.6269  0.1682
 7958TIP3    H245366   6.716   1.354  12.968 -1.5564  0.1185  0.5813
 7959TIP3   OH245367   2.823   1.054  14.601 -0.7340  0.3987  0.1120
 7959TIP3    H145368   2.846   1.144  14.578 -0.1154  0.8501  2.3136
 7959TIP3    H245369   2.739   1.039  14.557 -0.9045  2.0776 -0.2129
 7960TIP3   OH245370   3.552   3.358  12.756  0.1526  0.2710 -0.4569
 7960TIP3    H145371   3.545   3.282  12.814 -0.5201  0.9658  0.3929
 7960TIP3    H245372   3.647   3.373  12.749  0.2374  0.6786  1.1557
 7961TIP3   OH245373   1.211   3.468   3.737  0.1948  0.0719  0.6415
 7961TIP3    H145374   1.198   3.562   3.722  1.2461  0.4743  2.0467
 7961TIP3    H245375   1.164   3.449   3.818  0.1386 -0.5866  0.4621
 7962TIP3   OH245376   1.463   2.185  13.425  0.3857 -0.1288 -0.4545
 7962TIP3    H145377   1.515   2.111  13.397 -0.5608 -0.5127 -1.2700
 7962TIP3    H245378   1.522   2.237  13.479  0.7559 -2.0108  1.0513
 7963TIP3   OH245379   4.616   5.407  11.195 -0.3685  0.5698 -0.1920
 7963TIP3    H145380   4.710   5.410  11.212 -0.5436  0.8056  0.8604
 7963TIP3    H245381   4.578   5.387  11.281 -1.2335 -0.2529 -0.7599
 7964TIP3   OH245382   3.466   5.747  15.277  0.0845 -0.0165 -0.0958
 7964TIP3    H145383   3.432   5.660  15.299  0.1181  0.3292  1.4347
 7964TIP3    H245384   3.525   5.768  15.350  1.4825  0.5430 -1.3449
 7965TIP3   OH245385   1.105   5.151  10.940 -0.2076  0.4042  0.3895
 7965TIP3    H145386   1.078   5.086  11.004  4.1860 -1.0226  1.1218
 7965TIP3    H245387   1.116   5.102  10.859 -0.0084  0.9426  0.0852
 7966TIP3   OH245388   3.862   4.344   5.042  0.2766  0.1694  0.2650
 7966TIP3    H145389   3.831   4.259   5.012 -0.5202  1.1531 -1.8955
 7966TIP3    H245390   3.795   4.374   5.103  0.1333 -0.3717  0.3790
 7967TIP3   OH245391   5.399   2.222   5.382 -0.3527 -0.2480 -0.1268
 7967TIP3    H145392   5.486   2.202   5.350  0.0760 -0.3787  1.0589
 7967TIP3    H245393   5.381   2.311   5.350  1.1709  0.6997  1.4731
 7968TIP3   OH245394   0.235   1.826  16.809 -0.0093  0.2280 -0.5219
 7968TIP3    H145395   0.284   1.881  16.748  0.4463  0.8439  0.3599
 7968TIP3    H245396   0.274   1.847  16.895 -0.3229 -0.9399 -0.0815
 7969TIP3   OH245397   0.321   0.039   3.649  0.0530  0.0129  0.3944
 7969TIP3    H145398   0.281   0.110   3.700  0.5030 -0.5109  1.5008
 7969TIP3    H245399   0.251  -0.027   3.641 -0.2731  0.4379 -0.3843
 7970TIP3   OH245400   3.005   4.000   3.731  0.2775 -0.6914 -0.0880
 7970TIP3    H145401   2.941   4.054   3.779  0.2897 -0.8039  0.0574
 7970TIP3    H245402   2.978   4.007   3.639 -1.0997 -2.2438  0.1479
 7971TIP3   OH245403   5.353   6.057  13.214  0.6056 -0.0079  0.1407
 7971TIP3    H145404   5.305   6.010  13.146  2.0809  0.3712 -1.2255
 7971TIP3    H245405   5.415   5.993  13.248  1.4572  0.4339 -0.5348
 7972TIP3   OH245406   1.609   5.360   3.082 -0.4488 -0.4484  0.3793
 7972TIP3    H145407   1.602   5.352   2.987 -0.1568  0.9838  0.2193
 7972TIP3    H245408   1.531   5.315   3.115 -1.9682  1.2768 -0.6543
 7973TIP3   OH245409   2.163   3.157  16.999 -0.0800 -0.1446  0.1246
 7973TIP3    H145410   2.199   3.246  17.003  1.7568 -0.8759  1.3515
 7973TIP3    H245411   2.151   3.132  17.090  0.4001 -1.4946 -0.1599
 7974TIP3   OH245412   5.934   0.102  12.929 -0.6706  0.1859 -0.4857
 7974TIP3    H145413   5.958   0.130  13.017 -0.8437 -2.0672  0.3527
 7974TIP3    H245414   5.971   0.014  12.921 -1.7241 -0.1509 -2.1973
 7975TIP3   OH245415   3.099   6.835   3.982  0.1699  0.0052  0.2343
 7975TIP3    H145416   3.149   6.834   3.901 -0.7649 -0.9938 -0.3528
 7975TIP3    H245417   3.023   6.891   3.962  0.7486  1.0819  0.9487
 7976TIP3   OH245418   0.075   5.189  16.631 -0.1894  0.1045 -0.4038
 7976TIP3    H145419   0.155   5.172  16.682 -0.9380  0.2213  0.8740
 7976TIP3    H245420   0.106   5.236  16.553  0.8365  1.8889  0.9701
 7977TIP3   OH245421   5.038   5.479   3.291 -0.0540 -0.2710 -0.2162
 7977TIP3    H145422   5.087   5.457   3.211 -2.2595  1.7670 -2.2877
 7977TIP3    H245423   4.986   5.400   3.309  1.5055 -1.2700  0.1270
 7978TIP3   OH245424   2.179   5.716  16.482  0.3522 -0.0345  0.1390
 7978TIP3    H145425   2.215   5.770  16.552  3.1885 -0.9535 -0.5020
 7978TIP3    H245426   2.111   5.663  16.524 -1.1850  2.5961  1.1528
 7979TIP3   OH245427   6.127   4.410  11.782  0.0377  0.4113  0.3170
 7979TIP3    H145428   6.075   4.389  11.860 -0.2657 -1.0601 -0.2420
 7979TIP3    H245429   6.066   4.400  11.709  0.8052 -0.2044 -0.2571
 7980TIP3   OH245430   2.825   2.110  16.062 -0.3874  0.4730 -0.2791
 7980TIP3    H145431   2.792   2.105  16.152  0.0928 -1.2302 -0.1513
 7980TIP3    H245432   2.753   2.075  16.009 -0.9430  2.1373 -0.6620
 7981TIP3   OH245433   5.366   1.166  13.419  0.5655 -0.3992 -0.1936
 7981TIP3    H145434   5.329   1.242  13.462 -0.8609 -0.5998 -1.0101
 7981TIP3    H245435   5.428   1.201  13.355 -0.5592  0.1274 -1.0152
 7982TIP3   OH245436   6.598   4.962  13.133 -0.3951  0.5834  0.1518
 7982TIP3    H145437   6.656   4.933  13.062 -0.8079 -1.2613  0.5204
 7982TIP3    H245438   6.657   4.978  13.207  0.0401  2.5383 -0.5375
 7983TIP3   OH245439   4.112   6.747  16.451 -0.1917  0.6120  0.0879
 7983TIP3    H145440   4.033   6.693  16.450 -0.1095  0.4536  1.0621
 7983TIP3    H245441   4.098   6.808  16.523  0.2208  1.1275 -0.2696
 7984TIP3   OH245442   0.238   0.635  14.985 -0.3354  0.3756  0.3839
 7984TIP3    H145443   0.313   0.690  14.966  1.2514 -1.9717 -0.6128
 7984TIP3    H245444   0.162   0.685  14.956  1.1754  1.2234 -2.3942
 7985TIP3   OH245445   6.322   0.652  11.719  0.9775 -0.1370 -0.3648
 7985TIP3    H145446   6.391   0.702  11.762  0.8100 -1.3542  1.4448
 7985TIP3    H245447   6.352   0.561  11.722 -0.3472 -0.5919 -0.2168
 7986TIP3   OH245448   4.796   6.050  12.482  0.3041  0.3443  0.2553
 7986TIP3    H145449   4.786   5.960  12.512 -3.9484  0.8077  0.8237
 7986TIP3    H245450   4.839   6.042  12.397 -0.2304 -2.2305  0.1377
 7987TIP3   OH245451   1.866   6.508   2.313  0.1753  0.3250 -1.0528
 7987TIP3    H145452   1.838   6.599   2.319 -0.8449 -0.0469  0.1275
 7987TIP3    H245453   1.883   6.482   2.404 -0.3902 -0.9127 -1.2790
 7988TIP3   OH245454   1.487   2.024  15.906 -0.3135 -0.5852  0.3080
 7988TIP3    H145455   1.466   2.014  15.813  0.9048 -0.9675  0.0608
 7988TIP3    H245456   1.538   2.105  15.910  0.1642 -0.8913  0.5403
 7989TIP3   OH245457   1.504   3.660   1.137  0.0707  0.3061 -0.2231
 7989TIP3    H145458   1.436   3.608   1.180 -0.0939 -0.3261 -1.2106
 7989TIP3    H245459   1.486   3.750   1.164 -0.5619  0.0288  0.3101
 7990TIP3   OH245460   3.296   4.603  16.867 -0.0366  0.0248 -0.2783
 7990TIP3    H145461   3.283   4.674  16.804  5.0665  1.6815  0.1465
 7990TIP3    H245462   3.352   4.540  16.821 -0.3425 -1.2517  1.0290
 7991TIP3   OH245463   5.393   6.568  13.164 -0.6001 -0.3699  0.1192
 7991TIP3    H145464   5.386   6.514  13.243 -0.6263  0.3464  0.6150
 7991TIP3    H245465   5.303   6.599  13.149 -0.9468 -1.8894 -1.2011
 7992TIP3   OH245466   5.482   2.560  12.677 -0.2293 -0.1750 -0.1824
 7992TIP3    H145467   5.535   2.481  12.663  0.6795  0.3217  0.3650
 7992TIP3    H245468   5.394   2.535  12.647  0.2459 -1.0977 -0.8733
 7993TIP3   OH245469   6.578   2.403  15.723  0.0004  0.3244 -0.1303
 7993TIP3    H145470   6.525   2.410  15.802  1.6735 -0.8185  1.1529
 7993TIP3    H245471   6.514   2.394  15.652 -1.5299  0.7829  1.1485
 7994TIP3   OH245472   4.184   5.457   2.027 -0.0243  0.0032 -0.2649
 7994TIP3    H145473   4.264   5.406   2.037  0.5524  1.1528  1.3190
 7994TIP3    H245474   4.179   5.474   1.933  1.6411 -0.0333 -0.3914
 7995TIP3   OH245475   6.137   1.689   1.574 -0.2861  0.0557 -0.0168
 7995TIP3    H145476   6.083   1.767   1.578 -0.6485 -0.2272  0.8008
 7995TIP3    H245477   6.102   1.632   1.642  0.4369 -0.5219 -0.1151
 7996TIP3   OH245478   3.900   2.416  11.518  0.2417  0.0961  0.2494
 7996TIP3    H145479   3.928   2.430  11.428 -0.2587 -0.1593  0.0532
 7996TIP3    H245480   3.968   2.459  11.571  0.3342  0.5833 -0.2536
 7997TIP3   OH245481   5.357   0.233  15.505  0.7522  0.3694  0.5116
 7997TIP3    H145482   5.421   0.298  15.478  1.9345 -1.5473 -1.7613
 7997TIP3    H245483   5.406   0.151  15.511 -0.4654 -0.2958  4.2019
 7998TIP3   OH245484   3.915   5.203   4.720 -0.3378 -0.3788 -0.1434
 7998TIP3    H145485   3.916   5.277   4.781 -0.6994  0.7019 -1.3669
 7998TIP3    H245486   3.980   5.142   4.753 -0.7057  0.0502  1.4384
 7999TIP3   OH245487   5.361   4.331  11.086  0.4304  0.9115  0.3467
 7999TIP3    H145488   5.351   4.403  11.148 -1.5641  0.6673  0.3814
 7999TIP3    H245489   5.324   4.255  11.132 -1.7418  0.8644 -1.3149
 8000TIP3   OH245490   3.853   3.243   1.059  0.0038 -0.0591 -0.1414
 8000TIP3    H145491   3.930   3.225   1.113 -1.5833  0.0931  2.3589
 8000TIP3    H245492   3.849   3.338   1.052  0.1196 -0.0726 -0.4158
 8001TIP3   OH245493   2.347   4.448  16.616  0.4629  0.5988  0.0442
 8001TIP3    H145494   2.362   4.375  16.676 -0.9986  1.0611  1.0026
 8001TIP3    H245495   2.387   4.419  16.533  1.9976 -0.2783  1.0474
 8002TIP3   OH245496   0.720   1.324  11.776  0.0139  0.4261 -0.3632
 8002TIP3    H145497   0.644   1.286  11.732  1.0784 -2.7096  0.2909
 8002TIP3    H245498   0.698   1.320  11.869  0.9378 -0.5175 -0.1690
 8003TIP3   OH245499   6.553   6.513   2.731 -0.0462 -0.0765 -0.1287
 8003TIP3    H145500   6.548   6.421   2.705  1.1780 -0.3432  0.5307
 8003TIP3    H245501   6.480   6.524   2.792 -2.0480  0.1844 -2.4100
 8004TIP3   OH245502   1.059   2.613   5.014 -0.1243 -0.7523  0.0378
 8004TIP3    H145503   1.058   2.555   5.090 -0.2709  1.1072  1.5109
 8004TIP3    H245504   1.148   2.649   5.012 -0.4824  0.1606  0.0932
 8005TIP3   OH245505   6.736   4.361   0.786 -0.1307  0.2548  0.0374
 8005TIP3    H145506   6.696   4.353   0.699  0.7786  2.0928 -0.6009
 8005TIP3    H245507   6.683   4.427   0.830  0.2074  0.2817  0.4065
 8006TIP3   OH245508   1.661   4.693   3.774  0.2245 -0.4488 -0.1986
 8006TIP3    H145509   1.655   4.764   3.711 -1.0545 -0.5012 -0.1570
 8006TIP3    H245510   1.749   4.658   3.761  0.0056 -0.4694 -1.9752
 8007TIP3   OH245511   4.264   3.117  11.735  0.2664 -0.7154  0.0354
 8007TIP3    H145512   4.357   3.140  11.729  0.1246  0.2267  1.2274
 8007TIP3    H245513   4.259   3.030  11.696  1.6642 -0.8326  0.0591
 8008TIP3   OH245514   0.445   0.697   5.075 -0.0363  0.3830  0.2507
 8008TIP3    H145515   0.483   0.708   5.162  0.9803  0.4384 -0.1864
 8008TIP3    H245516   0.472   0.609   5.049 -0.9500  0.0817  0.2695
 8009TIP3   OH245517   5.018   0.788   5.907 -0.3411 -0.6185 -0.3687
 8009TIP3    H145518   5.024   0.720   5.975  0.4630 -0.3417 -0.1560
 8009TIP3    H245519   4.981   0.743   5.831  0.5663 -1.4009 -0.3615
 8010TIP3   OH245520   6.712   2.410   6.059  0.1358  0.3048 -0.3281
 8010TIP3    H145521   6.627   2.377   6.029  1.0513 -0.0764 -2.7329
 8010TIP3    H245522   6.715   2.500   6.027  0.0906  0.8110  1.0167
 8011TIP3   OH245523   3.757   3.939  15.268  0.3365  0.0398 -0.4952
 8011TIP3    H145524   3.771   4.033  15.260  0.3033  0.0701 -0.2187
 8011TIP3    H245525   3.826   3.910  15.327 -0.0217 -0.0075 -0.0905
 8012TIP3   OH245526   5.886   4.644  13.439 -0.4122  0.2866 -0.3297
 8012TIP3    H145527   5.882   4.579  13.509 -0.5768  0.0686 -0.5396
 8012TIP3    H245528   5.903   4.592  13.360  1.0350  0.6315 -0.2887
 8013TIP3   OH245529   0.302   4.296   1.906  0.3214 -0.1643 -0.7154
 8013TIP3    H145530   0.227   4.264   1.857 -2.7847  0.0878  3.3903
 8013TIP3    H245531   0.300   4.391   1.895 -0.3881 -0.1054 -0.1009
 8014TIP3   OH245532   1.170   6.694  14.339  0.3630  0.0460  0.0948
 8014TIP3    H145533   1.213   6.767  14.294  0.2921  0.4550  0.6752
 8014TIP3    H245534   1.077   6.719  14.340  0.6228  1.1796  2.4887
 8015TIP3   OH245535   2.486   4.446  10.772 -0.2699 -0.4521 -0.1584
 8015TIP3    H145536   2.462   4.538  10.783 -2.5905 -1.0024 -0.2363
 8015TIP3    H245537   2.510   4.439  10.679 -2.0639 -0.2952 -0.6776
 8016TIP3   OH245538   4.340   2.632   3.026 -0.1522  0.3077 -0.5050
 8016TIP3    H145539   4.377   2.558   2.978 -0.3885  1.4727 -2.5846
 8016TIP3    H245540   4.249   2.636   2.999 -0.1047  1.4426 -0.5672
 8017TIP3   OH245541   1.681   1.633   0.535 -0.2600 -0.6166 -0.1187
 8017TIP3    H145542   1.717   1.713   0.498 -1.2875  0.3652  0.9410
 8017TIP3    H245543   1.752   1.596   0.587  1.0926 -1.8257 -2.6289
 8018TIP3   OH245544   3.753   2.698  11.114 -0.4038  0.3219  0.0168
 8018TIP3    H145545   3.794   2.754  11.049 -1.8921  2.3366  0.7142
 8018TIP3    H245546   3.664   2.731  11.121 -0.2580  0.3497  3.2050
 8019TIP3   OH245547   6.820   5.737  10.861 -0.1908  0.2574 -0.2753
 8019TIP3    H145548   6.810   5.814  10.805 -0.6441 -1.4168 -2.7054
 8019TIP3    H245549   6.902   5.697  10.831 -1.3182 -1.6058 -1.0457
 8020TIP3   OH245550   0.880   4.688   0.350  0.2010  0.0580 -0.5106
 8020TIP3    H145551   0.810   4.704   0.287  0.4741  0.8358 -0.6298
 8020TIP3    H245552   0.840   4.634   0.418  0.1648 -1.7284 -1.8573
 8021TIP3   OH245553   6.428   2.260   4.817 -0.1819 -0.3153  0.0232
 8021TIP3    H145554   6.488   2.291   4.884 -1.8058 -0.4202  1.6074
 8021TIP3    H245555   6.484   2.228   4.746  1.5616  1.8060  0.3676
 8022TIP3   OH245556   5.831   4.102   4.904 -0.1805 -0.2560 -0.1015
 8022TIP3    H145557   5.814   4.145   4.820 -0.1273  2.8055  1.3009
 8022TIP3    H245558   5.745   4.093   4.944 -0.1683 -1.3570 -0.3045
 8023TIP3   OH245559   1.083   3.563   3.295 -0.1541 -0.6580 -0.2881
 8023TIP3    H145560   1.139   3.531   3.365  0.8154  0.2189 -0.6323
 8023TIP3    H245561   1.027   3.489   3.273  0.8418 -1.5558  0.1081
 8024TIP3   OH245562   0.963   3.530  12.546 -0.3570  0.1494  0.2655
 8024TIP3    H145563   0.922   3.584  12.614  0.5679 -0.8542  1.6707
 8024TIP3    H245564   1.025   3.589  12.504 -1.4476  0.9871 -0.2357
 8025TIP3   OH245565   1.671   2.810  12.197  0.7716 -0.0985  0.0171
 8025TIP3    H145566   1.630   2.849  12.120 -1.1660  0.9792  1.4891
 8025TIP3    H245567   1.734   2.876  12.227 -0.5420  0.7969  0.9368
 8026TIP3   OH245568   5.913   1.287  14.952 -0.6570 -0.1214  0.6452
 8026TIP3    H145569   5.931   1.211  14.896  0.3764 -0.0945  0.9194
 8026TIP3    H245570   5.976   1.279  15.024  0.2096  1.5521  0.1236
 8027TIP3   OH245571   6.098   4.944   4.136 -0.0350  0.3443 -0.1415
 8027TIP3    H145572   6.137   4.995   4.065 -0.8090 -1.0821 -1.6715
 8027TIP3    H245573   6.161   4.950   4.207  0.2065  2.8357 -0.4694
 8028TIP3   OH245574   1.557   0.908  15.195  0.3194  0.2542 -0.1928
 8028TIP3    H145575   1.545   1.003  15.189 -1.0028  0.0897 -0.6367
 8028TIP3    H245576   1.470   0.875  15.219 -0.4625 -1.1720 -4.2242
 8029TIP3   OH245577   0.326   6.138   2.637 -0.1079 -0.2126 -0.0724
 8029TIP3    H145578   0.363   6.065   2.687  0.2704  0.0159 -0.0084
 8029TIP3    H245579   0.383   6.212   2.658 -0.4253  0.0756 -0.2191
 8030TIP3   OH245580   2.551   0.496   6.294 -0.4192 -0.6282  0.1540
 8030TIP3    H145581   2.595   0.487   6.209 -0.5125 -1.7004  0.2002
 8030TIP3    H245582   2.623   0.506   6.357 -0.2561 -1.5762  0.1377
 8031TIP3   OH245583   0.938   1.212   2.764  0.3766 -0.0986  0.1429
 8031TIP3    H145584   0.926   1.294   2.813  0.8560  0.0638  0.0001
 8031TIP3    H245585   1.033   1.201   2.760  0.3145 -0.6638  0.1576
 8032TIP3   OH245586   2.073   0.292  14.015  0.1070  0.2983 -0.2409
 8032TIP3    H145587   2.142   0.315  14.078  1.4468 -1.0405 -1.1257
 8032TIP3    H245588   2.001   0.352  14.034  1.2499  1.2786  1.2056
 8033TIP3   OH245589   2.534   6.607   3.616 -0.0978  0.2075  0.1560
 8033TIP3    H145590   2.443   6.622   3.641 -0.4133 -0.1140 -0.7423
 8033TIP3    H245591   2.564   6.537   3.674 -0.5931 -0.0590  0.0970
 8034TIP3   OH245592   5.079   0.360   4.870  0.0984 -0.0963  0.6352
 8034TIP3    H145593   5.066   0.385   4.962 -0.2877  0.9028  0.3268
 8034TIP3    H245594   5.171   0.382   4.853 -0.0193  0.3623  0.5902
 8035TIP3   OH245595   2.513   0.197  10.440 -0.2871 -0.4940  0.8517
 8035TIP3    H145596   2.552   0.119  10.400 -0.3900  0.3891 -1.0558
 8035TIP3    H245597   2.434   0.214  10.389  0.6063  1.8059  0.0861
 8036TIP3   OH245598   0.377   3.654  11.668  0.3506 -0.1464  0.2975
 8036TIP3    H145599   0.451   3.622  11.616  0.3280  0.9663 -0.4549
 8036TIP3    H245600   0.319   3.696  11.604  0.5975  1.7542  1.2521
 8037TIP3   OH245601   5.875   4.602  12.887 -0.0610 -0.2696  0.1378
 8037TIP3    H145602   5.821   4.565  12.817  0.5440 -1.3375  0.2188
 8037TIP3    H245603   5.812   4.637  12.950 -0.6470 -1.0674  0.0023
 8038TIP3   OH245604   1.078   4.261  13.793  1.0717  0.3275 -0.1958
 8038TIP3    H145605   1.061   4.351  13.765  0.5276  0.7528  1.3402
 8038TIP3    H245606   1.119   4.219  13.718 -0.0180  1.4374 -1.4653
 8039TIP3   OH245607   1.701   6.788   5.184 -0.1317 -0.0148 -0.0009
 8039TIP3    H145608   1.607   6.770   5.193  0.0784 -0.8172  0.7427
 8039TIP3    H245609   1.740   6.746   5.260  0.7998  0.6166 -0.1185
 8040TIP3   OH245610   5.770   3.064   2.331  0.4108  0.2616 -0.3230
 8040TIP3    H145611   5.861   3.088   2.315  0.2446  0.0920 -1.6239
 8040TIP3    H245612   5.726   3.147   2.348  0.6728  0.4237 -0.4181
 8041TIP3   OH245613   1.041   6.398  15.117 -0.1783  0.6345 -0.1240
 8041TIP3    H145614   1.047   6.446  15.035 -0.0685  0.2964 -0.3156
 8041TIP3    H245615   1.118   6.342  15.118 -0.7484 -0.1865 -0.3231
 8042TIP3   OH245616   4.449   6.529   1.549  0.1232 -0.0447  0.0598
 8042TIP3    H145617   4.529   6.523   1.601  3.0314 -0.9026 -3.9989
 8042TIP3    H245618   4.433   6.623   1.539  0.2329  0.1250  1.3894
 8043TIP3   OH245619   4.109   4.664   0.623 -0.0217  0.4473 -0.3812
 8043TIP3    H145620   4.132   4.655   0.715  1.9273  0.9177 -0.7776
 8043TIP3    H245621   4.058   4.745   0.618 -2.0658 -0.7103  0.5567
 8044TIP3   OH245622   0.249   1.437   3.811  0.2925 -0.3077 -0.3057
 8044TIP3    H145623   0.250   1.341   3.819  0.7668 -0.1701  1.6143
 8044TIP3    H245624   0.178   1.454   3.749 -1.3691 -1.8213  1.0642
 8045TIP3   OH245625   1.858   4.380  12.236 -0.6139 -0.7878  0.0674
 8045TIP3    H145626   1.814   4.295  12.229 -0.6960 -0.6852 -0.7697
 8045TIP3    H245627   1.915   4.384  12.160  0.3005 -0.5972  0.7425
 8046TIP3   OH245628   2.531   4.366  12.693  0.0301 -0.2404  0.0056
 8046TIP3    H145629   2.510   4.293  12.752  0.2922 -1.3264 -1.2052
 8046TIP3    H245630   2.532   4.443  12.750  0.6435 -1.3001  1.4915
 8047TIP3   OH245631   5.680   2.946   4.191 -0.1767 -0.1049  0.1811
 8047TIP3    H145632   5.586   2.950   4.209  0.0346  1.1541  1.1717
 8047TIP3    H245633   5.688   2.967   4.098 -0.8471  0.5836  0.2656
 8048TIP3   OH245634   2.144   2.999   4.131  0.1749  0.6020  0.2703
 8048TIP3    H145635   2.065   2.958   4.096  0.0488  0.9032  0.1966
 8048TIP3    H245636   2.128   3.008   4.224 -0.5507  2.1300  0.0188
 8049TIP3   OH245637   0.346   2.356  15.276 -0.3776  0.1474  0.3904
 8049TIP3    H145638   0.274   2.305  15.312  1.9212 -3.3989  0.3697
 8049TIP3    H245639   0.348   2.333  15.183  0.0076  1.2679  0.0984
 8050TIP3   OH245640   2.065   3.467   1.397  0.2458 -0.0705  0.0755
 8050TIP3    H145641   2.019   3.543   1.433 -0.0527 -0.2046 -0.0252
 8050TIP3    H245642   2.008   3.393   1.416 -0.2546 -0.0623 -1.2866
 8051TIP3   OH245643   5.703   4.730   3.273  0.0922  0.5689 -0.4311
 8051TIP3    H145644   5.764   4.799   3.298 -0.4390  0.7844  0.2829
 8051TIP3    H245645   5.723   4.658   3.333  1.1660 -0.2106 -1.6627
 8052TIP3   OH245646   3.436   2.474   0.432 -0.2835  0.2248  0.4763
 8052TIP3    H145647   3.493   2.510   0.499 -0.1370  2.4790 -0.7859
 8052TIP3    H245648   3.474   2.388   0.412  0.2527 -0.0633  2.4966
 8053TIP3   OH245649   5.068   0.089   2.718 -0.4955 -0.1217 -0.3493
 8053TIP3    H145650   4.999   0.026   2.698 -0.8814 -0.3608  1.5504
 8053TIP3    H245651   5.028   0.175   2.706 -1.3950 -0.2493  1.3795
 8054TIP3   OH245652   0.383   5.752  13.935  0.3347 -1.1459 -0.0370
 8054TIP3    H145653   0.361   5.817  14.002  0.7346 -0.0607 -0.9115
 8054TIP3    H245654   0.376   5.801  13.852  1.9058 -1.8727 -0.6391
 8055TIP3   OH245655   2.529   5.189  13.335  0.1774  0.6002  0.0076
 8055TIP3    H145656   2.446   5.224  13.366 -1.3557 -0.5167 -2.5330
 8055TIP3    H245657   2.548   5.118  13.397 -0.5889  1.0524  0.7975
 8056TIP3   OH245658   0.376   2.176   4.375  0.4297 -0.7548  0.0740
 8056TIP3    H145659   0.377   2.095   4.325  0.9553 -0.4309 -0.4700
 8056TIP3    H245660   0.286   2.207   4.371  0.5277 -0.5622 -0.9886
 8057TIP3   OH245661   6.200   2.052  10.139  0.5180  0.4996  0.2725
 8057TIP3    H145662   6.135   2.114  10.106  1.7291  1.5614 -0.2644
 8057TIP3    H245663   6.235   2.010  10.060 -1.4079 -2.1324  0.7198
 8058TIP3   OH245664   4.811   5.815   5.994  0.4958  0.1147 -0.2930
 8058TIP3    H145665   4.860   5.734   6.006  0.7847  0.3170 -0.0918
 8058TIP3    H245666   4.774   5.808   5.906  1.2553  0.1571 -0.6265
 8059TIP3   OH245667   3.451   1.666   0.539 -0.2324 -0.7149 -0.6143
 8059TIP3    H145668   3.541   1.696   0.550 -0.7853  0.3825  1.8080
 8059TIP3    H245669   3.448   1.582   0.584 -0.4921 -0.5672 -0.3514
 8060TIP3   OH245670   0.415   5.545  13.147 -0.4664 -0.1322  0.2733
 8060TIP3    H145671   0.326   5.579  13.156 -0.1195  0.6082  1.0136
 8060TIP3    H245672   0.452   5.593  13.073 -0.1693  0.7220  0.9558
 8061TIP3   OH245673   3.073   5.482  16.599 -0.0430  0.2198 -0.0545
 8061TIP3    H145674   3.059   5.513  16.689 -1.1587  0.3688 -0.2698
 8061TIP3    H245675   3.037   5.551  16.544 -0.7604 -0.5638 -0.5849
 8062TIP3   OH245676   4.673   5.051  14.187  0.9199 -0.9061  0.0996
 8062TIP3    H145677   4.582   5.077  14.198  0.5374 -1.2791 -1.8594
 8062TIP3    H245678   4.723   5.130  14.208  0.0366 -0.1359 -0.6348
 8063TIP3   OH245679   5.182   2.468  12.564 -0.7927 -0.0231  0.2931
 8063TIP3    H145680   5.189   2.511  12.479 -2.9565 -1.1029 -0.5112
 8063TIP3    H245681   5.199   2.375  12.545 -1.8895 -0.3641  0.9128
 8064TIP3   OH245682   1.410   3.197  12.654 -0.1272 -0.5709 -0.0440
 8064TIP3    H145683   1.483   3.144  12.684 -0.3514 -0.9788 -0.2009
 8064TIP3    H245684   1.411   3.187  12.558  0.1496  0.1378 -0.1209
 8065TIP3   OH245685   5.286   1.049   3.319  0.0776 -0.2937  0.2542
 8065TIP3    H145686   5.237   1.126   3.346 -0.8510 -1.1536  1.0886
 8065TIP3    H245687   5.319   1.011   3.400  3.2650  0.9295 -0.3329
 8066TIP3   OH245688   6.741   0.755   4.504  0.0768  0.6434  0.5912
 8066TIP3    H145689   6.737   0.702   4.584  0.4253 -0.6250 -0.1950
 8066TIP3    H245690   6.835   0.768   4.489  0.0197  0.6733  0.2573
 8067TIP3   OH245691   3.052   2.560  10.876 -0.3293  0.8075 -0.3348
 8067TIP3    H145692   2.998   2.639  10.870 -0.2746  0.9536  0.9990
 8067TIP3    H245693   3.026   2.508  10.800 -3.0017  0.4698  0.7071
 8068TIP3   OH245694   6.349   2.971  15.946 -0.0044 -0.3799 -0.2244
 8068TIP3    H145695   6.351   3.061  15.912 -1.6903 -0.3414 -0.3199
 8068TIP3    H245696   6.258   2.944  15.936  0.3214 -1.8452  0.5029
 8069TIP3   OH245697   3.518   5.077  12.865  0.1282 -0.4902 -0.4473
 8069TIP3    H145698   3.477   5.015  12.925  1.1131 -0.0784  0.6768
 8069TIP3    H245699   3.603   5.097  12.904 -0.0504  1.3866 -0.9012
 8070TIP3   OH245700   3.731   4.946  15.872 -0.3073  0.2563 -0.1907
 8070TIP3    H145701   3.713   5.037  15.894 -0.1451  0.6728 -1.6377
 8070TIP3    H245702   3.790   4.915  15.941 -1.5996  0.7520  1.1692
 8071TIP3   OH245703   6.316   3.774  16.587 -0.2562 -0.1262  0.7712
 8071TIP3    H145704   6.283   3.685  16.581 -1.2588  0.2828 -0.0145
 8071TIP3    H245705   6.246   3.829  16.551  0.9700  0.8383 -0.2605
 8072TIP3   OH245706   4.312   0.845  15.953  0.1285 -0.3736 -0.1922
 8072TIP3    H145707   4.404   0.870  15.965  0.4486 -1.2474 -0.7476
 8072TIP3    H245708   4.264   0.904  16.010  1.0072  0.3390 -0.1638
 8073TIP3   OH245709   5.030   5.789  12.002  0.1004 -0.4510 -0.4772
 8073TIP3    H145710   5.110   5.827  11.964  2.5483 -0.9867  3.5084
 8073TIP3    H245711   4.991   5.739  11.930  2.5956  0.9101 -3.0089
 8074TIP3   OH245712   4.495   1.514  16.425 -0.2574  0.6246  0.1613
 8074TIP3    H145713   4.426   1.540  16.487 -0.5603 -0.2324  0.1944
 8074TIP3    H245714   4.573   1.561  16.455 -0.4339  0.3330  1.1071
 8075TIP3   OH245715   3.402   3.612   5.029 -0.3929  0.3359 -0.1591
 8075TIP3    H145716   3.408   3.695   4.980  0.8280  1.0466  1.1199
 8075TIP3    H245717   3.393   3.545   4.961  1.8459  1.2291 -1.4489
 8076TIP3   OH245718   0.639   0.603   2.913  0.5367  0.3002  0.5072
 8076TIP3    H145719   0.695   0.560   2.848 -0.3726  0.7370 -0.6032
 8076TIP3    H245720   0.638   0.543   2.987  0.9502 -0.6069 -0.1978
 8077TIP3   OH245721   3.235   3.545  10.716 -0.2057  0.6142 -0.0433
 8077TIP3    H145722   3.178   3.553  10.639 -0.7183  0.6339  0.3378
 8077TIP3    H245723   3.323   3.539  10.679 -0.5259 -0.4350 -0.6975
 8078TIP3   OH245724   3.023   6.376  15.923  0.1810 -0.4438 -0.1693
 8078TIP3    H145725   2.938   6.419  15.912 -0.6599 -1.7139  1.0364
 8078TIP3    H245726   3.069   6.393  15.841 -1.1189  0.5078 -0.7407
 8079TIP3   OH245727   6.108   4.863  14.591 -0.1012  0.5289 -0.0859
 8079TIP3    H145728   6.045   4.929  14.620 -0.5137  0.4685 -0.8329
 8079TIP3    H245729   6.172   4.911  14.539 -0.7649  0.2557 -1.1828
 8080TIP3   OH245730   4.164   1.914   5.223  0.4531 -0.3208  0.0804
 8080TIP3    H145731   4.099   1.899   5.154 -1.3762 -0.5617  1.7766
 8080TIP3    H245732   4.115   1.957   5.293  2.5079  0.9463  0.8277
 8081TIP3   OH245733   3.259   3.229   1.564 -0.4349 -0.1722  0.2567
 8081TIP3    H145734   3.319   3.173   1.515  0.8836  1.6056 -0.2571
 8081TIP3    H245735   3.287   3.221   1.655  1.7616  1.8810 -0.1474
 8082TIP3   OH245736   5.018   1.714   5.628 -0.2053 -0.2074  0.3607
 8082TIP3    H145737   5.035   1.762   5.709 -1.7183 -0.3885  0.8265
 8082TIP3    H245738   5.042   1.775   5.559 -1.4021  1.0077  0.9504
 8083TIP3   OH245739   0.550   3.577   1.572  0.1525  0.3485  0.2032
 8083TIP3    H145740   0.554   3.673   1.579 -1.1429  0.6581 -2.1303
 8083TIP3    H245741   0.499   3.561   1.492 -0.3039 -2.3132  0.9243
 8084TIP3   OH245742   2.196   0.328  13.715 -0.1192 -0.1972 -0.5009
 8084TIP3    H145743   2.129   0.359  13.776 -0.2475 -0.0553 -0.7114
 8084TIP3    H245744   2.277   0.372  13.743 -0.8894  3.1680 -2.8268
 8085TIP3   OH245745   5.844   1.252   5.094  0.0775 -0.8364 -0.1676
 8085TIP3    H145746   5.799   1.334   5.074 -0.6147 -0.8433  1.2460
 8085TIP3    H245747   5.842   1.203   5.012 -0.4150  0.1389 -0.7573
 8086TIP3   OH245748   5.984   3.122   3.665 -0.1519  0.0841  0.2604
 8086TIP3    H145749   6.055   3.163   3.715 -1.7845  2.1518  1.0688
 8086TIP3    H245750   5.935   3.196   3.630 -1.9812 -1.2642 -0.1495
 8087TIP3   OH245751   4.159   4.606   4.736  0.0689 -0.1563  0.1909
 8087TIP3    H145752   4.072   4.646   4.728 -0.4148 -1.3696 -1.0346
 8087TIP3    H245753   4.156   4.556   4.817 -0.5520 -0.5754 -0.0852
 8088TIP3   OH245754   6.779   1.270   0.546  0.3211  0.2501  0.2039
 8088TIP3    H145755   6.738   1.209   0.608 -1.2924 -0.0763 -1.1245
 8088TIP3    H245756   6.856   1.222   0.514  0.6583  0.0601  1.2406
 8089TIP3   OH245757   3.860   0.221  13.079 -0.2836  0.0880 -0.1409
 8089TIP3    H145758   3.797   0.292  13.085 -0.3743 -0.0911  1.6065
 8089TIP3    H245759   3.832   0.158  13.146  2.2163  0.3994  1.3431
 8090TIP3   OH245760   2.805   4.006  13.441  0.4486  0.4430 -0.7275
 8090TIP3    H145761   2.736   4.019  13.505  0.8545  1.7728 -0.5246
 8090TIP3    H245762   2.872   4.071  13.464  0.5937  0.9868 -2.5024
 8091TIP3   OH245763   2.164   1.741  10.869  0.0895 -0.1238 -0.5209
 8091TIP3    H145764   2.178   1.677  10.938  1.9391  1.4076  0.6230
 8091TIP3    H245765   2.069   1.747  10.861 -0.2597  0.5668  2.8347
 8092TIP3   OH245766   4.566   3.895  16.869  0.5973  0.7355 -0.2766
 8092TIP3    H145767   4.480   3.854  16.878  0.1111  1.4082 -1.6589
 8092TIP3    H245768   4.627   3.828  16.901 -0.4642  0.6026  1.6622
 8093TIP3   OH245769   6.315   5.121  14.765  0.0986  0.3487  0.3474
 8093TIP3    H145770   6.224   5.149  14.762 -0.6726 -1.4182  2.9798
 8093TIP3    H245771   6.355   5.177  14.833  0.7064  0.4088 -0.0481
 8094TIP3   OH245772   2.426   3.383  15.418 -0.3308  0.1360  0.1469
 8094TIP3    H145773   2.461   3.302  15.455  0.4741  0.3767 -0.0653
 8094TIP3    H245774   2.451   3.451  15.481  0.5525  0.4677 -0.5403
 8095TIP3   OH245775   3.054   6.109   3.215 -0.1781 -0.2167 -0.4572
 8095TIP3    H145776   3.062   6.098   3.121 -1.4921 -1.5667 -0.4381
 8095TIP3    H245777   3.044   6.204   3.227  1.9701  0.2148 -1.4582
 8096TIP3   OH245778   6.272   6.577  12.031  0.3612 -0.1015  0.8230
 8096TIP3    H145779   6.276   6.595  11.937  0.7645 -2.2762  0.3717
 8096TIP3    H245780   6.215   6.645  12.066  0.3529  0.8731 -0.9547
 8097TIP3   OH245781   5.836   2.848  11.139  0.0248 -0.5079  0.3669
 8097TIP3    H145782   5.793   2.889  11.064  1.6287 -0.2870 -0.4739
 8097TIP3    H245783   5.777   2.865  11.212 -2.0625 -1.5472 -0.9681
 8098TIP3   OH245784   2.770   3.267  13.752  0.0829  0.1298 -0.2449
 8098TIP3    H145785   2.787   3.180  13.787 -0.1760  0.2856  0.2798
 8098TIP3    H245786   2.849   3.289  13.703  0.8696  0.3089  1.0658
 8099TIP3   OH245787   1.947   5.223  16.540 -0.2542 -0.2858 -0.3694
 8099TIP3    H145788   1.879   5.160  16.564  0.5140 -1.1922 -0.4694
 8099TIP3    H245789   1.901   5.305  16.525 -1.4120 -1.0636 -1.1628
 8100TIP3   OH245790   0.012   3.299  12.716 -0.8357  0.2522 -0.0000
 8100TIP3    H145791   0.007   3.352  12.797  0.1290 -0.2661  0.4099
 8100TIP3    H245792   0.082   3.340  12.666  0.6254 -1.2109  0.7712
 8101TIP3   OH245793   2.375   0.713  13.378  0.1127 -0.0950 -0.0026
 8101TIP3    H145794   2.281   0.733  13.370 -0.2371 -1.3611  0.7066
 8101TIP3    H245795   2.411   0.733  13.292 -0.7761  0.5608 -0.2386
 8102TIP3   OH245796   6.632   1.655   4.207 -0.2316 -0.0759 -0.5971
 8102TIP3    H145797   6.571   1.726   4.187  0.0674  0.1315 -0.7647
 8102TIP3    H245798   6.581   1.575   4.193  0.4610 -0.0395 -4.0476
 8103TIP3   OH245799   3.183   2.086   4.286 -0.1560  0.9692 -0.7357
 8103TIP3    H145800   3.232   2.131   4.355  1.3375 -1.8539  0.2157
 8103TIP3    H245801   3.118   2.035   4.334 -1.5626  1.7596 -1.7502
 8104TIP3   OH245802   3.395   5.785  14.832 -0.7079  0.3096 -0.1457
 8104TIP3    H145803   3.434   5.841  14.765  0.9700 -0.0863  0.4425
 8104TIP3    H245804   3.303   5.780  14.808 -0.5439  1.7926 -1.2685
 8105TIP3   OH245805   6.200   2.321   4.970  0.1643  0.1681  0.6565
 8105TIP3    H145806   6.142   2.244   4.976  0.9122 -0.6968 -1.9467
 8105TIP3    H245807   6.273   2.292   4.916  0.6064  2.6663 -0.1968
 8106TIP3   OH245808   4.593   5.499   1.735  0.0036  0.4045 -0.1121
 8106TIP3    H145809   4.624   5.481   1.823  1.0650  0.0693 -0.5356
 8106TIP3    H245810   4.641   5.437   1.680 -1.4509 -0.1521 -0.8001
 8107TIP3   OH245811   4.805   4.998  16.828 -0.2536 -0.2513  0.7633
 8107TIP3    H145812   4.843   5.085  16.842 -0.2400 -0.1789  0.3133
 8107TIP3    H245813   4.855   4.962  16.754 -1.1827 -0.0749  0.0395
 8108TIP3   OH245814   6.630   4.665   3.621 -0.2861 -0.2298  0.4710
 8108TIP3    H145815   6.546   4.649   3.578 -1.5736  0.0707  2.6677
 8108TIP3    H245816   6.695   4.621   3.566 -1.9821 -1.1476 -0.8954
 8109TIP3   OH245817   0.070   2.123  14.145 -0.0119 -0.0705 -0.0567
 8109TIP3    H145818   0.137   2.062  14.177 -1.6015 -1.4170  0.8889
 8109TIP3    H245819   0.024   2.074  14.076 -1.5217 -0.1032  0.9350
 8110TIP3   OH245820   2.396   6.357  16.393 -0.0154  0.0205 -0.2551
 8110TIP3    H145821   2.346   6.393  16.466 -1.4448  0.7121 -1.5097
 8110TIP3    H245822   2.451   6.290  16.432 -2.0143 -0.8668  1.2186
 8111TIP3   OH245823   6.735   5.317  10.872  0.4117  0.1038  0.4041
 8111TIP3    H145824   6.714   5.346  10.784  0.4144  1.1678  0.7362
 8111TIP3    H245825   6.672   5.362  10.928  1.1527  0.3798  1.0442
 8112TIP3   OH245826   0.994   3.152   5.277  0.0372 -0.1274  0.7627
 8112TIP3    H145827   1.054   3.222   5.252 -1.5994  1.2443  0.5013
 8112TIP3    H245828   1.016   3.079   5.219  1.3619  0.3598  0.6280
 8113TIP3   OH245829   1.100   6.341   3.224  0.3015 -0.2215 -0.1781
 8113TIP3    H145830   1.089   6.290   3.144  0.7487  0.7922 -0.9190
 8113TIP3    H245831   1.076   6.431   3.198  0.3506  0.0962  0.8528
 8114TIP3   OH245832   5.612   3.008   6.149  0.1713 -0.3749 -0.4349
 8114TIP3    H145833   5.590   3.080   6.090  1.3277 -0.7985 -1.4269
 8114TIP3    H245834   5.528   2.970   6.173 -0.4545  1.2098  0.0120
 8115TIP3   OH245835   6.411   6.750   3.679  0.8915  0.5773 -0.6152
 8115TIP3    H145836   6.415   6.788   3.766 -0.1986  0.2860 -0.4163
 8115TIP3    H245837   6.402   6.826   3.621  0.1985  0.7060 -0.3473
 8116TIP3   OH245838   0.109   4.253   2.134  0.4214  0.2962  0.0051
 8116TIP3    H145839   0.122   4.328   2.193  1.7329  0.3083 -0.2623
 8116TIP3    H245840   0.193   4.244   2.088 -0.9092  1.0808 -2.8005
 8117TIP3   OH245841   0.397   0.172  13.019  0.3354 -0.0892 -0.0422
 8117TIP3    H145842   0.322   0.127  12.980  0.0020 -0.1781  0.6747
 8117TIP3    H245843   0.358   0.238  13.076  0.7680 -0.6712  0.9649
 8118TIP3   OH245844   2.180   2.696   2.555 -0.4939 -0.0660  0.7731
 8118TIP3    H145845   2.123   2.634   2.510  0.4681 -1.8431  1.8416
 8118TIP3    H245846   2.152   2.692   2.647  0.6427 -0.2132  1.1349
 8119TIP3   OH245847   5.411   6.516   3.070 -0.5282  0.2738  0.1868
 8119TIP3    H145848   5.396   6.562   2.988 -2.5327  1.0130  0.8958
 8119TIP3    H245849   5.435   6.585   3.132  0.5736 -0.2232  0.3411
 8120TIP3   OH245850   4.581   6.717  16.281 -0.1127 -0.8616  0.1488
 8120TIP3    H145851   4.531   6.700  16.201 -0.1690 -2.9615  0.5698
 8120TIP3    H245852   4.538   6.793  16.321 -1.6917 -1.3634 -0.5295
 8121TIP3   OH245853   3.329   0.638   0.291 -0.1023  0.0602 -0.0988
 8121TIP3    H145854   3.389   0.565   0.305 -1.0270 -0.5572  0.8565
 8121TIP3    H245855   3.268   0.632   0.365 -0.3351  1.6632 -0.1385
 8122TIP3   OH245856   3.320   0.348   0.093  0.2166 -0.2700  0.5201
 8122TIP3    H145857   3.274   0.288   0.150  0.1171 -0.5389  0.1642
 8122TIP3    H245858   3.251   0.398   0.049  0.3076  0.5850  1.3041
 8123TIP3   OH245859   3.392   0.274   5.515 -0.0850  0.3584 -0.2609
 8123TIP3    H145860   3.428   0.196   5.558 -0.6772 -0.0482 -0.4816
 8123TIP3    H245861   3.297   0.260   5.517 -0.1557  0.6997 -1.0029
 8124TIP3   OH245862   5.108   5.660  12.220  0.3332  0.6657 -0.9705
 8124TIP3    H145863   5.160   5.591  12.179  1.2462  1.1128 -0.6119
 8124TIP3    H245864   5.098   5.727  12.152  0.4183  0.6708 -0.9788
 8125TIP3   OH245865   2.416   1.232   3.311  0.3277 -0.0434 -0.0936
 8125TIP3    H145866   2.348   1.241   3.377  0.8861  1.8278  0.2915
 8125TIP3    H245867   2.374   1.185   3.239 -0.3565 -1.9042  1.4489
 8126TIP3   OH245868   1.005   4.458   3.439 -0.1464 -0.7102  0.3489
 8126TIP3    H145869   1.067   4.421   3.502 -1.2160 -1.4571  0.9996
 8126TIP3    H245870   0.950   4.384   3.414  0.0089 -0.3420 -1.1984
 8127TIP3   OH245871   6.126   3.066  16.569 -0.2789 -0.4748 -0.2017
 8127TIP3    H145872   6.189   3.008  16.527  0.0301 -0.1439 -0.1992
 8127TIP3    H245873   6.180   3.129  16.618 -0.6123 -0.2889 -0.0695
 8128TIP3   OH245874   2.972   6.808  12.649 -0.3799 -0.3435  0.0655
 8128TIP3    H145875   2.903   6.792  12.584 -1.6913  0.1991  1.2680
 8128TIP3    H245876   2.965   6.734  12.709 -0.8197  0.3861  0.9328
 8129TIP3   OH245877   5.887   5.330  14.473 -0.3696  0.1472  0.4569
 8129TIP3    H145878   5.892   5.339  14.378  0.4036 -0.4164  0.4278
 8129TIP3    H245879   5.928   5.410  14.507 -0.5082  0.2786  0.3131
 8130TIP3   OH245880   5.788   2.460  15.651  0.1849 -0.0711 -0.4261
 8130TIP3    H145881   5.856   2.436  15.588 -0.5923 -1.8053 -0.6591
 8130TIP3    H245882   5.793   2.393  15.720 -0.7070  0.2711 -0.0014
 8131TIP3   OH245883   4.726   3.561  10.906  0.3006 -0.2749  0.0438
 8131TIP3    H145884   4.745   3.633  10.846  1.0605  1.3636  2.1050
 8131TIP3    H245885   4.693   3.604  10.985 -0.6693 -2.3283  0.8376
 8132TIP3   OH245886   2.668   2.839   4.392 -0.5378 -0.2234  0.1697
 8132TIP3    H145887   2.688   2.801   4.478 -1.3346  0.9360  0.9005
 8132TIP3    H245888   2.655   2.763   4.335  0.4277 -1.0135  0.9630
 8133TIP3   OH245889   1.113   5.697  11.836 -0.1321  0.5050  0.3946
 8133TIP3    H145890   1.164   5.774  11.810 -1.3097  0.5092 -2.1986
 8133TIP3    H245891   1.166   5.622  11.808 -0.2241  0.4267  0.4294
 8134TIP3   OH245892   6.681   5.369  10.604  0.1935  0.0843 -0.0336
 8134TIP3    H145893   6.658   5.286  10.563  0.1832 -0.3439  0.8210
 8134TIP3    H245894   6.710   5.424  10.532  2.9731 -1.5812 -0.3414
 8135TIP3   OH245895   3.948   3.915  15.440 -0.5269 -0.5301  0.1302
 8135TIP3    H145896   4.005   3.990  15.451 -0.2957 -0.3873 -1.6886
 8135TIP3    H245897   3.984   3.848  15.497 -0.6173  0.6530  1.6217
 8136TIP3   OH245898   2.412   0.496   4.160 -0.0766  0.3379 -0.3122
 8136TIP3    H145899   2.493   0.486   4.211 -0.4811  0.4448  0.3589
 8136TIP3    H245900   2.428   0.447   4.080 -0.5554 -2.4760  1.2089
 8137TIP3   OH245901   5.819   1.416  16.251  0.0618  0.3166 -0.0557
 8137TIP3    H145902   5.891   1.427  16.189  1.3973  1.8236  1.6353
 8137TIP3    H245903   5.756   1.484  16.227  0.5084  0.8033  0.1272
 8138TIP3   OH245904   5.866   2.980   3.287  0.3242 -0.2218 -0.1980
 8138TIP3    H145905   5.902   3.068   3.294 -0.6001  0.0356  2.6146
 8138TIP3    H245906   5.942   2.924   3.272  1.3781  0.7784  1.0878
 8139TIP3   OH245907   1.907   4.882   5.843 -0.0715 -0.1266 -0.4280
 8139TIP3    H145908   1.870   4.931   5.917 -0.0264 -0.7294  0.0023
 8139TIP3    H245909   1.831   4.856   5.792 -0.3925 -2.2260  0.9902
 8140TIP3   OH245910   2.322   5.891  14.246 -0.3944  0.4540 -0.2484
 8140TIP3    H145911   2.236   5.903  14.208 -0.6391  0.7564  0.3943
 8140TIP3    H245912   2.305   5.857  14.334  0.1748 -1.0789 -0.6926
 8141TIP3   OH245913   2.475   5.599  14.513 -0.5796  0.4823  0.4794
 8141TIP3    H145914   2.463   5.619  14.420  0.6067  0.2682  0.2615
 8141TIP3    H245915   2.567   5.574  14.521 -0.8291 -0.1916  1.5930
 8142TIP3   OH245916   0.888   1.043  11.582 -0.3076  0.0468 -0.3261
 8142TIP3    H145917   0.931   1.124  11.610  3.4873 -1.7000 -0.4028
 8142TIP3    H245918   0.957   0.995  11.535 -2.5089 -3.0288 -0.7175
 8143TIP3   OH245919   0.088   3.522  13.993 -0.2997 -0.5502  0.1536
 8143TIP3    H145920   0.150   3.555  13.928  0.2477  0.3777  1.1130
 8143TIP3    H245921   0.003   3.555  13.965 -0.0678 -0.1528 -0.0819
 8144TIP3   OH245922   6.733   3.471  13.274  0.1298  0.7753  0.0462
 8144TIP3    H145923   6.701   3.562  13.279 -1.9091  0.1562 -0.7280
 8144TIP3    H245924   6.714   3.444  13.185  1.8271 -0.0712 -0.0984
 8145TIP3   OH245925   5.634   3.219   4.276 -0.2640  0.6796  0.0143
 8145TIP3    H145926   5.612   3.144   4.222 -2.0111 -0.3889  2.0430
 8145TIP3    H245927   5.727   3.208   4.297 -0.1428 -0.0964 -0.8955
 8146TIP3   OH245928   6.793   2.474  15.191  0.1647 -1.1815 -0.2711
 8146TIP3    H145929   6.787   2.406  15.124 -0.7812 -0.7711 -0.6106
 8146TIP3    H245930   6.809   2.426  15.272 -0.8948 -1.8538 -0.4391
 8147TIP3   OH245931   3.118   1.233   3.320 -0.2146  0.3879  0.5911
 8147TIP3    H145932   3.054   1.240   3.391  0.3570  2.3755  0.9814
 8147TIP3    H245933   3.117   1.319   3.279  1.1223 -0.0187 -0.3618
 8148TIP3   OH245934   3.523   6.153  15.418 -0.1925  0.1303  0.0012
 8148TIP3    H145935   3.591   6.191  15.362  1.1891 -2.2274 -0.0379
 8148TIP3    H245936   3.565   6.146  15.504 -0.9714  0.1688  0.3891
 8149TIP3   OH245937   2.813   0.887  16.536  0.7532  0.2620  0.4171
 8149TIP3    H145938   2.773   0.835  16.467  2.7235 -0.3892 -0.3150
 8149TIP3    H245939   2.879   0.829  16.574  1.4859  1.4861  1.0806
 8150TIP3   OH245940   5.838   2.694   5.117  0.0933  0.0921  0.0277
 8150TIP3    H145941   5.844   2.628   5.048 -0.1807  1.2129 -1.1207
 8150TIP3    H245942   5.754   2.676   5.160  0.7434 -1.2646  0.7992
 8151TIP3   OH245943   5.400   5.748  12.427 -0.7308  0.6520  0.0365
 8151TIP3    H145944   5.439   5.833  12.403 -0.3110  0.3170 -0.4981
 8151TIP3    H245945   5.475   5.694  12.452 -0.6969 -0.3159 -1.9351
 8152TIP3   OH245946   0.686   2.031   1.008  0.2529  0.4736 -0.1428
 8152TIP3    H145947   0.774   2.035   0.970  0.0292  0.8399 -0.6296
 8152TIP3    H245948   0.633   2.089   0.953 -0.2043  0.5679  0.3880
 8153TIP3   OH245949   5.458   2.509  15.522  0.5172  0.2500 -0.0897
 8153TIP3    H145950   5.453   2.510  15.618  0.3074  1.1381 -0.0990
 8153TIP3    H245951   5.476   2.600  15.499  2.8517 -0.3226 -0.7914
 8154TIP3   OH245952   4.070   4.064  14.116  0.2778 -0.0893 -0.2205
 8154TIP3    H145953   3.982   4.094  14.140 -0.3066 -1.6112 -0.3636
 8154TIP3    H245954   4.121   4.145  14.107 -1.2536  0.8584 -0.7651
 8155TIP3   OH245955   6.675   0.010  14.814 -0.5550  0.1814  0.0450
 8155TIP3    H145956   6.739   0.065  14.859  0.6833  0.7414 -2.2030
 8155TIP3    H245957   6.592   0.057  14.820 -0.7962 -0.4613  2.8605
 8156TIP3   OH245958   5.203   6.205   4.283  0.3176 -0.4906  0.6284
 8156TIP3    H145959   5.277   6.261   4.307  1.2519 -1.4197  0.0510
 8156TIP3    H245960   5.184   6.228   4.192 -1.0644  0.7429  1.2064
 8157TIP3   OH245961   3.328   1.607   2.267  0.3000  0.3402  0.4152
 8157TIP3    H145962   3.257   1.545   2.285  0.9328 -0.9301 -1.1923
 8157TIP3    H245963   3.401   1.576   2.320  0.0435  0.9016  1.1097
 8158TIP3   OH245964   3.510   0.470  12.135  0.3233 -0.4108  0.3545
 8158TIP3    H145965   3.459   0.389  12.144  0.9938 -0.7575  1.2090
 8158TIP3    H245966   3.461   0.522  12.071  0.8366 -2.2311 -1.6514
 8159TIP3   OH245967   0.267   4.847  16.561  0.0652 -0.2506  0.0003
 8159TIP3    H145968   0.179   4.883  16.562  1.2225  2.8421  1.0432
 8159TIP3    H245969   0.294   4.846  16.653  0.5128 -3.0167 -0.0664
 8160TIP3   OH245970   1.587   6.082   5.818  0.7316  0.1028  0.0505
 8160TIP3    H145971   1.532   6.006   5.799  0.8852 -0.2346  0.8840
 8160TIP3    H245972   1.529   6.157   5.808  0.4197 -0.1664 -0.1919
 8161TIP3   OH245973   6.279   3.963   0.567 -0.6154 -0.4510  0.0953
 8161TIP3    H145974   6.253   3.881   0.525 -0.1282 -0.0514 -1.0405
 8161TIP3    H245975   6.211   3.980   0.632 -0.7433 -1.7288  0.3162
 8162TIP3   OH245976   3.412   3.632  13.161 -0.3885  0.6569  0.0632
 8162TIP3    H145977   3.404   3.711  13.214  2.7705  1.4038 -0.4182
 8162TIP3    H245978   3.505   3.610  13.162 -0.8490 -1.8852 -1.5299
 8163TIP3   OH245979   2.603   3.017  11.669 -0.5478  0.2701 -0.0704
 8163TIP3    H145980   2.690   2.977  11.663 -0.3465  0.6031  0.5589
 8163TIP3    H245981   2.568   2.985  11.752 -0.2977  1.5423  0.5583
 8164TIP3   OH245982   2.160   1.342  11.464 -0.7021  0.2151 -0.2426
 8164TIP3    H145983   2.237   1.340  11.406 -0.4829  0.4330  0.0381
 8164TIP3    H245984   2.196   1.333  11.552 -0.9070  1.2713 -0.0372
 8165TIP3   OH245985   4.567   1.306   0.099 -0.0474 -0.2977  0.1378
 8165TIP3    H145986   4.567   1.285   0.006 -2.4810  0.1109 -0.0338
 8165TIP3    H245987   4.565   1.221   0.143  2.0808 -0.5153 -0.1006
 8166TIP3   OH245988   0.436   5.118   5.096 -0.2369 -0.6133 -0.3122
 8166TIP3    H145989   0.356   5.116   5.149 -0.4163 -0.7226 -0.5861
 8166TIP3    H245990   0.475   5.031   5.109  0.0673 -0.4130  0.1659
 8167TIP3   OH245991   3.896   2.177   1.367  0.2111 -0.0103  0.2555
 8167TIP3    H145992   3.891   2.117   1.292  0.8661  0.3750 -0.1025
 8167TIP3    H245993   3.835   2.140   1.431  0.6647 -1.1005  0.0699
 8168TIP3   OH245994   3.137   4.963  15.519  0.5599 -0.0839 -0.0427
 8168TIP3    H145995   3.215   5.013  15.543  0.2031  1.4080 -1.7876
 8168TIP3    H245996   3.065   5.025  15.528 -0.0233 -0.5555 -1.2910
 8169TIP3   OH245997   3.641   2.478  13.371  0.0316  0.2681 -0.1879
 8169TIP3    H145998   3.550   2.448  13.367  0.2320 -0.3233 -0.4673
 8169TIP3    H245999   3.650   2.537  13.297 -0.2105  0.5740  0.0244
 8170TIP3   OH246000   5.544   0.420  15.130  0.2111  0.1630  0.5018
 8170TIP3    H146001   5.623   0.431  15.182 -0.1329  0.7493  0.9078
 8170TIP3    H246002   5.554   0.481  15.057 -0.1745  0.7364  0.9255
 8171TIP3   OH246003   1.550   5.480  17.091  0.3726  0.1960  0.1989
 8171TIP3    H146004   1.455   5.464  17.093  0.6566 -1.5654  1.1816
 8171TIP3    H246005   1.585   5.426  17.162  1.8250  2.9655  1.7782
 8172TIP3   OH246006   0.664   6.057   4.467 -0.3128 -0.1766  0.3663
 8172TIP3    H146007   0.570   6.063   4.452 -0.4429  0.8348  1.4263
 8172TIP3    H246008   0.702   6.127   4.414 -0.2113 -0.2269  0.3725
 8173TIP3   OH246009   4.437   0.182  15.000  0.6290  0.1163 -0.0967
 8173TIP3    H146010   4.458   0.148  14.913 -0.6339 -1.3064  0.1179
 8173TIP3    H246011   4.404   0.270  14.984 -0.4150 -0.4466 -1.1634
 8174TIP3   OH246012   0.323   1.779   3.090  0.4126 -0.1682 -0.3072
 8174TIP3    H146013   0.295   1.695   3.128  1.8087 -0.2326  0.6811
 8174TIP3    H246014   0.418   1.780   3.103  0.6125  0.9413 -1.6165
 8175TIP3   OH246015   2.572   1.964   1.356 -0.1348  0.1195 -0.5711
 8175TIP3    H146016   2.502   1.963   1.291  0.2245 -0.5380 -0.9635
 8175TIP3    H246017   2.531   1.936   1.437 -0.3653 -0.0597 -0.7511
 8176TIP3   OH246018   3.982   6.239  16.325 -0.3741  0.1612  0.5436
 8176TIP3    H146019   3.979   6.195  16.410 -1.8507 -0.6331  0.1149
 8176TIP3    H246020   4.052   6.195  16.278  0.8109  0.9485  1.5026
 8177TIP3   OH246021   6.497   6.384   3.616  0.7346 -0.5650 -0.2065
 8177TIP3    H146022   6.578   6.349   3.654 -0.1442 -1.9913  0.4484
 8177TIP3    H246023   6.445   6.307   3.595 -0.5726  0.3198 -0.3517
 8178TIP3   OH246024   1.832   0.372  15.534  0.1111  0.1775  0.0921
 8178TIP3    H146025   1.819   0.298  15.475  0.8839 -0.4477  0.6978
 8178TIP3    H246026   1.774   0.355  15.609  0.3847  0.1250  0.2916
 8179TIP3   OH246027   4.298   1.795  12.652  0.0023  0.0029 -0.0814
 8179TIP3    H146028   4.300   1.875  12.599 -0.8377 -1.0947 -1.8825
 8179TIP3    H246029   4.379   1.798  12.703 -0.3617  2.3336  0.4754
 8180TIP3   OH246030   5.397   3.046  14.670  0.0506 -0.1986 -0.2595
 8180TIP3    H146031   5.381   2.970  14.726  1.2357 -0.8046 -0.6937
 8180TIP3    H246032   5.484   3.030  14.634 -0.5743  0.2913 -2.0776
 8181TIP3   OH246033   0.923   0.911   5.468  0.2205  0.1998 -0.3792
 8181TIP3    H146034   0.896   0.838   5.412 -0.5805  0.7234 -0.6908
 8181TIP3    H246035   0.973   0.968   5.410  0.5309  0.0872 -0.2250
 8182TIP3   OH246036   2.701   6.644   0.647  0.2253 -0.0927 -0.3434
 8182TIP3    H146037   2.738   6.563   0.612 -0.1302 -0.0403 -0.8376
 8182TIP3    H246038   2.623   6.660   0.595  0.8113  1.0806 -0.9011
 8183TIP3   OH246039   3.087   3.682   1.101 -0.0531 -0.7220  0.1471
 8183TIP3    H146040   3.180   3.662   1.088  0.3039  0.4645  0.7569
 8183TIP3    H246041   3.053   3.693   1.012  0.2913 -1.5278 -0.0972
 8184TIP3   OH246042   1.894   2.452   1.382 -0.4661 -0.1687 -0.0143
 8184TIP3    H146043   1.811   2.499   1.389  0.1428  0.7734  1.5233
 8184TIP3    H246044   1.947   2.505   1.323 -0.7407 -0.4530 -0.5229
 8185TIP3   OH246045   5.909   6.686   4.098 -0.1217  0.0186 -0.0618
 8185TIP3    H146046   5.858   6.730   4.167 -1.8637 -0.0832 -1.2258
 8185TIP3    H246047   5.892   6.593   4.112 -0.8758  0.0211 -0.9029
 8186TIP3   OH246048   0.939   1.480  14.469 -0.0092  0.1248 -0.0313
 8186TIP3    H146049   0.951   1.439  14.555  0.0659 -0.8507 -0.5002
 8186TIP3    H246050   0.974   1.417  14.407 -0.9334  0.4066 -0.8603
 8187TIP3   OH246051   1.990   0.062  15.259  0.1809 -0.1402 -0.3541
 8187TIP3    H146052   1.989   0.155  15.236 -0.8911 -0.3328 -1.1856
 8187TIP3    H246053   1.977   0.060  15.353  1.7428  0.5956 -0.0981
 8188TIP3   OH246054   0.372   3.121  14.442 -0.5797 -0.2247  0.1008
 8188TIP3    H146055   0.378   3.147  14.350 -3.3297 -2.0187 -0.7196
 8188TIP3    H246056   0.450   3.158  14.482 -0.3797  2.5936 -2.4489
 8189TIP3   OH246057   1.349   0.198   3.782 -0.7300 -0.0940  0.1455
 8189TIP3    H146058   1.284   0.169   3.717 -0.6696 -0.6890  0.3465
 8189TIP3    H246059   1.339   0.137   3.855  0.4577 -0.5772 -0.0623
 8190TIP3   OH246060   1.434   5.134  16.899 -0.8312  0.4268 -0.1526
 8190TIP3    H146061   1.503   5.126  16.965  0.0959 -3.3743 -1.3267
 8190TIP3    H246062   1.469   5.197  16.835  0.6724  0.1051  0.3114
 8191TIP3   OH246063   4.806   4.911  12.647 -0.1185  0.0205  0.0039
 8191TIP3    H146064   4.766   4.847  12.706 -0.1190  0.9143  1.0051
 8191TIP3    H246065   4.887   4.869  12.619 -0.7589 -0.9703 -0.4326
 8192TIP3   OH246066   4.136   6.080   2.151  0.3279  0.3351 -0.1251
 8192TIP3    H146067   4.074   6.055   2.219  0.2842 -0.9710 -0.6137
 8192TIP3    H246068   4.139   6.176   2.155 -0.7454  0.3534  0.7551
 8193TIP3   OH246069   0.365   5.895  12.283  0.4398 -0.1913 -0.0925
 8193TIP3    H146070   0.341   5.806  12.308  0.8635 -0.6570 -1.2643
 8193TIP3    H246071   0.385   5.889  12.189  1.4430  0.9408  0.0274
 8194TIP3   OH246072   2.260   5.152   1.242 -0.2129 -0.1481 -0.3105
 8194TIP3    H146073   2.191   5.143   1.177 -1.0485 -0.8418  0.6464
 8194TIP3    H246074   2.331   5.197   1.196 -0.1549 -1.9984 -2.1432
 8195TIP3   OH246075   1.632   0.650   2.413 -0.0037 -0.1077  0.1746
 8195TIP3    H146076   1.671   0.563   2.411 -2.2808 -1.2110  0.4017
 8195TIP3    H246077   1.695   0.704   2.461  1.3576 -1.6721  0.2286
 8196TIP3   OH246078   2.772   3.711  13.746 -0.1350 -0.0881  0.3199
 8196TIP3    H146079   2.721   3.678  13.672 -0.9791  0.4405  0.6456
 8196TIP3    H246080   2.846   3.757  13.706 -0.0857 -0.5845 -0.1692
 8197TIP3   OH246081   1.227   3.305   5.179 -0.0874 -0.2409  0.3301
 8197TIP3    H146082   1.322   3.297   5.188 -0.0943 -0.0708  0.5572
 8197TIP3    H246083   1.207   3.259   5.097  0.3871  1.1299 -0.5917
 8198TIP3   OH246084   2.431   1.210  17.005  0.5827  0.1654 -0.2385
 8198TIP3    H146085   2.435   1.276  16.936  0.3082  0.7860  0.3382
 8198TIP3    H246086   2.522   1.183  17.016  0.8595  1.2706  0.3063
 8199TIP3   OH246087   0.696   2.181  12.279  0.5232 -0.1666  0.2310
 8199TIP3    H146088   0.771   2.241  12.270 -0.2596  0.6277 -1.3262
 8199TIP3    H246089   0.682   2.175  12.374  0.7906  1.9353  0.4501
 8200TIP3   OH246090   4.929   2.610  16.819  0.2019  0.3568  0.2619
 8200TIP3    H146091   4.912   2.519  16.842 -3.4429  0.6579 -0.6776
 8200TIP3    H246092   5.025   2.618  16.821  0.6032 -3.2025  1.2408
 8201TIP3   OH246093   1.770   6.511   4.259 -0.4251  0.3325  0.1764
 8201TIP3    H146094   1.842   6.573   4.251 -0.1558  0.0097  0.1138
 8201TIP3    H246095   1.722   6.541   4.337  0.4015 -0.0951  0.8668
 8202TIP3   OH246096   5.491   1.823  13.449  0.3674  0.2225 -0.2903
 8202TIP3    H146097   5.569   1.833  13.394  0.2908  0.3959 -0.3684
 8202TIP3    H246098   5.455   1.738  13.423 -1.8060  1.8838 -3.2889
 8203TIP3   OH246099   0.199   3.478   2.209  0.0336 -0.2443 -0.5170
 8203TIP3    H146100   0.153   3.534   2.270 -1.6170 -1.2422 -0.7824
 8203TIP3    H246101   0.140   3.404   2.194  0.9036 -0.6462 -2.3517
 8204TIP3   OH246102   5.446   2.762  15.343  0.9295  0.4605 -0.8174
 8204TIP3    H146103   5.367   2.815  15.346  0.5034 -0.1419 -1.2500
 8204TIP3    H246104   5.502   2.805  15.278  1.0153  0.9554 -0.4215
 8205TIP3   OH246105   2.379   5.701  15.186  0.0782  0.2099  0.3468
 8205TIP3    H146106   2.394   5.607  15.171  1.4992  0.6999 -1.7202
 8205TIP3    H246107   2.395   5.713  15.279  2.6116 -1.1859  0.1958
 8206TIP3   OH246108   5.013   6.062  14.837  0.6483 -0.3934 -0.5682
 8206TIP3    H146109   5.020   5.969  14.860  0.7521  0.1432  1.7360
 8206TIP3    H246110   4.919   6.079  14.833  0.6312 -0.4918 -0.5951
 8207TIP3   OH246111   5.416   4.806  10.422  0.0259 -0.3219 -0.4577
 8207TIP3    H146112   5.465   4.807  10.341 -0.5337  0.4280 -0.7978
 8207TIP3    H246113   5.379   4.718  10.427  0.6624 -0.6038 -0.6364
 8208TIP3   OH246114   3.216   5.510  11.931 -0.0683  0.0807 -0.4773
 8208TIP3    H146115   3.253   5.576  11.871 -0.4112 -0.4375 -1.2773
 8208TIP3    H246116   3.293   5.471  11.972  0.2266 -0.1096 -1.1832
 8209TIP3   OH246117   6.285   0.513  14.807  0.0194  0.0598  0.2125
 8209TIP3    H146118   6.342   0.578  14.848 -0.9382 -0.2916  2.2584
 8209TIP3    H246119   6.250   0.463  14.881 -2.2687 -0.2735 -1.0080
 8210TIP3   OH246120   0.674   1.487  14.686  0.1547 -0.3316 -0.3759
 8210TIP3    H146121   0.677   1.506  14.592 -0.5890  0.4442 -0.2541
 8210TIP3    H246122   0.601   1.539  14.719 -0.3336 -1.4793  0.4405
 8211TIP3   OH246123   5.988   0.556  15.439 -0.8116 -0.4808  0.0291
 8211TIP3    H146124   6.033   0.472  15.450 -0.9675 -0.4988  0.5232
 8211TIP3    H246125   6.026   0.612  15.506 -2.3756 -0.8453  1.2724
 8212TIP3   OH246126   3.291   6.183  15.599  1.5530  0.7663  0.7729
 8212TIP3    H146127   3.342   6.264  15.598  0.8938  1.1848  0.2823
 8212TIP3    H246128   3.325   6.132  15.525  0.9766  1.2364  0.1700
 8213TIP3   OH246129   6.025   3.415  16.184  0.1748  0.1190 -0.2856
 8213TIP3    H146130   6.045   3.473  16.111 -0.2505  0.2424 -0.3073
 8213TIP3    H246131   6.106   3.412  16.235  0.2120  0.7023 -0.3064
 8214TIP3   OH246132   1.690   5.741   1.819 -0.0364 -0.2116  0.0062
 8214TIP3    H146133   1.642   5.724   1.899 -0.1535  1.0547  0.2333
 8214TIP3    H246134   1.778   5.765   1.848  0.4148 -1.3735 -0.3444
 8215TIP3   OH246135   6.828   3.746   4.321  0.0053 -0.0467 -0.3737
 8215TIP3    H146136   6.816   3.656   4.351  0.7787 -0.1387 -0.3333
 8215TIP3    H246137   6.747   3.790   4.346 -0.4405 -0.7606 -0.5166
 8216TIP3   OH246138   0.826   4.444   2.771 -0.0087 -0.4171 -0.1137
 8216TIP3    H146139   0.776   4.389   2.830 -0.7437  1.1098  0.7383
 8216TIP3    H246140   0.760   4.492   2.720  0.5463  1.0327  0.4655
 8217TIP3   OH246141   5.241   5.742  16.280  0.0080  0.0975  0.4434
 8217TIP3    H146142   5.331   5.713  16.293 -0.0624  0.5727  2.3074
 8217TIP3    H246143   5.196   5.666  16.242  0.7422 -0.8398  1.4042
 8218TIP3   OH246144   4.823   0.066  13.624 -0.2342  0.5538  0.2279
 8218TIP3    H146145   4.901   0.095  13.577  0.3291  1.2541  1.5277
 8218TIP3    H246146   4.817   0.125  13.700  0.3595 -2.0226  2.4330
 8219TIP3   OH246147   4.963   6.161  11.224 -0.0981  0.2853  0.2145
 8219TIP3    H146148   4.927   6.244  11.254  1.9336  1.4716 -0.4449
 8219TIP3    H246149   4.956   6.165  11.128  0.6084 -0.0131  0.1469
 8220TIP3   OH246150   4.191   4.155  12.329  0.8635 -0.0525  0.2065
 8220TIP3    H146151   4.192   4.167  12.424  0.8325  0.7501  0.1154
 8220TIP3    H246152   4.276   4.186  12.300 -0.1926  2.5967 -0.3242
 8221TIP3   OH246153   3.057   4.138  12.127  0.1345  0.3471 -0.1250
 8221TIP3    H146154   3.058   4.070  12.059 -4.1295  0.3502 -0.5048
 8221TIP3    H246155   3.006   4.209  12.087 -1.0389  1.0511  2.4387
 8222TIP3   OH246156   6.780   2.435   3.889  0.5710  0.0328  0.6146
 8222TIP3    H146157   6.716   2.456   3.957  0.8429 -0.1888  0.9471
 8222TIP3    H246158   6.823   2.356   3.921 -1.7199 -2.2364 -1.4611
 8223TIP3   OH246159   3.023   5.740  12.510 -0.4288  0.2752  0.0966
 8223TIP3    H146160   3.008   5.693  12.428  1.3538  0.5811 -0.4486
 8223TIP3    H246161   3.042   5.671  12.574 -0.7023  0.1036 -0.0064
 8224TIP3   OH246162   3.337   4.348   0.033  0.1008 -0.0519 -0.0775
 8224TIP3    H146163   3.260   4.402   0.052 -0.2088 -0.8141  0.9415
 8224TIP3    H246164   3.411   4.409   0.039 -0.3147  0.4258  0.2412
 8225TIP3   OH246165   5.519   0.977  17.076  0.5503 -0.4458 -0.0430
 8225TIP3    H146166   5.457   0.950  17.144  0.7513 -1.5473 -0.2809
 8225TIP3    H246167   5.600   0.932  17.098  2.0722  2.7160  1.5790
 8226TIP3   OH246168   6.314   1.097   4.040  0.0464 -0.4008 -0.2957
 8226TIP3    H146169   6.280   1.167   4.095  1.3907  1.1807 -1.3687
 8226TIP3    H246170   6.240   1.072   3.984  0.3912  2.8559 -2.4927
 8227TIP3   OH246171   5.821   4.953   2.529 -0.2413  0.5394  0.3431
 8227TIP3    H146172   5.869   4.933   2.449 -2.3067  0.6416 -1.0002
 8227TIP3    H246173   5.772   5.033   2.508 -1.3016  0.2165  1.4833
 8228TIP3   OH246174   2.578   2.232  14.889 -0.3177 -0.0216  0.6102
 8228TIP3    H146175   2.596   2.286  14.966  0.9522  0.5560 -0.0599
 8228TIP3    H246176   2.620   2.148  14.908 -1.6840 -0.5726  1.3490
 8229TIP3   OH246177   2.796   3.368   4.828  0.8508 -0.6104  0.0807
 8229TIP3    H146178   2.755   3.313   4.895 -0.6292  1.9473  1.4201
 8229TIP3    H246179   2.887   3.377   4.856  0.4334 -0.1987  1.3478
 8230TIP3   OH246180   3.062   3.652   4.170  0.0139 -0.0099 -0.0927
 8230TIP3    H146181   3.105   3.691   4.094 -1.0818  0.6051 -0.4287
 8230TIP3    H246182   3.077   3.558   4.162  0.5850  0.1236 -0.6342
 8231TIP3   OH246183   4.369   1.009   1.010  0.1000 -0.6527  0.4919
 8231TIP3    H146184   4.277   1.019   1.035 -0.3157 -0.9680 -0.8120
 8231TIP3    H246185   4.417   1.011   1.092 -1.1049 -0.8151  1.2190
 8232TIP3   OH246186   6.030   1.198   5.841 -0.2219  0.5717  0.0248
 8232TIP3    H146187   6.001   1.289   5.829 -1.7315  0.1843  0.5966
 8232TIP3    H246188   6.093   1.203   5.913  0.9276  1.3774 -0.9944
 8233TIP3   OH246189   4.083   5.601   2.524  0.0182  0.2326  0.4850
 8233TIP3    H146190   4.096   5.655   2.446 -1.9019  2.0549  1.3317
 8233TIP3    H246191   4.107   5.513   2.496 -1.7716  0.5840 -2.5704
 8234TIP3   OH246192   6.771   4.965   0.245 -0.9043 -0.1912  0.1783
 8234TIP3    H146193   6.822   4.891   0.212 -1.1536  0.4311 -1.7745
 8234TIP3    H246194   6.683   4.951   0.210 -0.5921  1.7913 -1.6499
 8235TIP3   OH246195   3.426   3.717  10.415  0.0961  0.6833  0.2172
 8235TIP3    H146196   3.421   3.624  10.393  0.6488  0.9009 -0.9243
 8235TIP3    H246197   3.497   3.723  10.479 -0.3014  0.2590  0.7031
 8236TIP3   OH246198   4.751   5.491   5.111  0.2238 -0.3731 -0.2055
 8236TIP3    H146199   4.806   5.425   5.154  0.5851 -1.4905 -2.2521
 8236TIP3    H246200   4.804   5.522   5.037 -1.4392 -0.7236 -1.6127
 8237TIP3   OH246201   1.414   2.368   4.155  0.1078  0.0794  0.5575
 8237TIP3    H146202   1.342   2.305   4.160 -0.6954  0.8758 -0.4854
 8237TIP3    H246203   1.397   2.429   4.228  0.4455 -0.4543  1.0862
 8238TIP3   OH246204   1.683   4.977  15.804  0.8948  0.5835  0.0827
 8238TIP3    H146205   1.628   4.930  15.868  0.0503  0.9653 -0.3442
 8238TIP3    H246206   1.767   4.987  15.848  0.9956 -1.0359  0.3125
 8239TIP3   OH246207   1.526   4.451   3.723  0.4022  0.3447 -0.0973
 8239TIP3    H146208   1.485   4.445   3.809  0.5271  0.4454 -0.0305
 8239TIP3    H246209   1.581   4.530   3.728  0.1439  0.5443 -0.3806
 8240TIP3   OH246210   0.352   4.099  14.189 -0.2973  0.2723  0.2050
 8240TIP3    H146211   0.281   4.095  14.125 -1.6784  1.0979  1.6221
 8240TIP3    H246212   0.432   4.102  14.136 -1.3647  0.5323 -1.4641
 8241TIP3   OH246213   2.022   4.840  12.975  0.1261 -0.4942  0.6849
 8241TIP3    H146214   2.111   4.844  13.009  1.9267 -0.4200 -3.3664
 8241TIP3    H246215   2.006   4.746  12.960  0.6694 -0.3422 -1.0283
 8242TIP3   OH246216   6.685   1.432   1.045  0.2870 -0.0473  0.3963
 8242TIP3    H146217   6.604   1.453   1.092  0.9502 -1.1679  2.1290
 8242TIP3    H246218   6.686   1.336   1.041  2.1767 -0.1208  1.6276
 8243TIP3   OH246219   4.587   1.594  11.035  0.4207  0.1837 -0.6042
 8243TIP3    H146220   4.594   1.616  11.128  1.3152 -0.1469 -0.5801
 8243TIP3    H246221   4.658   1.531  11.020  0.9691  1.0327 -1.7488
 8244TIP3   OH246222   2.905   5.422   2.396 -0.3009  0.5803  0.0504
 8244TIP3    H146223   2.835   5.457   2.339 -1.2561 -1.4416 -0.0846
 8244TIP3    H246224   2.985   5.436   2.346 -0.8467  1.0329 -0.7236
 8245TIP3   OH246225   3.432   6.092  14.925  0.7005 -0.4603 -0.5668
 8245TIP3    H146226   3.415   6.082  15.018  1.6980 -0.1749 -0.3426
 8245TIP3    H246227   3.406   6.008  14.887  0.0091 -0.4718 -0.0790
 8246TIP3   OH246228   5.045   2.521  15.885  0.5153 -0.5585 -0.1822
 8246TIP3    H146229   5.120   2.554  15.936 -1.2661 -1.7834  3.5802
 8246TIP3    H246230   5.043   2.577  15.807  4.4853  0.3701  0.1347
 8247TIP3   OH246231   4.278   0.455   5.689 -0.1080 -0.0739 -0.1712
 8247TIP3    H146232   4.280   0.547   5.715 -0.0532  0.5275 -2.1452
 8247TIP3    H246233   4.189   0.426   5.709 -0.8538  1.1005 -1.6262
 8248TIP3   OH246234   4.593   5.099  12.617  0.7645  0.6330  0.2831
 8248TIP3    H146235   4.517   5.040  12.628  0.9637  0.0636 -1.1961
 8248TIP3    H246236   4.668   5.040  12.609  0.9409  1.0590 -1.4765
 8249TIP3   OH246237   0.509   3.815  16.033 -0.1134  0.1308 -0.0224
 8249TIP3    H146238   0.594   3.786  16.066  0.6330  0.7675 -1.3534
 8249TIP3    H246239   0.455   3.821  16.112  0.9054 -0.7771  0.7878
 8250TIP3   OH246240   3.340   3.462   2.244 -0.0696  0.4715  0.0648
 8250TIP3    H146241   3.345   3.465   2.340  2.2158 -1.0607  0.0660
 8250TIP3    H246242   3.293   3.380   2.225 -1.1219  1.1050 -0.1647
 8251TIP3   OH246243   0.482   3.072  14.988  0.1580  0.1601  0.0974
 8251TIP3    H146244   0.474   3.121  14.906 -2.1346 -2.6380 -1.5259
 8251TIP3    H246245   0.511   2.985  14.962  1.4999 -0.2348  2.5644
 8252TIP3   OH246246   5.311   3.623  13.358 -0.1703 -0.5883  0.1632
 8252TIP3    H146247   5.262   3.679  13.299  1.0148  0.9979  0.6134
 8252TIP3    H246248   5.310   3.668  13.442  1.1123 -1.0339  0.4542
 8253TIP3   OH246249   1.964   6.827  16.352 -0.0508 -1.2739  0.5613
 8253TIP3    H146250   1.929   6.782  16.275 -0.5838  2.6022 -1.7320
 8253TIP3    H246251   1.888   6.871  16.390  0.9038  0.4894  0.5219
 8254TIP3   OH246252   6.755   5.129   2.229  0.8499 -0.8249 -0.0817
 8254TIP3    H146253   6.663   5.134   2.257  1.5685 -2.3162  2.9190
 8254TIP3    H246254   6.767   5.208   2.175 -1.0493  1.9371  3.1250
 8255TIP3   OH246255   3.526   5.152   5.152  0.3142  0.6608 -0.7668
 8255TIP3    H146256   3.604   5.185   5.106  0.1620  0.3462 -1.2622
 8255TIP3    H246257   3.468   5.229   5.158  0.7290  0.9361 -0.2495
 8256TIP3   OH246258   2.561   4.764   3.516 -0.2111 -0.4367 -0.1554
 8256TIP3    H146259   2.494   4.737   3.453 -0.8077 -0.5809  0.5229
 8256TIP3    H246260   2.640   4.776   3.464 -0.4513 -1.4907 -0.7989
 8257TIP3   OH246261   1.172   2.610  14.205  0.3638  0.3059  0.1594
 8257TIP3    H146262   1.111   2.536  14.208 -1.3014  1.3459 -3.0213
 8257TIP3    H246263   1.194   2.627  14.296  0.5039 -3.7710  1.0706
 8258TIP3   OH246264   0.012   1.085   3.354 -0.2901 -0.5902  0.3913
 8258TIP3    H146265   0.061   1.042   3.283  0.0647  0.4645 -0.0238
 8258TIP3    H246266   0.077   1.095   3.425  0.2993  1.2546 -0.3379
 8259TIP3   OH246267   1.741   3.417   0.168 -0.0139  0.3463  0.8590
 8259TIP3    H146268   1.798   3.482   0.210 -0.4360 -0.0198  2.0533
 8259TIP3    H246269   1.781   3.333   0.192 -0.1409  0.1313  0.3244
 8260TIP3   OH246270   5.271   5.787   1.566 -0.0235 -0.0896  0.3877
 8260TIP3    H146271   5.339   5.818   1.627 -1.8554  0.9814  1.9893
 8260TIP3    H246272   5.224   5.720   1.615  0.9080 -2.1534 -1.3584
 8261TIP3   OH246273   2.391   0.096   2.909  0.3157 -0.3924 -0.3839
 8261TIP3    H146274   2.445   0.170   2.882 -1.2924  1.7949  1.9620
 8261TIP3    H246275   2.452   0.037   2.953  1.4643 -0.0008 -1.3941
 8262TIP3   OH246276   3.033   0.439  12.201  0.1945 -0.2727 -0.4218
 8262TIP3    H146277   3.106   0.398  12.156 -0.6064 -0.8404 -1.2495
 8262TIP3    H246278   3.066   0.525  12.229  1.2579 -0.6524 -0.4870
 8263TIP3   OH246279   1.068   0.687  13.809 -0.0303 -0.0543  0.0719
 8263TIP3    H146280   1.044   0.673  13.901  1.6527 -0.6604  0.4533
 8263TIP3    H246281   1.061   0.600  13.769 -0.8989  0.2339 -0.4294
 8264TIP3   OH246282   1.797   4.823   4.336  0.1575  0.1968  0.0635
 8264TIP3    H146283   1.785   4.829   4.241 -0.5149 -0.2668  0.1124
 8264TIP3    H246284   1.892   4.830   4.349  0.2110  0.8038 -0.5969
 8265TIP3   OH246285   2.595   6.512  16.288 -0.3536  0.3574  0.0376
 8265TIP3    H146286   2.583   6.596  16.330  0.8517  0.0339  1.0687
 8265TIP3    H246287   2.548   6.450  16.344  0.5495  0.0491  0.4724
 8266TIP3   OH246288   0.376   1.302  14.442  0.4000 -0.3077 -0.4761
 8266TIP3    H146289   0.343   1.387  14.472  0.1808  0.2630 -2.2675
 8266TIP3    H246290   0.468   1.318  14.422  1.8633 -1.7427  3.8941
 8267TIP3   OH246291   0.172   2.184   0.546 -0.0463  0.4892 -0.1477
 8267TIP3    H146292   0.156   2.186   0.640  1.4974 -1.8953  0.2607
 8267TIP3    H246293   0.106   2.124   0.512  0.1151  0.4470 -0.3891
 8268TIP3   OH246294   6.689   4.542   1.465 -0.2636 -0.1241 -0.3741
 8268TIP3    H146295   6.680   4.452   1.495 -0.5464 -0.0244 -0.1501
 8268TIP3    H246296   6.668   4.595   1.542  0.2422  0.1340 -0.4107
 8269TIP3   OH246297   5.793   5.796  15.230  0.5481  0.0306  0.4362
 8269TIP3    H146298   5.841   5.800  15.312  1.5732 -0.9215 -0.0738
 8269TIP3    H246299   5.856   5.758  15.168 -0.6031 -0.4429 -0.4777
 8270TIP3   OH246300   3.988   2.763  14.491 -0.2129  0.1551 -0.8473
 8270TIP3    H146301   3.893   2.775  14.496 -0.0212  1.2398  0.7441
 8270TIP3    H246302   4.000   2.668  14.498 -1.1587  0.0498 -0.4397
 8271TIP3   OH246303   2.330   3.442   1.307  0.3131 -0.2689 -0.1431
 8271TIP3    H146304   2.240   3.444   1.340  0.1082  0.5095 -0.7110
 8271TIP3    H246305   2.323   3.410   1.217  0.6404 -0.5159 -0.0819
 8272TIP3   OH246306   6.696   2.430  11.831 -1.0210 -0.1268  0.2930
 8272TIP3    H146307   6.750   2.466  11.761  0.7794 -2.6629  0.2312
 8272TIP3    H246308   6.617   2.398  11.787 -0.5095 -0.4720 -0.3951
 8273TIP3   OH246309   5.880   2.256  12.524 -0.3322 -0.8071 -0.1086
 8273TIP3    H146310   5.890   2.163  12.544 -0.7538 -0.9890 -0.6881
 8273TIP3    H246311   5.923   2.267  12.439  0.7880 -0.2089  0.5105
 8274TIP3   OH246312   5.095   6.088   2.333 -0.1343  0.1925 -0.5703
 8274TIP3    H146313   5.166   6.047   2.284  0.7980  0.7270  0.2851
 8274TIP3    H246314   5.140   6.146   2.395 -1.3557  1.2620 -0.6538
 8275TIP3   OH246315   4.884   2.143   3.463 -0.0733  0.2957 -0.4441
 8275TIP3    H146316   4.969   2.185   3.450  0.7109 -0.8761  0.6349
 8275TIP3    H246317   4.829   2.212   3.499  0.7448  0.8001 -0.1137
 8276TIP3   OH246318   3.195   1.390  13.156  0.0108 -0.1982  0.0695
 8276TIP3    H146319   3.256   1.331  13.111 -0.2710  0.3025 -1.0245
 8276TIP3    H246320   3.208   1.373  13.249  1.9048 -0.0207 -0.1291
 8277TIP3   OH246321   2.977   3.119  13.592  0.7415  0.2957  0.6813
 8277TIP3    H146322   3.068   3.132  13.567  0.6669  0.9938  0.7725
 8277TIP3    H246323   2.964   3.024  13.585  0.7155  0.4064 -2.0222
 8278TIP3   OH246324   4.439   0.622   2.375 -0.0286  0.3690  0.0463
 8278TIP3    H146325   4.426   0.553   2.440  0.7225  0.2984  0.1345
 8278TIP3    H246326   4.380   0.693   2.402 -1.8994 -0.7768 -0.8711
 8279TIP3   OH246327   6.476   4.192  15.840  0.0183 -0.4916  0.0314
 8279TIP3    H146328   6.448   4.276  15.877 -0.1061 -0.0799 -0.9570
 8279TIP3    H246329   6.571   4.198  15.835 -0.0713  0.2536 -1.4849
 8280TIP3   OH246330   4.842   5.621   2.770 -0.2539 -0.4480  0.7751
 8280TIP3    H146331   4.767   5.614   2.711 -0.2043 -2.7421  0.8821
 8280TIP3    H246332   4.918   5.627   2.712 -0.4700  2.3898  0.6621
 8281TIP3   OH246333   3.878   3.635   2.094  0.0729 -0.1323  0.3903
 8281TIP3    H146334   3.792   3.644   2.052 -1.8258 -2.7777  3.3045
 8281TIP3    H246335   3.929   3.709   2.059 -3.0491  1.0963 -2.0981
 8282TIP3   OH246336   3.575   4.306   0.810  0.0989  0.5428 -0.3721
 8282TIP3    H146337   3.516   4.263   0.872  1.5662  0.8257  1.2946
 8282TIP3    H246338   3.523   4.379   0.775 -0.3119  1.3103  1.6814
 8283TIP3   OH246339   6.155   0.524   1.617 -0.0631 -0.1134 -0.4657
 8283TIP3    H146340   6.197   0.446   1.652 -0.2019 -0.2937 -0.6972
 8283TIP3    H246341   6.061   0.506   1.624 -0.1770  0.8895  1.4512
 8284TIP3   OH246342   2.942   0.785   6.150 -0.4126 -0.2335 -0.3728
 8284TIP3    H146343   3.038   0.794   6.149 -0.2147 -1.9377  0.0843
 8284TIP3    H246344   2.925   0.710   6.093 -1.4512 -0.2293 -0.0718
 8285TIP3   OH246345   0.781   1.493   3.073 -0.0989  0.3272 -0.7574
 8285TIP3    H146346   0.862   1.444   3.061  1.1292  2.0782 -0.0282
 8285TIP3    H246347   0.726   1.436   3.126  0.6573 -0.8638 -1.2049
 8286TIP3   OH246348   6.139   1.213   4.247  0.2488  0.3913 -0.6252
 8286TIP3    H146349   6.150   1.118   4.256 -1.6123  0.3379  2.4551
 8286TIP3    H246350   6.053   1.224   4.207 -1.6641  0.6054  3.1274
 8287TIP3   OH246351   6.257   0.917  13.104 -0.3614 -0.5453  0.8986
 8287TIP3    H146352   6.318   0.953  13.040 -0.4202  0.7191  1.5145
 8287TIP3    H246353   6.222   0.838  13.063 -0.0671 -0.0030 -0.4376
 8288TIP3   OH246354   3.982   3.611  13.042 -0.0540 -0.4441 -0.1443
 8288TIP3    H146355   3.994   3.705  13.027  0.0802 -0.5018 -0.4062
 8288TIP3    H246356   4.007   3.597  13.133  2.2559 -0.6241 -0.7462
 8289TIP3   OH246357   0.671   5.308   4.222  0.3943 -0.0809  0.1772
 8289TIP3    H146358   0.649   5.348   4.138  1.2931 -0.3562 -0.2046
 8289TIP3    H246359   0.587   5.287   4.262 -0.0861  1.3119 -0.0386
 8290TIP3   OH246360   5.999   5.991   2.344  0.6143  0.1349 -0.6529
 8290TIP3    H146361   6.082   5.993   2.296  0.4460  3.7625 -1.1122
 8290TIP3    H246362   5.933   5.974   2.276  0.8305 -1.4309 -0.5033
 8291TIP3   OH246363   6.493   2.362   3.985 -0.1841 -0.1220  0.0891
 8291TIP3    H146364   6.486   2.319   3.899 -1.8450 -3.5295  1.7087
 8291TIP3    H246365   6.403   2.385   4.008 -0.0874 -1.1532  1.6901
 8292TIP3   OH246366   4.513   4.661  11.404 -0.8085  0.7675 -0.4980
 8292TIP3    H146367   4.425   4.690  11.431 -0.8465  0.9865 -0.8558
 8292TIP3    H246368   4.512   4.666  11.309 -1.4176 -2.1515 -0.7278
 8293TIP3   OH246369   4.113   4.438  14.501  0.2641 -0.3010  0.5935
 8293TIP3    H146370   4.094   4.502  14.570  1.2088  0.8230 -0.1465
 8293TIP3    H246371   4.198   4.401  14.526 -0.4536 -1.5779  1.2161
 8294TIP3   OH246372   1.585   0.264   5.371 -0.6650  0.1342 -0.3185
 8294TIP3    H146373   1.540   0.235   5.291  0.5392  0.4043 -1.1343
 8294TIP3    H246374   1.541   0.218   5.442  0.0069 -2.3498 -1.4051
 8295TIP3   OH246375   1.675   5.841  14.955  0.2960  0.1824  0.0609
 8295TIP3    H146376   1.708   5.878  15.037 -0.0187  1.3846 -0.3413
 8295TIP3    H246377   1.754   5.826  14.903  0.5135 -0.7554  0.6325
 8296TIP3   OH246378   6.376   2.356   6.240  1.2465 -0.1644  0.5632
 8296TIP3    H146379   6.343   2.440   6.210  0.5392 -0.3277  0.8843
 8296TIP3    H246380   6.322   2.333   6.315  1.4586 -0.8847  0.5076
 8297TIP3   OH246381   5.516   0.817  14.970  0.1910  0.5805  0.1013
 8297TIP3    H146382   5.539   0.910  14.971 -1.5338  1.0503  0.0972
 8297TIP3    H246383   5.470   0.805  14.887  2.3390 -0.8495 -0.9783
 8298TIP3   OH246384   5.119   1.281  14.067 -0.0398 -0.0556  0.0145
 8298TIP3    H146385   5.150   1.244  14.150 -0.4088  1.5734  0.9362
 8298TIP3    H246386   5.196   1.279  14.010 -0.1690 -2.6167 -0.1771
 8299TIP3   OH246387   5.794   3.164  15.885 -0.2796 -0.1573 -0.1421
 8299TIP3    H146388   5.740   3.240  15.904  0.3378  0.0185  0.9755
 8299TIP3    H246389   5.731   3.093  15.874 -0.7748  0.0160  1.2726
 8300TIP3   OH246390   1.987   5.134  11.037 -0.7573 -0.1055  0.2698
 8300TIP3    H146391   2.024   5.212  10.996 -1.7502  1.2692  1.8662
 8300TIP3    H246392   2.045   5.116  11.112  0.5442 -2.0746 -1.1083
 8301TIP3   OH246393   0.785   2.172   1.234 -0.2616 -0.5416  0.0019
 8301TIP3    H146394   0.742   2.137   1.156 -0.0551  0.0977 -0.4043
 8301TIP3    H246395   0.747   2.260   1.245  0.8287 -0.0285 -0.2792
 8302TIP3   OH246396   0.565   5.210   1.694  0.5299  0.1286  0.1121
 8302TIP3    H146397   0.610   5.273   1.751  0.8858  0.3316 -0.3840
 8302TIP3    H246398   0.495   5.173   1.749  1.4654 -0.3961  0.9966
 8303TIP3   OH246399   6.221   3.395  12.393  0.2070  0.3578 -0.0340
 8303TIP3    H146400   6.217   3.361  12.304 -1.3894  0.4023  0.0002
 8303TIP3    H246401   6.289   3.343  12.435 -0.6862 -1.3538 -0.5921
 8304TIP3   OH246402   2.934   4.459   1.445 -0.4736  0.0649 -0.0857
 8304TIP3    H146403   2.840   4.470   1.462 -0.3951  1.1968 -0.2986
 8304TIP3    H246404   2.976   4.492   1.525 -0.2337  0.6854 -0.4633
 8305TIP3   OH246405   4.692   6.036  13.396 -0.2467 -0.5330 -0.1345
 8305TIP3    H146406   4.637   6.006  13.469 -1.2145  0.9881 -0.1986
 8305TIP3    H246407   4.632   6.081  13.337  0.9056  0.3413 -0.6884
 8306TIP3   OH246408   1.403   2.258   2.018  0.3630  0.2648 -0.4956
 8306TIP3    H146409   1.346   2.334   2.014  0.0889  0.1784  1.3075
 8306TIP3    H246410   1.376   2.204   1.943  0.4256  1.7979 -1.6808
 8307TIP3   OH246411   2.581   2.740  11.118 -0.2031 -0.1588  0.5120
 8307TIP3    H146412   2.563   2.650  11.090  0.1077 -1.2187  3.3417
 8307TIP3    H246413   2.674   2.752  11.099 -0.2212 -0.4930  0.1966
 8308TIP3   OH246414   1.419   5.977   3.302  0.1042 -0.3636  0.3222
 8308TIP3    H146415   1.401   6.071   3.301  0.1695 -0.3606 -0.6083
 8308TIP3    H246416   1.373   5.942   3.227 -0.4008 -1.1819  0.9958
 8309TIP3   OH246417   3.065   2.266  12.077  0.0430  0.2161  0.1680
 8309TIP3    H146418   3.126   2.297  12.009  1.5669  1.2542  1.8918
 8309TIP3    H246419   2.978   2.284  12.042  0.6705 -1.2033 -2.3436
 8310TIP3   OH246420   6.781   1.699  10.601 -0.0940  0.8052  0.5946
 8310TIP3    H146421   6.745   1.641  10.533  0.2081  0.0529  1.0656
 8310TIP3    H246422   6.850   1.748  10.556  0.7338 -0.3491  0.5588
 8311TIP3   OH246423   4.379   0.708  13.663 -0.0284 -0.1918  0.1234
 8311TIP3    H146424   4.423   0.625  13.646 -1.4201 -1.2534  1.4704
 8311TIP3    H246425   4.288   0.684  13.681 -0.2408  1.5124  1.6225
 8312TIP3   OH246426   0.076   6.714  16.726  0.6685 -0.2238  0.5077
 8312TIP3    H146427  -0.007   6.666  16.723  0.3365  0.3758 -0.0643
 8312TIP3    H246428   0.140   6.649  16.756 -0.0750 -0.5862  1.3297
 8313TIP3   OH246429   1.852   0.205   3.480  0.0169 -0.1678 -0.4986
 8313TIP3    H146430   1.926   0.143   3.477  0.1837  0.0449 -0.9582
 8313TIP3    H246431   1.800   0.177   3.555  1.2755  0.4956  0.6850
 8314TIP3   OH246432   0.478   6.772  11.109 -0.7428 -0.2195  0.3853
 8314TIP3    H146433   0.490   6.689  11.063  0.1657 -0.4722  1.0447
 8314TIP3    H246434   0.430   6.827  11.047  1.3972 -0.1622 -1.3654
 8315TIP3   OH246435   6.328   4.012   0.972  0.0350 -0.3895  0.1934
 8315TIP3    H146436   6.233   4.012   0.978 -0.1264 -0.7549 -1.7264
 8315TIP3    H246437   6.352   4.104   0.965 -0.1528 -0.2888  0.8208
 8316TIP3   OH246438   2.475   0.842   5.140  0.0703 -0.3452  0.4181
 8316TIP3    H146439   2.510   0.921   5.099 -1.6525 -0.8164 -2.1928
 8316TIP3    H246440   2.553   0.795   5.173  1.2390  1.6674  0.6782
 8317TIP3   OH246441   5.791   6.825  16.869  0.0388 -0.2858 -0.1224
 8317TIP3    H146442   5.765   6.853  16.781  0.8005 -2.1701 -0.9894
 8317TIP3    H246443   5.887   6.827  16.868  0.0993  2.0286  1.5152
 8318TIP3   OH246444   5.623   2.368  14.991 -0.0794  0.4731 -0.4365
 8318TIP3    H146445   5.659   2.284  15.019  2.7442  1.1098 -1.7945
 8318TIP3    H246446   5.661   2.432  15.051 -0.9233  0.9703 -0.4130
 8319TIP3   OH246447   3.886   2.823   2.037 -0.4097  0.8288 -0.0870
 8319TIP3    H146448   3.895   2.859   2.125  0.4300 -0.7673  0.5065
 8319TIP3    H246449   3.942   2.879   1.983  1.6292 -0.0857  0.9850
 8320TIP3   OH246450   5.540   5.970  15.299  0.0159  0.7309 -0.3155
 8320TIP3    H146451   5.571   6.060  15.313 -0.3403  1.0295 -1.3558
 8320TIP3    H246452   5.620   5.919  15.287  0.2090  1.4578 -2.7546
 8321TIP3   OH246453   5.697   3.714  13.693 -0.0333 -0.1502 -0.1635
 8321TIP3    H146454   5.629   3.780  13.709 -1.4188 -1.8984  1.8867
 8321TIP3    H246455   5.726   3.730  13.604 -0.4775  3.0065  0.1405
 8322TIP3   OH246456   2.762   1.548  14.347  0.4320  0.5320 -0.1268
 8322TIP3    H146457   2.749   1.557  14.252 -0.2988  1.4070  0.0454
 8322TIP3    H246458   2.824   1.617  14.370 -0.0078  0.8351  0.1566
 8323TIP3   OH246459   5.948   0.392   4.941  0.0129 -0.3762 -0.0969
 8323TIP3    H146460   5.957   0.485   4.962 -0.9463 -0.7390  2.2809
 8323TIP3    H246461   5.895   0.390   4.862  0.9496  1.0945 -0.8080
 8324TIP3   OH246462   6.219   4.910  17.021 -0.3949 -0.3506  0.6938
 8324TIP3    H146463   6.134   4.954  17.028 -0.0331  0.6348 -0.8641
 8324TIP3    H246464   6.217   4.866  16.936 -0.6916 -3.3522  2.1097
 8325TIP3   OH246465   6.829   3.022   5.185 -0.7077 -0.1551 -0.0620
 8325TIP3    H146466   6.798   3.095   5.131 -0.1737  0.1930  0.0911
 8325TIP3    H246467   6.921   3.042   5.201 -1.2790  0.7349  2.5402
 8326TIP3   OH246468   6.655   3.330   4.811 -0.2175 -0.2950  0.4412
 8326TIP3    H146469   6.569   3.289   4.821 -0.2085 -0.0900  1.4429
 8326TIP3    H246470   6.711   3.284   4.872 -0.1610  1.0593  1.4501
 8327TIP3   OH246471   4.697   6.256   2.497  0.0154  0.4077  0.0947
 8327TIP3    H146472   4.718   6.301   2.579  1.6863 -0.7918  0.3556
 8327TIP3    H246473   4.737   6.310   2.429 -0.1806  0.6558  0.1727
 8328TIP3   OH246474   0.582   2.798  13.963  1.1294 -0.3244 -0.3541
 8328TIP3    H146475   0.602   2.726  13.904 -0.4841 -1.3794  0.3176
 8328TIP3    H246476   0.491   2.784  13.989  2.1950 -0.9470  3.7489
 8329TIP3   OH246477   2.671   0.148  14.364 -0.0284  0.2250 -0.5540
 8329TIP3    H146478   2.652   0.126  14.456 -0.4400 -0.1275 -0.7172
 8329TIP3    H246479   2.665   0.064  14.318 -1.2330  0.6079 -1.1386
 8330TIP3   OH246480   6.766   1.701  12.455 -0.1791  0.1083  0.2724
 8330TIP3    H146481   6.746   1.765  12.524  4.5786  2.3834 -0.0011
 8330TIP3    H246482   6.797   1.755  12.382 -1.6302 -2.4023 -2.3837
 8331TIP3   OH246483   5.059   0.645  11.376 -0.1942  0.3265  0.1121
 8331TIP3    H146484   5.144   0.613  11.406  0.0462  1.4423  0.6479
 8331TIP3    H246485   5.078   0.729  11.334 -0.9201  0.1592 -0.5654
 8332TIP3   OH246486   4.373   1.779   1.107 -0.3404  0.5263  0.2364
 8332TIP3    H146487   4.418   1.834   1.171 -0.3696  0.5822  0.2093
 8332TIP3    H246488   4.323   1.840   1.054  3.0092  1.0854 -2.6972
 8333TIP3   OH246489   2.192   1.898   2.764 -0.2471 -0.0485  0.6480
 8333TIP3    H146490   2.102   1.931   2.764 -0.5199 -0.4606  3.4326
 8333TIP3    H246491   2.220   1.906   2.856  2.9525  1.0009 -0.3022
 8334TIP3   OH246492   6.165   1.982  14.536 -0.0261  0.3807 -0.4228
 8334TIP3    H146493   6.149   1.899  14.581 -0.0628 -0.1421 -1.3861
 8334TIP3    H246494   6.176   2.045  14.607 -1.4724 -0.1492  0.3105
 8335TIP3   OH246495   3.158   3.418   3.218 -0.0173  0.7628 -0.3861
 8335TIP3    H146496   3.252   3.398   3.225 -0.0067  1.3573  1.7468
 8335TIP3    H246497   3.144   3.432   3.124  1.5645 -1.4197 -1.0479
 8336TIP3   OH246498   2.216   6.202  13.030  0.3701  0.0590 -0.2528
 8336TIP3    H146499   2.138   6.251  13.003  0.1894 -0.2536 -0.2985
 8336TIP3    H246500   2.267   6.192  12.949  0.0802 -0.4213 -0.3775
 8337TIP3   OH246501   2.728   3.714  16.493 -0.9658  0.1278 -0.0088
 8337TIP3    H146502   2.669   3.720  16.568  1.2489  3.8177  1.7025
 8337TIP3    H246503   2.676   3.743  16.419 -1.8566  1.4681  1.1023
 8338TIP3   OH246504   2.769   1.041   5.508  0.3077  0.2582 -0.3348
 8338TIP3    H146505   2.805   1.123   5.542  0.2062  0.0179  0.3669
 8338TIP3    H246506   2.678   1.061   5.487  0.2742  0.3117 -0.1355
 8339TIP3   OH246507   3.670   2.453  12.505 -0.1067 -0.2590 -0.2144
 8339TIP3    H146508   3.710   2.434  12.590  0.4799  0.2280 -0.3729
 8339TIP3    H246509   3.744   2.477  12.449 -0.7864  3.5139  0.2153
 8340TIP3   OH246510   1.574   1.071   3.752 -0.4547  0.1018  0.4490
 8340TIP3    H146511   1.614   1.009   3.690 -1.4368 -1.8147  1.6142
 8340TIP3    H246512   1.637   1.075   3.825 -0.2375  0.7419  0.2241
 8341TIP3   OH246513   4.840   6.637  15.716  0.0072 -0.1613  0.1142
 8341TIP3    H146514   4.880   6.559  15.755 -0.1684  0.9612  2.7272
 8341TIP3    H246515   4.833   6.616  15.623  1.1369 -2.7419  0.5227
 8342TIP3   OH246516   1.336   1.399  10.827 -0.0872 -0.2592 -0.3999
 8342TIP3    H146517   1.399   1.457  10.786  2.6595 -1.5780  1.6440
 8342TIP3    H246518   1.281   1.458  10.880  0.3809  0.7721 -1.0245
 8343TIP3   OH246519   1.190   3.218  12.171 -0.1020 -0.5303 -0.1310
 8343TIP3    H146520   1.160   3.190  12.084  0.4956 -0.2668 -0.4228
 8343TIP3    H246521   1.214   3.310  12.160 -0.3092 -0.4080  0.3901
 8344TIP3   OH246522   0.022   2.598  10.804 -0.5797  0.5821 -0.0285
 8344TIP3    H146523  -0.053   2.629  10.753 -2.2732 -2.1576  0.5377
 8344TIP3    H246524   0.005   2.629  10.893 -1.0026  0.0913  0.0692
 8345TIP3   OH246525   3.645   1.878   0.916  0.5792 -0.0303  0.4152
 8345TIP3    H146526   3.578   1.822   0.953  0.4652  0.3722  0.8262
 8345TIP3    H246527   3.634   1.962   0.961 -0.0610  0.7132 -1.0424
 8346TIP3   OH246528   6.329   2.899   1.142 -0.6545 -0.1989  0.5565
 8346TIP3    H146529   6.393   2.908   1.072 -0.5751 -0.0867  0.6449
 8346TIP3    H246530   6.279   2.821   1.118 -1.5537  0.6271 -0.3697
 8347TIP3   OH246531   3.890   0.136   5.207  0.0041 -0.3650 -0.2976
 8347TIP3    H146532   3.925   0.181   5.130  0.9022  0.0919  0.3689
 8347TIP3    H246533   3.814   0.189   5.233 -0.2490 -0.4690 -0.8000
 8348TIP3   OH246534   5.610   0.266   3.264  0.2226  0.6935  0.4895
 8348TIP3    H146535   5.695   0.294   3.300  0.9432  1.4819 -1.6527
 8348TIP3    H246536   5.551   0.265   3.339  2.1247  0.0989  2.0578
 8349TIP3   OH246537   1.820   6.815  12.061  0.3099 -0.2353 -0.1651
 8349TIP3    H146538   1.866   6.897  12.044 -1.3614  1.3440  2.2126
 8349TIP3    H246539   1.763   6.803  11.986  1.1596  0.3325 -0.9186
 8350TIP3   OH246540   3.041   3.690  14.573  0.0310 -0.3311  0.4635
 8350TIP3    H146541   3.095   3.702  14.494  0.5271 -0.8275  0.7219
 8350TIP3    H246542   2.963   3.645  14.542 -0.1645  0.2380  0.1128
 8351TIP3   OH246543   3.677   6.193   2.281 -0.0500  0.0071 -0.5212
 8351TIP3    H146544   3.616   6.134   2.235  0.2391 -0.8616  0.1791
 8351TIP3    H246545   3.688   6.267   2.222  0.4447 -1.1529 -1.9312
 8352TIP3   OH246546   2.706   3.552  16.865 -0.7534  0.0879 -0.2729
 8352TIP3    H146547   2.780   3.528  16.809  0.5651  0.0900  1.4184
 8352TIP3    H246548   2.670   3.630  16.824  0.1328  0.0625 -1.1493
 8353TIP3   OH246549   1.565   1.165  16.559 -0.7209  0.0112  0.3876
 8353TIP3    H146550   1.652   1.204  16.564 -0.2613 -0.6868 -1.5291
 8353TIP3    H246551   1.578   1.073  16.578 -0.9975 -0.1344 -0.1091
 8354TIP3   OH246552   2.598   2.001   0.973 -0.0847  0.1903  0.6389
 8354TIP3    H146553   2.594   2.059   0.897  1.3660  0.7033  0.9206
 8354TIP3    H246554   2.526   1.939   0.959  0.5156 -0.1228 -1.4843
 8355TIP3   OH246555   3.815   3.514  10.097  0.0322  0.0847  0.4714
 8355TIP3    H146556   3.740   3.523  10.156  1.3391  2.9259  1.9308
 8355TIP3    H246557   3.784   3.551  10.014 -0.2511  1.2029  1.0514
 8356TIP3   OH246558   0.637   3.512   0.421  0.0246 -0.2023  0.3486
 8356TIP3    H146559   0.700   3.441   0.409  1.3569  0.8963  0.6886
 8356TIP3    H246560   0.690   3.590   0.434 -1.3897  1.1224 -1.3050
 8357TIP3   OH246561   5.005   1.091  15.788 -0.0973  0.2590  0.6054
 8357TIP3    H146562   4.963   1.121  15.869 -1.3981  0.0394  0.0393
 8357TIP3    H246563   4.936   1.046  15.740  0.5223  0.7606 -0.8296
 8358TIP3   OH246564   0.474   4.819   2.026 -0.5499 -0.0185  0.0582
 8358TIP3    H146565   0.554   4.856   2.064  0.6021 -2.3001  0.0732
 8358TIP3    H246566   0.455   4.742   2.080 -1.6507 -0.6061 -1.1156
 8359TIP3   OH246567   1.724   0.051  16.507 -0.4802  0.5806 -0.2564
 8359TIP3    H146568   1.717  -0.030  16.557 -0.1350  0.4089 -0.4788
 8359TIP3    H246569   1.726   0.120  16.572 -1.5948  0.4699 -0.0870
 8360TIP3   OH246570   4.428   5.726   0.395  0.5723 -0.1887  0.2556
 8360TIP3    H146571   4.390   5.669   0.462  0.0478 -0.9450 -0.6551
 8360TIP3    H246572   4.404   5.815   0.423 -2.6462 -0.6452 -0.6479
 8361TIP3   OH246573   2.522   0.943  16.019  0.3251  0.5929 -0.5723
 8361TIP3    H146574   2.587   0.994  15.972  0.7062 -0.4576 -1.2148
 8361TIP3    H246575   2.550   0.852  16.008 -0.0754  0.2563  0.9212
 8362TIP3   OH246576   0.462   1.765  10.249  0.1436 -0.1441 -0.1164
 8362TIP3    H146577   0.492   1.736  10.163 -0.4411 -0.5392 -0.1965
 8362TIP3    H246578   0.382   1.815  10.231 -1.1279 -1.9259  0.3266
 8363TIP3   OH246579   3.372   1.413   4.407 -0.3479  0.1889 -0.3880
 8363TIP3    H146580   3.442   1.425   4.343 -1.1259  3.8347 -0.7771
 8363TIP3    H246581   3.412   1.362   4.478  1.5410 -0.9914 -2.2129
 8364TIP3   OH246582   4.217   0.164  12.914 -0.5896 -0.2452 -0.2345
 8364TIP3    H146583   4.261   0.156  12.999 -1.9928  0.7029  0.6085
 8364TIP3    H246584   4.289   0.177  12.851  0.3668  1.4351  1.1208
 8365TIP3   OH246585   6.200   3.633   1.080  0.3492 -0.2497 -0.0368
 8365TIP3    H146586   6.276   3.634   1.138  0.7275 -1.8827 -0.4641
 8365TIP3    H246587   6.237   3.622   0.992 -0.3713 -0.8673 -0.2727
 8366TIP3   OH246588   0.520   4.307  10.173  0.1710  0.4287 -0.3031
 8366TIP3    H146589   0.544   4.273  10.087 -2.1160 -0.0439 -0.8237
 8366TIP3    H246590   0.524   4.230  10.231 -3.3028 -0.5573 -1.1303
 8367TIP3   OH246591   6.470   2.242   1.316 -0.4357 -0.8644  0.0240
 8367TIP3    H146592   6.409   2.195   1.259 -0.1165 -0.1337 -0.9493
 8367TIP3    H246593   6.555   2.205   1.296 -0.4630 -1.4531  0.9349
 8368TIP3   OH246594   3.406   5.825  14.353  0.4980 -0.4307  0.2666
 8368TIP3    H146595   3.428   5.913  14.323  0.9785 -0.0879  1.5476
 8368TIP3    H246596   3.369   5.781  14.276  0.6385  0.7506 -0.4916
 8369TIP3   OH246597   3.472   6.824   2.649  0.7362  0.3501  0.4197
 8369TIP3    H146598   3.521   6.765   2.706  0.2066  0.7420  1.3065
 8369TIP3    H246599   3.381   6.799   2.661  0.7043 -0.9008 -1.8157
 8370TIP3   OH246600   6.810   0.367   6.460  0.2784 -0.3199  0.4248
 8370TIP3    H146601   6.863   0.287   6.464  0.1366 -0.4028  0.6508
 8370TIP3    H246602   6.850   0.418   6.389 -0.5515 -1.2435 -0.7543
 8371TIP3   OH246603   3.905   4.828   4.511 -0.1638  0.7881 -0.0240
 8371TIP3    H146604   3.945   4.783   4.437  0.9704  1.5408  0.1142
 8371TIP3    H246605   3.839   4.885   4.472 -0.9119 -0.2250 -0.2794
 8372TIP3   OH246606   0.514   6.014  13.712 -0.0047  0.2062 -0.0693
 8372TIP3    H146607   0.437   5.958  13.711  0.4994 -0.4774 -0.7752
 8372TIP3    H246608   0.481   6.100  13.686 -0.3710 -0.2922 -1.2788
 8373TIP3   OH246609   6.474   5.327   4.804  0.3887  0.7581  0.5319
 8373TIP3    H146610   6.483   5.417   4.772 -1.6644  1.1867  1.0046
 8373TIP3    H246611   6.380   5.313   4.808  0.6739 -1.2751  0.9160
 8374TIP3   OH246612   6.716   4.000   0.465 -0.0899 -0.5655 -0.2495
 8374TIP3    H146613   6.801   3.996   0.421 -0.8331 -0.9097 -1.7188
 8374TIP3    H246614   6.724   4.072   0.527  1.1713 -0.4130 -0.5622
 8375TIP3   OH246615   2.376   5.419  15.274  0.0087  0.0219  0.1918
 8375TIP3    H146616   2.340   5.344  15.228 -0.4916  0.4902 -0.1941
 8375TIP3    H246617   2.334   5.418  15.360  0.7676 -0.7182  0.5685
 8376TIP3   OH246618   0.087   0.782   1.351 -0.4414 -0.3246  0.3454
 8376TIP3    H146619   0.063   0.744   1.267 -1.1380 -2.1432  1.3057
 8376TIP3    H246620   0.011   0.835   1.376  0.8188  2.4648 -1.3324
 8377TIP3   OH246621   4.107   0.563   0.675 -0.2955 -0.1297 -0.6085
 8377TIP3    H146622   4.154   0.637   0.714 -1.7316 -0.1871  1.3819
 8377TIP3    H246623   4.100   0.499   0.746 -2.0714 -0.7117 -1.2595
 8378TIP3   OH246624   2.078   2.131  15.714 -0.4106 -0.5220 -0.0900
 8378TIP3    H146625   2.038   2.096  15.634 -1.1091  1.4948 -0.6890
 8378TIP3    H246626   2.130   2.206  15.683  0.7889 -0.8052  1.1525
 8379TIP3   OH246627   6.727   4.292   4.579 -0.0164 -0.6265 -0.1333
 8379TIP3    H146628   6.804   4.241   4.604 -0.1841 -0.2368  1.2654
 8379TIP3    H246629   6.725   4.288   4.483 -0.1197 -3.3726 -0.0919
 8380TIP3   OH246630   3.296   2.222   4.041 -0.1673  0.3585 -0.1051
 8380TIP3    H146631   3.265   2.168   4.114 -0.8652 -0.2433 -0.8298
 8380TIP3    H246632   3.296   2.311   4.076 -2.6945  0.3959 -0.0228
 8381TIP3   OH246633   0.715   4.340   3.435 -0.5366  0.2939 -0.2103
 8381TIP3    H146634   0.678   4.284   3.503 -0.3127  0.2436 -0.1284
 8381TIP3    H246635   0.722   4.284   3.358  1.9707 -0.5191  0.5318
 8382TIP3   OH246636   5.876   6.001  13.161  0.0621  0.0216 -0.5825
 8382TIP3    H146637   5.915   6.089  13.163 -0.7271  0.4682 -2.3060
 8382TIP3    H246638   5.848   5.985  13.251 -0.2026  1.7460 -0.3189
 8383TIP3   OH246639   3.696   6.090   2.697  0.1350  0.2505  0.1511
 8383TIP3    H146640   3.638   6.040   2.639 -1.0712  0.9981  0.6634
 8383TIP3    H246641   3.783   6.078   2.660 -0.4774 -0.0813 -1.2600
 8384TIP3   OH246642   5.303   1.177   1.289  0.5055  0.1112 -0.0934
 8384TIP3    H146643   5.394   1.151   1.273  0.6493  0.8859 -0.5539
 8384TIP3    H246644   5.260   1.167   1.204  0.0306 -0.7297  0.2323
 8385TIP3   OH246645   3.049   0.766  13.938 -0.3792 -0.0359  0.5932
 8385TIP3    H146646   3.126   0.779  13.882 -0.4836  1.1392  0.7061
 8385TIP3    H246647   2.985   0.722  13.881 -0.0772  0.1246  0.1267
 8386TIP3   OH246648   1.513   5.171   1.914  0.0614 -0.1479  0.3212
 8386TIP3    H146649   1.586   5.126   1.957 -0.1943  1.0356  2.0623
 8386TIP3    H246650   1.437   5.117   1.934  0.2384 -0.6865 -0.4044
 8387TIP3   OH246651   1.336   5.914  12.146  0.2542  0.0765 -0.6154
 8387TIP3    H146652   1.384   5.972  12.087 -0.7374  1.5515 -0.0401
 8387TIP3    H246653   1.380   5.925  12.231 -0.0573  0.1364 -0.4609
 8388TIP3   OH246654   0.204   5.611  15.606 -0.4015 -0.2097  0.1704
 8388TIP3    H146655   0.296   5.635  15.597 -0.8992  2.0539  0.5976
 8388TIP3    H246656   0.157   5.671  15.548 -1.7802  0.2075  1.6546
 8389TIP3   OH246657   1.799   0.189  13.046 -0.2695  0.2800  0.1166
 8389TIP3    H146658   1.891   0.171  13.028  0.2802  1.5930  1.5060
 8389TIP3    H246659   1.794   0.284  13.055 -1.1963  0.0416  2.8993
 8390TIP3   OH246660   1.620   4.796   2.519 -0.4176 -0.0545  0.0418
 8390TIP3    H146661   1.592   4.836   2.437  1.1312 -0.8142 -0.9047
 8390TIP3    H246662   1.581   4.708   2.517 -2.4386  0.7401  1.3400
 8391TIP3   OH246663   3.882   1.187  16.910 -0.4015 -0.1859  0.0429
 8391TIP3    H146664   3.899   1.198  16.816  0.3884 -0.5821  0.1372
 8391TIP3    H246665   3.821   1.113  16.914  1.4133 -1.7735 -0.0432
 8392TIP3   OH246666   0.146   6.150   3.764 -0.0221  0.3093 -0.2643
 8392TIP3    H146667   0.091   6.147   3.687  0.5434 -0.1494 -0.6606
 8392TIP3    H246668   0.178   6.240   3.768 -0.8097  0.5842 -0.0126
 8393TIP3   OH246669   2.273   1.370   0.408  0.2047  0.1645 -0.3616
 8393TIP3    H146670   2.284   1.278   0.383 -0.0646 -0.5167  1.7471
 8393TIP3    H246671   2.350   1.414   0.372  1.1996 -1.2315 -0.0466
 8394TIP3   OH246672   6.550   1.238  13.217 -0.3693  0.1940 -0.2692
 8394TIP3    H146673   6.524   1.330  13.207  0.6957  0.3154 -2.6682
 8394TIP3    H246674   6.521   1.196  13.136  0.1093 -1.3458  0.3303
 8395TIP3   OH246675   4.111   4.472   4.996 -0.2520 -0.4692  0.3491
 8395TIP3    H146676   4.024   4.434   5.006 -0.2789 -0.9472 -1.3281
 8395TIP3    H246677   4.169   4.414   5.046 -0.9205  0.0738  1.7974
 8396TIP3   OH246678   5.969   3.805  16.417 -0.0647  0.1508 -0.7389
 8396TIP3    H146679   5.960   3.712  16.442  1.1055 -0.2668 -1.7768
 8396TIP3    H246680   5.980   3.803  16.322 -0.4706  1.4071 -0.8227
 8397TIP3   OH246681   5.469   0.862  16.614 -0.4071 -0.5188 -0.0629
 8397TIP3    H146682   5.561   0.875  16.591 -0.0592  0.4313  1.7159
 8397TIP3    H246683   5.461   0.897  16.702 -1.6262 -4.0397  1.4232
 8398TIP3   OH246684   2.027   5.626  10.430 -0.0664 -0.2222  0.4902
 8398TIP3    H146685   1.977   5.704  10.452 -0.6804  0.3032 -2.3931
 8398TIP3    H246686   1.961   5.560  10.409  0.3378 -0.0663 -1.5492
 8399TIP3   OH246687   0.577   0.764  16.111 -0.4895 -0.1497 -0.0568
 8399TIP3    H146688   0.642   0.829  16.084 -0.8101  0.4059  0.4940
 8399TIP3    H246689   0.542   0.796  16.194  0.9239 -2.1417  1.4114
 8400TIP3   OH246690   3.085   4.701  13.683  0.0854 -0.1032  0.0822
 8400TIP3    H146691   2.990   4.707  13.667 -0.0870 -0.7175  0.8005
 8400TIP3    H246692   3.113   4.792  13.695 -0.2630  0.1464 -0.9275
 8401TIP3   OH246693   3.156   2.844  15.932 -0.5626  0.0953  0.1403
 8401TIP3    H146694   3.214   2.871  15.860  0.2770  1.1093  1.1595
 8401TIP3    H246695   3.191   2.889  16.009 -2.3453  0.2288  0.9163
 8402TIP3   OH246696   5.471   0.945  16.371  0.1288 -0.6001  0.3658
 8402TIP3    H146697   5.474   0.901  16.456  2.0887  2.0847  1.8039
 8402TIP3    H246698   5.530   0.894  16.316  3.3972  0.7077  2.3640
 8403TIP3   OH246699   3.749   4.454  12.454  0.3834  0.6902 -0.8268
 8403TIP3    H146700   3.834   4.457  12.409  1.3448 -1.0900  0.7308
 8403TIP3    H246701   3.746   4.367  12.493 -0.9423  1.6938  1.4824
 8404TIP3   OH246702   6.175   6.141  14.634 -0.3763 -0.1104  0.1594
 8404TIP3    H146703   6.158   6.142  14.540 -1.9951 -0.0636  0.4282
 8404TIP3    H246704   6.098   6.099  14.672  0.1198  0.1378  1.4918
 8405TIP3   OH246705   2.424   5.284   1.077 -0.0301  0.2093  0.0652
 8405TIP3    H146706   2.412   5.377   1.059 -0.3492  0.0793 -0.4141
 8405TIP3    H246707   2.468   5.249   1.000 -1.2646 -0.3168 -0.4420
 8406TIP3   OH246708   1.785   6.636   5.404  0.2706  0.3515 -0.4281
 8406TIP3    H146709   1.813   6.622   5.494 -2.6366  2.2288  0.8909
 8406TIP3    H246710   1.709   6.579   5.393 -0.4700  1.4207 -1.0752
 8407TIP3   OH246711   0.449   4.046  15.040 -0.0640  0.0421 -0.1883
 8407TIP3    H146712   0.453   3.979  15.109 -0.5186  1.4041  1.2247
 8407TIP3    H246713   0.380   4.016  14.981  1.0569 -1.7020 -0.6991
 8408TIP3   OH246714   0.427   0.528  11.595  0.4206  0.1072 -0.1247
 8408TIP3    H146715   0.386   0.528  11.509  0.1334 -1.7982 -0.0461
 8408TIP3    H246716   0.438   0.435  11.616  0.3666  0.5132  1.9401
 8409TIP3   OH246717   5.710   1.625   4.773  0.2036  0.5109 -0.1342
 8409TIP3    H146718   5.631   1.614   4.720 -0.9117  1.2589  1.2957
 8409TIP3    H246719   5.776   1.657   4.711 -1.0837  1.4913 -1.0534
 8410TIP3   OH246720   6.220   1.174   0.018  0.6345 -0.3953  0.0322
 8410TIP3    H146721   6.231   1.233   0.093 -0.8938  1.8107 -1.3514
 8410TIP3    H246722   6.278   1.211  -0.050  0.8611 -1.4704 -0.3783
 8411TIP3   OH246723   6.697   6.751   2.797 -0.4827  0.0393 -0.2519
 8411TIP3    H146724   6.634   6.803   2.846  1.0248  0.7845  0.9702
 8411TIP3    H246725   6.656   6.665   2.790 -2.0270  0.7380 -0.3241
 8412TIP3   OH246726   4.229   5.560  14.635  0.2196 -0.0737 -0.0467
 8412TIP3    H146727   4.237   5.465  14.643  0.1067 -0.0414  0.5555
 8412TIP3    H246728   4.285   5.594  14.706  0.0387  0.3004 -0.0819
 8413TIP3   OH246729   1.360   6.070   6.044  0.1475  0.3603  0.5231
 8413TIP3    H146730   1.405   6.011   6.104  0.7235  1.0217  0.7483
 8413TIP3    H246731   1.304   6.123   6.101 -0.9086 -0.4194  0.2529
 8414TIP3   OH246732   0.440   0.305  15.892  0.1179  0.0305 -0.1965
 8414TIP3    H146733   0.471   0.305  15.802 -0.4951  0.5420 -0.4088
 8414TIP3    H246734   0.500   0.365  15.937 -0.5651  1.0432 -0.6139
 8415TIP3   OH246735   6.126   1.796  15.834 -0.1421  0.2989  0.0265
 8415TIP3    H146736   6.108   1.824  15.924 -2.5853 -0.8238 -0.0201
 8415TIP3    H246737   6.093   1.706  15.830  2.4471 -0.6813 -1.2759
 8416TIP3   OH246738   6.090   4.798  11.124  0.1573 -0.4385 -0.4592
 8416TIP3    H146739   6.018   4.814  11.063 -2.2211 -1.9976  1.7066
 8416TIP3    H246740   6.116   4.707  11.106 -0.6735 -0.9658  0.8539
 8417TIP3   OH246741   6.628   3.407   1.778  0.6672 -0.1944 -0.4344
 8417TIP3    H146742   6.662   3.455   1.854  1.2446  0.5735 -1.1588
 8417TIP3    H246743   6.637   3.315   1.802 -2.0213 -0.0483  1.7158
 8418TIP3   OH246744   5.240   0.206  15.748 -0.0420 -0.5257  0.5136
 8418TIP3    H146745   5.271   0.228  15.660  2.0637  0.6285  1.4942
 8418TIP3    H246746   5.176   0.274  15.768 -1.6749 -1.6259 -0.6227
 8419TIP3   OH246747   4.138   4.306   1.039 -0.3911 -0.2241  0.1004
 8419TIP3    H146748   4.133   4.369   0.967  0.5953  0.4623  0.5968
 8419TIP3    H246749   4.185   4.231   1.002 -1.3865 -0.5930 -0.4360
 8420TIP3   OH246750   2.479   2.948  12.396 -0.1400  0.6429  0.2827
 8420TIP3    H146751   2.507   3.001  12.322  1.3240 -1.2442 -0.6101
 8420TIP3    H246752   2.449   2.866  12.357 -2.5271  0.7882  1.5964
 8421TIP3   OH246753   5.148   6.830  15.937 -0.2437  0.2307  0.0474
 8421TIP3    H146754   5.059   6.861  15.921  0.3911  2.2203  0.0243
 8421TIP3    H246755   5.204   6.899  15.900  1.3561 -1.8907 -1.7643
 8422TIP3   OH246756   3.942   5.076  12.367  0.4414 -0.2464 -0.0035
 8422TIP3    H146757   3.863   5.127  12.386  1.9630  1.6932  1.5578
 8422TIP3    H246758   3.945   5.072  12.271 -1.6858 -0.6597 -0.1007
 8423TIP3   OH246759   0.289   6.178   3.058 -0.7969 -0.2230 -0.2645
 8423TIP3    H146760   0.258   6.230   2.983 -1.2982  0.8552  0.6505
 8423TIP3    H246761   0.358   6.122   3.021 -1.1735  0.1262 -1.5710
 8424TIP3   OH246762   2.154   3.113  12.153 -0.6582  0.6456 -0.1023
 8424TIP3    H146763   2.227   3.126  12.093 -0.6229  0.4850 -0.0955
 8424TIP3    H246764   2.076   3.133  12.101 -0.7274 -0.8363 -0.6289
 8425TIP3   OH246765   6.306   1.361   4.410 -0.5065  0.0007  0.1873
 8425TIP3    H146766   6.253   1.367   4.490 -0.5214 -1.9755  0.3939
 8425TIP3    H246767   6.253   1.309   4.350  0.0502  0.3517 -0.6186
 8426TIP3   OH246768   0.495   3.323  11.014 -0.5353 -0.0156 -0.2760
 8426TIP3    H146769   0.560   3.381  10.974 -1.6733  1.0617 -0.6166
 8426TIP3    H246770   0.436   3.300  10.942 -1.1992 -0.0240  0.2639
 8427TIP3   OH246771   5.063   0.152   2.408  0.4521  0.4397  0.4751
 8427TIP3    H146772   5.126   0.221   2.387 -2.0503  2.5396 -0.8119
 8427TIP3    H246773   5.044   0.110   2.323 -1.7381  1.6440  0.2915
 8428TIP3   OH246774   5.854   5.718  11.259  0.2533 -0.2858 -0.4152
 8428TIP3    H146775   5.943   5.753  11.250  0.8641 -1.9455 -1.2777
 8428TIP3    H246776   5.856   5.635  11.211 -1.9465 -0.0586 -0.9998
 8429TIP3   OH246777   0.094   1.274  15.165  0.1057 -0.6589 -0.3866
 8429TIP3    H146778   0.110   1.180  15.175 -1.5908 -0.9063  0.3806
 8429TIP3    H246779   0.000   1.284  15.181  0.3091  1.2139 -0.1699
 8430TIP3   OH246780   0.295   2.562  16.025  0.1694 -0.4471 -0.0098
 8430TIP3    H146781   0.334   2.506  15.958  0.1876 -1.5389  0.8737
 8430TIP3    H246782   0.210   2.522  16.043  0.0955 -0.0725  0.4998
 8431TIP3   OH246783   2.000   3.169  14.421 -0.1265 -0.2584 -0.0833
 8431TIP3    H146784   1.981   3.261  14.406  1.0444  0.3290  1.8478
 8431TIP3    H246785   2.013   3.161  14.515  0.1459 -2.3327 -0.2436
 8432TIP3   OH246786   3.063   4.769   5.242 -0.1898 -0.0718  0.3976
 8432TIP3    H146787   3.127   4.743   5.308 -0.4176 -0.2772  0.5414
 8432TIP3    H246788   3.104   4.747   5.158 -0.3738 -0.8846  0.5184
 8433TIP3   OH246789   2.815   6.343   5.411  0.5056  0.4581  0.6199
 8433TIP3    H146790   2.746   6.372   5.471  0.0087  0.3208  0.1242
 8433TIP3    H246791   2.887   6.316   5.469  0.4102  1.2418  1.1247
 8434TIP3   OH246792   3.766   2.035   4.082 -0.1870  0.4597  0.1026
 8434TIP3    H146793   3.795   2.062   3.995 -0.2459 -0.3041 -0.1555
 8434TIP3    H246794   3.673   2.017   4.073 -0.6257  2.1569  0.7582
 8435TIP3   OH246795   5.607   0.732  14.205  0.5043  0.2606  0.4413
 8435TIP3    H146796   5.671   0.675  14.247  0.5634 -0.3505 -0.4437
 8435TIP3    H246797   5.528   0.721  14.257  0.3016 -1.2082 -0.1116
 8436TIP3   OH246798   5.952   4.398  11.569 -0.4137  0.2783 -0.2897
 8436TIP3    H146799   5.908   4.482  11.554  1.1105  0.5333 -4.7607
 8436TIP3    H246800   5.918   4.341  11.500  0.8075 -1.8582  0.7937
 8437TIP3   OH246801   3.127   5.599  15.241  0.1653 -0.3300 -0.2775
 8437TIP3    H146802   3.090   5.667  15.297  0.4540  0.4000 -0.9521
 8437TIP3    H246803   3.140   5.642  15.156 -0.5275 -1.4877 -0.9988
 8438TIP3   OH246804   4.569   3.534   3.565  0.6999 -0.2729 -0.1970
 8438TIP3    H146805   4.623   3.610   3.541  1.7524 -1.5545 -2.0943
 8438TIP3    H246806   4.618   3.492   3.635  0.7529  0.0807 -0.0156
 8439TIP3   OH246807   1.235   3.227  13.577 -0.0537  0.3874  0.5526
 8439TIP3    H146808   1.288   3.304  13.556 -0.5690  0.3112 -1.2168
 8439TIP3    H246809   1.254   3.209  13.669  0.4480  2.3218  0.8749
 8440TIP3   OH246810   3.801   6.542  15.332  0.6976 -0.1712  0.0076
 8440TIP3    H146811   3.731   6.583  15.382  0.3646 -2.3030  1.3960
 8440TIP3    H246812   3.830   6.611  15.272 -1.1784  1.4113  0.7885
 8441TIP3   OH246813   4.194   0.132   5.794  0.2232  0.1530  0.2825
 8441TIP3    H146814   4.148   0.215   5.783 -0.2975 -0.2889 -0.9580
 8441TIP3    H246815   4.225   0.109   5.707 -1.8569 -2.2212  0.0779
 8442TIP3   OH246816   0.240   4.980  13.564 -0.0598  0.3002  0.3452
 8442TIP3    H146817   0.243   4.974  13.659 -0.7569 -1.1585  0.3015
 8442TIP3    H246818   0.217   4.891  13.535 -3.9815  1.5042 -0.9634
 8443TIP3   OH246819   4.551   3.679   4.876  0.1350  0.9107  0.0690
 8443TIP3    H146820   4.527   3.771   4.868 -0.1084  0.8466  0.0576
 8443TIP3    H246821   4.500   3.648   4.951 -1.1476  0.3379 -1.0047
 8444TIP3   OH246822   4.869   1.699   3.179 -0.4054  0.9490 -0.0176
 8444TIP3    H146823   4.906   1.752   3.249 -0.3155 -0.7184  1.2739
 8444TIP3    H246824   4.775   1.698   3.197 -0.3941  0.6010  0.0371
 8445TIP3   OH246825   5.823   1.255  10.958 -0.8370  0.2085  0.2212
 8445TIP3    H146826   5.884   1.297  11.019 -0.0357 -1.1010  0.3687
 8445TIP3    H246827   5.827   1.308  10.879  1.8202 -0.7398 -0.3996
 8446TIP3   OH246828   0.758   3.852   1.616  0.4473  0.7123 -0.1099
 8446TIP3    H146829   0.675   3.847   1.664  1.2072 -0.1452  1.1718
 8446TIP3    H246830   0.771   3.946   1.601  0.1852  1.0320  1.4064
 8447TIP3   OH246831   5.758   4.047  13.161 -0.2033 -0.7041  0.2687
 8447TIP3    H146832   5.834   3.990  13.159  1.9052  1.8812 -2.0063
 8447TIP3    H246833   5.740   4.061  13.254  4.6143  1.4565  1.1906
 8448TIP3   OH246834   6.722   6.689  12.434  0.1660  0.6891  0.7733
 8448TIP3    H146835   6.660   6.632  12.388  2.4560 -1.2920 -0.0533
 8448TIP3    H246836   6.677   6.773  12.441 -1.9666 -0.1981 -1.2140
 8449TIP3   OH246837   3.945   6.679  16.924  0.3951  0.3091  0.7251
 8449TIP3    H146838   3.973   6.755  16.873  0.3129 -0.2248 -0.1355
 8449TIP3    H246839   4.027   6.635  16.947  0.3706 -0.4599 -0.5544
 8450TIP3   OH246840   5.813   6.157  12.246  0.0140 -0.4466 -0.0839
 8450TIP3    H146841   5.879   6.102  12.287  1.3574 -0.3677 -2.0382
 8450TIP3    H246842   5.810   6.236  12.301  1.1576 -0.6763  0.3369
 8451TIP3   OH246843   3.591   4.173   3.478 -0.1119  0.2032 -0.0790
 8451TIP3    H146844   3.554   4.258   3.502  0.9030  0.6313  0.0454
 8451TIP3    H246845   3.623   4.136   3.561 -0.8260 -0.4498 -0.0846
 8452TIP3   OH246846   6.698   5.666  13.906  0.5954 -0.4393 -0.0040
 8452TIP3    H146847   6.617   5.616  13.895  0.2664  0.2628 -0.8999
 8452TIP3    H246848   6.693   5.701  13.995 -0.5159  0.3146 -0.3400
 8453TIP3   OH246849   1.288   1.044   0.933  0.0311  0.1098  0.3988
 8453TIP3    H146850   1.350   0.990   0.884  0.6225 -0.0225  1.2621
 8453TIP3    H246851   1.207   1.042   0.881  0.0372 -1.6103  0.4145
 8454TIP3   OH246852   2.701   2.984   1.757 -0.5094  0.7078 -0.8223
 8454TIP3    H146853   2.654   2.902   1.771 -2.1012  1.7137 -0.1335
 8454TIP3    H246854   2.678   3.039   1.832  2.0121  1.1660 -0.2768
 8455TIP3   OH246855   2.075   6.690  12.869  0.1639 -0.3201  0.2913
 8455TIP3    H146856   2.168   6.672  12.854 -0.1353 -0.3813 -1.6854
 8455TIP3    H246857   2.035   6.685  12.783 -1.7521 -0.6061  1.1421
 8456TIP3   OH246858   3.924   3.253   3.079 -0.2065 -0.4269 -0.0363
 8456TIP3    H146859   4.010   3.268   3.040 -0.4843  0.8139 -0.2357
 8456TIP3    H246860   3.871   3.218   3.007  0.5359 -2.7837  0.5060
 8457TIP3   OH246861   3.495   1.564   6.407 -0.5232  0.2670 -0.1291
 8457TIP3    H146862   3.517   1.483   6.455 -3.0365 -0.8061 -0.6393
 8457TIP3    H246863   3.557   1.565   6.334 -1.1253 -1.8624 -0.7578
 8458TIP3   OH246864   1.344   2.562   4.395  0.1458 -0.5382 -0.7137
 8458TIP3    H146865   1.416   2.512   4.433  0.1708 -0.6047 -0.8484
 8458TIP3    H246866   1.271   2.550   4.456  0.2334 -0.5120 -0.6042
 8459TIP3   OH246867   4.072   5.435  12.613 -0.0936  0.0824  0.2109
 8459TIP3    H146868   4.062   5.486  12.533  1.1878 -1.0924 -0.7429
 8459TIP3    H246869   4.112   5.352  12.585  1.7248  0.1709  2.1960
 8460TIP3   OH246870   0.046   4.706   5.285  0.2340  0.2725  0.0545
 8460TIP3    H146871  -0.032   4.736   5.239 -0.4323 -2.2161 -0.5762
 8460TIP3    H246872   0.087   4.786   5.319 -2.7371  1.6364  0.6964
 8461TIP3   OH246873   3.254   5.796  12.246  0.2517 -0.0788 -0.1508
 8461TIP3    H146874   3.188   5.864  12.231 -0.0599 -0.0796  1.0701
 8461TIP3    H246875   3.325   5.841  12.291  0.0035 -0.5532  0.7550
 8462TIP3   OH246876   5.013   1.030   1.493 -0.1029 -0.1127  0.4157
 8462TIP3    H146877   5.086   0.971   1.474  0.5903  1.7710 -3.9188
 8462TIP3    H246878   5.050   1.118   1.483 -2.1437  1.0286  2.0118
 8463TIP3   OH246879   4.890   5.866  12.943  0.5097 -0.1854 -0.0817
 8463TIP3    H146880   4.906   5.953  12.906  2.3625 -0.8561 -1.0206
 8463TIP3    H246881   4.945   5.863  13.021 -0.3728 -0.1680  0.5566
 8464TIP3   OH246882   2.175   2.281  12.733  0.5581  0.0450 -0.4093
 8464TIP3    H146883   2.225   2.204  12.705  1.3592  0.4201 -0.0198
 8464TIP3    H246884   2.129   2.252  12.812 -0.2477 -0.4477 -1.0388
 8465TIP3   OH246885   5.056   2.325  12.786 -0.2475 -0.1849 -0.5523
 8465TIP3    H146886   5.129   2.353  12.731  0.0946 -0.2430 -0.1323
 8465TIP3    H246887   5.076   2.361  12.872 -0.6464 -0.3174 -0.4030
 8466TIP3   OH246888   1.902   1.469   1.470  0.4909 -0.2828 -0.6120
 8466TIP3    H146889   1.990   1.438   1.490 -0.1961 -1.4844  0.6804
 8466TIP3    H246890   1.844   1.398   1.497 -0.8037 -0.5045 -3.5027
 8467TIP3   OH246891   1.197   4.131   1.930 -0.5045 -0.7912 -0.0205
 8467TIP3    H146892   1.168   4.044   1.959 -0.7053 -0.9206 -0.5992
 8467TIP3    H246893   1.124   4.164   1.877  0.1152 -0.8328 -0.9195
 8468TIP3   OH246894   0.073   1.377  13.102 -0.0528  0.4219  0.5565
 8468TIP3    H146895   0.010   1.449  13.102 -2.1035 -1.2857  1.4097
 8468TIP3    H246896   0.117   1.384  13.186  0.2742  1.0697  0.3424
 8469TIP3   OH246897   6.822   4.419   2.370 -0.0993  0.1964  0.0551
 8469TIP3    H146898   6.753   4.435   2.306 -1.2027  0.1708  1.1936
 8469TIP3    H246899   6.776   4.383   2.446  0.9970  1.2375  1.2654
 8470TIP3   OH246900   1.106   2.508   2.382 -0.5010 -0.5172  0.3285
 8470TIP3    H146901   1.081   2.600   2.375  1.9369  0.2318  0.8210
 8470TIP3    H246902   1.198   2.509   2.406 -1.0482 -3.0833  3.1412
 8471TIP3   OH246903   2.678   0.240   5.776  0.3484  0.4584  0.1176
 8471TIP3    H146904   2.603   0.256   5.834  0.3609  0.7087  0.0623
 8471TIP3    H246905   2.692   0.323   5.731 -0.6721 -0.1559 -1.4348
 8472TIP3   OH246906   5.102   1.457   2.465  0.1668  0.7110 -0.9754
 8472TIP3    H146907   5.035   1.400   2.503  0.0609  1.2249 -0.3625
 8472TIP3    H246908   5.185   1.419   2.493  0.2767 -1.2482 -3.6041
 8473TIP3   OH246909   0.925   0.171  14.593 -0.1819 -0.1210  0.2634
 8473TIP3    H146910   0.980   0.215  14.658  1.0293 -1.0391 -0.0792
 8473TIP3    H246911   0.946   0.214  14.510 -0.4759 -0.0390  0.2315
 8474TIP3   OH246912   1.211   2.173   4.757  0.2721  0.0165  0.3578
 8474TIP3    H146913   1.266   2.232   4.808  1.0425 -1.6176  1.5013
 8474TIP3    H246914   1.122   2.203   4.774  0.7084  2.9111 -1.7777
 8475TIP3   OH246915   3.934   0.348   1.162  0.8097  0.0966 -0.1372
 8475TIP3    H146916   3.880   0.343   1.241  0.1381  0.0248 -0.5925
 8475TIP3    H246917   3.983   0.429   1.172  0.1309  0.5030 -0.0139
 8476TIP3   OH246918   2.522   0.389   0.950  0.6319  0.2708 -0.1478
 8476TIP3    H146919   2.496   0.400   0.859 -2.8577  0.6559  0.7560
 8476TIP3    H246920   2.535   0.478   0.983 -0.5413  0.2855  0.3099
 8477TIP3   OH246921   0.698   2.874  10.862 -0.1640  0.3497 -0.1134
 8477TIP3    H146922   0.786   2.839  10.875 -0.0853 -0.4176 -2.3388
 8477TIP3    H246923   0.696   2.953  10.917  1.5946 -0.0604  0.6335
 8478TIP3   OH246924   1.802   1.707  11.626 -0.3201  0.7278 -0.4508
 8478TIP3    H146925   1.856   1.655  11.686 -0.2805 -1.9991 -2.6349
 8478TIP3    H246926   1.831   1.797  11.639  5.0510 -0.5046 -1.5738
 8479TIP3   OH246927   0.361   1.390  10.831  0.0988 -0.3244  0.2291
 8479TIP3    H146928   0.408   1.450  10.774  0.6490 -0.1603  0.8379
 8479TIP3    H246929   0.351   1.310  10.779 -0.3342  0.1743 -0.4594
 8480TIP3   OH246930   2.569   5.529   1.989  0.1642  0.1565 -0.3924
 8480TIP3    H146931   2.506   5.600   1.997  0.3100  0.2681 -0.2376
 8480TIP3    H246932   2.639   5.564   1.934 -0.3455 -0.2722 -1.3393
 8481TIP3   OH246933   6.051   5.424   0.066 -0.0289 -0.4925  0.3426
 8481TIP3    H146934   6.041   5.353   0.130  1.2286 -0.1007  1.0178
 8481TIP3    H246935   6.129   5.401   0.016  0.3111  0.3209  0.4727
 8482TIP3   OH246936   4.462   1.759  17.093 -0.0294  0.3667  0.3108
 8482TIP3    H146937   4.401   1.786  17.025  1.2972  1.2217 -0.5892
 8482TIP3    H246938   4.526   1.704  17.047  0.5453  0.4552  0.9866
 8483TIP3   OH246939   1.121   3.300  11.556  0.3784  0.1204 -0.5297
 8483TIP3    H146940   1.091   3.386  11.585  2.1493  0.8167 -0.6498
 8483TIP3    H246941   1.121   3.247  11.636 -0.4723  0.2862 -0.4079
 8484TIP3   OH246942   2.183   5.558  14.110 -0.1120 -0.0048  0.1505
 8484TIP3    H146943   2.268   5.600  14.093  0.1439 -1.0665 -1.4564
 8484TIP3    H246944   2.200   5.464  14.099 -1.5796 -0.2083 -0.6073
 8485TIP3   OH246945   5.568   0.094  16.070 -0.0723  0.2475  0.2085
 8485TIP3    H146946   5.607   0.069  15.986 -0.8144 -0.2094 -0.0080
 8485TIP3    H246947   5.480   0.124  16.047 -1.3876 -2.6109  1.0855
 8486TIP3   OH246948   3.138   0.861  16.989  0.1228 -0.2919 -0.0442
 8486TIP3    H146949   3.054   0.823  16.965  0.3762  0.8483 -3.0926
 8486TIP3    H246950   3.116   0.934  17.047 -1.5475  2.6307 -3.9423
 8487TIP3   OH246951   6.469   5.316   2.221 -0.4839  0.8850 -0.1225
 8487TIP3    H146952   6.438   5.226   2.230  0.8922  0.4634  0.5361
 8487TIP3    H246953   6.465   5.334   2.127 -0.5556  0.0656 -0.2779
 8488TIP3   OH246954   3.933   2.630  12.623 -0.2996 -0.6561  0.0300
 8488TIP3    H146955   3.852   2.666  12.660 -1.3944 -1.7678 -1.1742
 8488TIP3    H246956   3.956   2.558  12.682 -0.3452 -0.5150  0.2227
 8489TIP3   OH246957   0.500   5.928   1.253 -0.3183  0.4571  0.0104
 8489TIP3    H146958   0.517   6.006   1.200 -0.6068 -0.6862 -1.8345
 8489TIP3    H246959   0.583   5.880   1.253 -0.2946  0.4876  0.6824
 8490TIP3   OH246960   4.293   5.135   1.982  0.0480 -0.1560 -0.4091
 8490TIP3    H146961   4.351   5.086   2.041 -1.5617 -0.9536  0.5934
 8490TIP3    H246962   4.344   5.145   1.901  1.6321 -0.6569  0.4841
 8491TIP3   OH246963   1.923   5.590  14.005 -0.3695 -0.0516  0.1489
 8491TIP3    H146964   2.016   5.575  14.018 -0.4346 -2.0704 -1.2009
 8491TIP3    H246965   1.917   5.676  13.964  0.7105  0.8874  1.8534
 8492TIP3   OH246966   1.432   0.878  11.179  0.6229  0.2288 -0.0269
 8492TIP3    H146967   1.503   0.868  11.115 -0.8563  0.1112 -1.7226
 8492TIP3    H246968   1.354   0.850  11.133 -0.8608  2.2077  1.1120
 8493TIP3   OH246969   6.817   4.864  16.461 -0.0247 -0.2355 -0.3645
 8493TIP3    H146970   6.791   4.826  16.378  1.6657  0.4225 -1.2544
 8493TIP3    H246971   6.747   4.925  16.484  0.4734  1.2258 -2.4680
 8494TIP3   OH246972   2.951   2.446   0.695 -0.1630 -0.3295  0.5968
 8494TIP3    H146973   2.990   2.527   0.729 -1.2077  0.3090  0.3340
 8494TIP3    H246974   2.907   2.407   0.771 -1.1100  0.2500  0.3606
 8495TIP3   OH246975   0.139   4.437   0.743  0.7314 -0.2038  0.2972
 8495TIP3    H146976   0.129   4.507   0.807 -0.0900 -1.8705  2.0867
 8495TIP3    H246977   0.054   4.394   0.740  1.2851 -1.3053 -0.5413
 8496TIP3   OH246978   2.212   1.513  15.184 -0.3914 -0.2253  0.8572
 8496TIP3    H146979   2.200   1.602  15.149 -0.4396  0.2805  2.1182
 8496TIP3    H246980   2.284   1.522  15.247 -1.3260 -0.7737  2.0373
 8497TIP3   OH246981   3.366   3.278   2.930  0.5571  0.1079 -0.5419
 8497TIP3    H146982   3.385   3.254   2.839  2.2011 -2.9925  0.5028
 8497TIP3    H246983   3.445   3.255   2.979 -0.6151  0.8076  1.8378
 8498TIP3   OH246984   2.049   1.653   0.863  0.4167 -0.6969 -1.1976
 8498TIP3    H146985   2.102   1.728   0.889  0.0393 -1.3621  1.7598
 8498TIP3    H246986   2.049   1.657   0.767  1.5962  2.2051 -1.1858
 8499TIP3   OH246987   5.978   0.692   5.016  0.4545 -0.0617 -0.4675
 8499TIP3    H146988   5.994   0.623   5.080  0.7053 -2.3185 -2.8064
 8499TIP3    H246989   5.991   0.773   5.064 -0.4487 -1.5826  2.5861
 8500TIP3   OH246990   5.101   0.473  16.741  0.5580 -0.1432  0.1574
 8500TIP3    H146991   5.185   0.512  16.715  0.8349 -0.0881  1.1039
 8500TIP3    H246992   5.057   0.455  16.658  0.0460  2.9474 -0.3615
 8501TIP3   OH246993   0.379   2.283  10.631 -0.0655 -0.3707  0.3696
 8501TIP3    H146994   0.385   2.243  10.718  1.6300 -0.5232  0.2147
 8501TIP3    H246995   0.348   2.372  10.647  1.7950  0.1543  1.3300
 8502TIP3   OH246996   3.849   1.541   2.542  0.2407  0.2643 -0.9254
 8502TIP3    H146997   3.775   1.545   2.604  0.2215  1.7729 -1.0070
 8502TIP3    H246998   3.923   1.512   2.595 -0.0187  0.4932 -0.4301
 8503TIP3   OH246999   5.773   3.471  16.917 -0.1432  0.1647 -0.2182
 8503TIP3    H147000   5.825   3.392  16.928 -0.2148  0.3765  1.9638
 8503TIP3    H247001   5.816   3.536  16.972 -0.8689  1.2765 -0.9241
 8504TIP3   OH247002   2.565   3.055   3.012 -0.1167 -0.9346  0.9062
 8504TIP3    H147003   2.542   3.021   3.098 -1.0835 -0.9136  0.6683
 8504TIP3    H247004   2.559   2.979   2.954 -0.7281 -0.6968  0.6466
 8505TIP3   OH247005   3.493   2.770  14.952 -0.1188  0.7817  0.4557
 8505TIP3    H147006   3.571   2.824  14.962 -0.1081  1.0058 -0.6851
 8505TIP3    H247007   3.516   2.707  14.884 -0.7405  0.4975  0.5003
 8506TIP3   OH247008   5.457   5.360   9.765  0.0161  0.1123 -0.1495
 8506TIP3    H147009   5.440   5.266   9.767 -2.8158  0.5373  0.7148
 8506TIP3    H247010   5.433   5.391   9.853  2.6916  1.4450  0.2276
 8507TIP3   OH247011   2.269   3.621   4.793  0.0641 -0.0246  0.1401
 8507TIP3    H147012   2.362   3.607   4.778  0.5849  1.4121  1.6562
 8507TIP3    H247013   2.252   3.583   4.879 -0.5093  0.6096  0.3212
 8508TIP3   OH247014   6.427   1.751  11.620 -0.0212  0.2744 -0.0498
 8508TIP3    H147015   6.507   1.708  11.592 -0.0440  0.6779 -0.7427
 8508TIP3    H247016   6.423   1.735  11.714  0.9450  0.3864  0.0151
 8509TIP3   OH247017   6.409   2.114  14.796 -0.0569  0.0872  0.5430
 8509TIP3    H147018   6.319   2.133  14.769 -0.1612 -0.4818  0.4820
 8509TIP3    H247019   6.463   2.156  14.729 -0.2436  1.3611  1.1574
 8510TIP3   OH247020   6.361   2.873  16.556 -0.3591  0.2589  0.4122
 8510TIP3    H147021   6.399   2.957  16.582 -1.0792  0.9932 -0.8852
 8510TIP3    H247022   6.375   2.817  16.633  0.4696  1.4302  1.1553
 8511TIP3   OH247023   0.582   2.866  16.201 -0.0219  0.0789 -0.0828
 8511TIP3    H147024   0.616   2.842  16.287 -1.6867 -0.5365  0.4287
 8511TIP3    H247025   0.615   2.797  16.143 -0.0041 -0.2481  0.3110
 8512TIP3   OH247026   0.462   2.772  12.425 -0.2239 -0.3410  0.0958
 8512TIP3    H147027   0.518   2.753  12.501 -0.1074  0.1496  0.1317
 8512TIP3    H247028   0.461   2.867  12.419 -0.6846 -0.3644 -0.1872
 8513TIP3   OH247029   4.602   3.682   1.388 -0.4810  0.5417  0.3386
 8513TIP3    H147030   4.663   3.713   1.455  0.8920 -1.1439 -0.0507
 8513TIP3    H247031   4.600   3.752   1.323  1.9807  0.2325 -0.1915
 8514TIP3   OH247032   4.776   0.642  11.427 -0.0158  0.4935 -0.2615
 8514TIP3    H147033   4.761   0.640  11.522 -0.0251  0.4271 -0.2641
 8514TIP3    H247034   4.871   0.650  11.418 -0.0539  1.0286 -0.2413
 8515TIP3   OH247035   3.343   0.250  16.772  0.0609 -0.3825 -0.5212
 8515TIP3    H147036   3.290   0.170  16.778 -0.3819 -0.0308  0.4060
 8515TIP3    H247037   3.386   0.244  16.687 -2.1159 -0.2864 -1.7018
 8516TIP3   OH247038   1.325   4.027   3.430 -0.1321  0.2656 -0.3837
 8516TIP3    H147039   1.351   3.991   3.345  1.5418 -1.8063  0.8784
 8516TIP3    H247040   1.376   4.108   3.439 -0.9176  0.9164 -1.6533
 8517TIP3   OH247041   2.514   2.600  14.658  0.1259  0.8653 -0.4681
 8517TIP3    H147042   2.433   2.647  14.636 -1.3524 -0.9834  0.7360
 8517TIP3    H247043   2.486   2.529  14.715  1.6325 -3.7869 -4.8579
 8518TIP3   OH247044   4.614   5.421   2.897  0.5995  0.0687  0.3863
 8518TIP3    H147045   4.656   5.340   2.869  0.2777 -0.2615  0.8493
 8518TIP3    H247046   4.615   5.417   2.992 -0.2921  0.1501  0.4097
 8519TIP3   OH247047   3.683   3.106   4.374  0.2515 -0.1834  0.3848
 8519TIP3    H147048   3.711   3.032   4.428 -0.3979 -0.2224  0.6696
 8519TIP3    H247049   3.631   3.067   4.304 -0.9506  0.0883  1.1109
 8520TIP3   OH247050   1.448   1.677  16.600  0.2167  0.4079 -0.3721
 8520TIP3    H147051   1.536   1.642  16.612  0.0300  0.3496  1.0211
 8520TIP3    H247052   1.452   1.724  16.517  0.9919 -1.2622 -1.3235
 8521TIP3   OH247053   0.873   3.003  15.229 -0.1174 -0.1842 -0.0402
 8521TIP3    H147054   0.888   3.097  15.238 -1.5693  0.0287  0.4176
 8521TIP3    H247055   0.893   2.984  15.138 -1.9765  1.0217 -0.7622
 8522TIP3   OH247056   6.698   4.543  13.124 -0.2885 -0.6287 -0.0274
 8522TIP3    H147057   6.667   4.592  13.201 -1.7334 -0.6214 -0.5727
 8522TIP3    H247058   6.793   4.540  13.134 -0.1672  1.9131  0.2681
 8523TIP3   OH247059   1.831   0.469  13.053  0.2316 -0.5932 -0.5138
 8523TIP3    H147060   1.912   0.506  13.089  0.1075  0.5725 -1.3529
 8523TIP3    H247061   1.780   0.546  13.028 -0.9966 -1.3200 -0.3246
 8524TIP3   OH247062   6.371   3.511   4.801 -0.2183  0.1581  0.6854
 8524TIP3    H147063   6.349   3.540   4.890  1.7524  1.0024  0.9427
 8524TIP3    H247064   6.427   3.435   4.814 -0.9745 -0.5108  0.1116
 8525TIP3   OH247065   0.111   4.739   0.108 -0.4492 -0.5823  0.5418
 8525TIP3    H147066   0.060   4.677   0.056 -0.6424  1.5328 -1.9962
 8525TIP3    H247067   0.111   4.819   0.056  1.3483  1.0000  2.7938
 8526TIP3   OH247068   2.785   6.093  14.684 -0.5861 -0.2016  0.1695
 8526TIP3    H147069   2.849   6.075  14.615 -0.0185  0.7002  0.4514
 8526TIP3    H247070   2.798   6.185  14.705 -0.5090 -0.5435  1.7194
 8527TIP3   OH247071   6.280   3.742  11.738  0.0374 -0.0347  0.2096
 8527TIP3    H147072   6.200   3.791  11.718 -1.6379 -2.6468  0.1109
 8527TIP3    H247073   6.254   3.677  11.803  2.1967 -0.7283  0.4801
 8528TIP3   OH247074   4.520   6.680   4.387 -0.0789  0.7322 -0.1770
 8528TIP3    H147075   4.589   6.621   4.416 -1.6210 -1.0413  0.0713
 8528TIP3    H247076   4.450   6.669   4.452 -0.9485  1.8269 -0.8853
 8529TIP3   OH247077   2.174   0.954  15.130  0.2788  0.2885 -0.2675
 8529TIP3    H147078   2.245   0.991  15.183 -1.1741  1.6911  0.7708
 8529TIP3    H247079   2.168   1.012  15.054 -0.0112  0.3927 -0.1641
 8530TIP3   OH247080   4.819   6.142   1.511 -0.1909 -0.5180  0.2762
 8530TIP3    H147081   4.736   6.136   1.463 -0.1924 -1.5737  0.3823
 8530TIP3    H247082   4.886   6.128   1.444 -0.0634  0.8551  0.0991
 8531TIP3   OH247083   3.049   2.679  11.261  0.0660  0.3808  0.1034
 8531TIP3    H147084   3.057   2.589  11.227 -0.8739  0.4578 -0.3464
 8531TIP3    H247085   2.975   2.716  11.214 -2.3915 -0.0285  3.3275
 8532TIP3   OH247086   4.623   5.037  15.129 -0.2032 -0.5121 -0.2075
 8532TIP3    H147087   4.557   5.106  15.136  1.2385  0.9433 -0.4090
 8532TIP3    H247088   4.632   5.004  15.219 -0.3285  0.1333  0.0498
 8533TIP3   OH247089   0.082   3.818   2.938  0.2525  0.2460 -0.6179
 8533TIP3    H147090   0.173   3.848   2.946  0.6415 -0.7016 -1.3024
 8533TIP3    H247091   0.069   3.762   3.015  0.7372 -0.7831 -1.2594
 8534TIP3   OH247092   3.544   5.889   5.379 -0.4308  0.2927 -0.2845
 8534TIP3    H147093   3.623   5.859   5.424 -0.3401  1.4213  0.3440
 8534TIP3    H247094   3.482   5.818   5.388  0.5170 -0.6338 -0.8208
 8535TIP3   OH247095   4.855   6.118   0.018  0.3956  0.0546 -0.3288
 8535TIP3    H147096   4.839   6.049   0.082  0.8830  0.5228  0.3051
 8535TIP3    H247097   4.944   6.102  -0.013  0.4905  0.3728 -0.2177
 8536TIP3   OH247098   1.414   0.797  12.037 -0.0661 -0.6588  0.1275
 8536TIP3    H147099   1.329   0.827  12.070  0.0345 -0.9909  0.6850
 8536TIP3    H247100   1.407   0.809  11.942 -0.4509  0.0508  0.2298
 8537TIP3   OH247101   5.278   2.660   2.769  0.4547  0.2233 -0.1503
 8537TIP3    H147102   5.260   2.753   2.757  2.6765  1.0258  1.9214
 8537TIP3    H247103   5.192   2.618   2.766 -0.4827  2.0604 -2.7504
 8538TIP3   OH247104   3.883   4.070  16.984  0.3166 -0.5275  0.2403
 8538TIP3    H147105   3.850   4.145  16.934  0.7568 -0.3952  0.1376
 8538TIP3    H247106   3.811   4.007  16.985 -0.4479  0.3394  1.2763
 8539TIP3   OH247107   6.803   2.006  13.324 -0.3406 -0.7223  0.1826
 8539TIP3    H147108   6.766   1.917  13.327 -0.0901 -0.8544 -0.4706
 8539TIP3    H247109   6.896   1.993  13.339 -0.5383 -0.3815  1.9083
 8540TIP3   OH247110   5.129   3.192   4.012  0.6303 -0.5413 -0.8859
 8540TIP3    H147111   5.089   3.191   4.099  0.8861 -2.8261 -0.7130
 8540TIP3    H247112   5.066   3.237   3.956  0.3280  0.6897  0.4054
 8541TIP3   OH247113   4.078   4.042   0.493  0.6040  0.7371 -0.5471
 8541TIP3    H147114   4.016   4.079   0.555  0.4080 -0.0159 -0.2807
 8541TIP3    H247115   4.101   3.957   0.531 -2.0969 -1.3409 -3.0947
 8542TIP3   OH247116   2.540   3.253  16.130  0.0801 -0.6529 -0.1089
 8542TIP3    H147117   2.622   3.223  16.089  0.3189 -2.1274  1.3300
 8542TIP3    H247118   2.568   3.295  16.211 -0.6155 -2.0591  0.8867
 8543TIP3   OH247119   6.123   2.717  15.722  0.0926  0.3348  0.1499
 8543TIP3    H147120   6.211   2.714  15.686  0.3995 -0.8954  0.9488
 8543TIP3    H247121   6.065   2.703  15.647  0.6461 -0.5447 -0.1281
 8544TIP3   OH247122   2.141   0.874  16.115  0.8518 -0.5844  0.3107
 8544TIP3    H147123   2.209   0.924  16.161  0.1275 -1.3352  2.3297
 8544TIP3    H247124   2.163   0.783  16.131 -0.1719 -0.8456  0.3274
 8545TIP3   OH247125   3.907   0.802  11.380  0.4898  0.2120 -0.0039
 8545TIP3    H147126   3.863   0.884  11.403  0.9142  0.7899 -1.1742
 8545TIP3    H247127   3.838   0.736  11.386  0.3575  0.4791  1.8514
 8546TIP3   OH247128   3.566   0.316  11.566  0.4331 -0.3244  0.1816
 8546TIP3    H147129   3.601   0.400  11.537 -0.3023  0.4168  1.3571
 8546TIP3    H247130   3.634   0.280  11.623 -0.0763  0.4204  1.2776
 8547TIP3   OH247131   3.970   1.672  16.837  0.1474 -0.4326  0.1675
 8547TIP3    H147132   3.887   1.636  16.805 -0.6509  2.6598 -1.6964
 8547TIP3    H247133   4.035   1.607  16.812 -1.5358 -2.2815  0.3752
 8548TIP3   OH247134   0.809   6.438  14.857  0.0701  0.9310 -0.2031
 8548TIP3    H147135   0.874   6.451  14.788  1.8349 -0.1676  1.1581
 8548TIP3    H247136   0.807   6.522  14.904 -0.1640  1.2563 -0.7885
 8549TIP3   OH247137   1.260   5.159   4.172  0.6864  0.1058 -1.3463
 8549TIP3    H147138   1.202   5.235   4.176  0.9339  0.3481 -2.1336
 8549TIP3    H247139   1.347   5.196   4.160  1.0519 -0.2489  0.1345
 8550TIP3   OH247140   6.266   0.361   3.252  0.0194  0.2862  0.6307
 8550TIP3    H147141   6.172   0.349   3.238  0.4450 -1.6489 -1.0613
 8550TIP3    H247142   6.290   0.434   3.195 -0.0189 -1.1248 -1.3062
 8551TIP3   OH247143   0.227   2.588   5.212 -0.6366  0.3727  0.1419
 8551TIP3    H147144   0.163   2.629   5.269 -1.8151 -0.6200 -0.4292
 8551TIP3    H247145   0.267   2.662   5.165 -0.2995  1.1189  1.5336
 8552TIP3   OH247146   0.256   4.916   1.921 -0.0122 -0.0534 -0.1305
 8552TIP3    H147147   0.341   4.882   1.949  0.1152 -0.2842 -0.7649
 8552TIP3    H247148   0.276   4.999   1.877 -0.0369 -0.4285 -0.8616
 8553TIP3   OH247149   1.529   1.992  11.504 -0.2111 -0.4896  0.2168
 8553TIP3    H147150   1.610   1.957  11.468  0.4554  3.2513 -2.5622
 8553TIP3    H247151   1.463   1.975  11.437 -1.0389 -0.7804  1.0697
 8554TIP3   OH247152   0.989   3.837   0.297 -0.1019  0.5427 -0.7268
 8554TIP3    H147153   0.904   3.843   0.254 -0.1255  1.1575 -0.6017
 8554TIP3    H247154   1.050   3.815   0.226 -0.5049 -0.9661 -0.6399
 8555TIP3   OH247155   2.602   0.641  11.392  0.3138 -0.3310 -0.7214
 8555TIP3    H147156   2.621   0.684  11.476 -1.3330  1.5858 -1.2452
 8555TIP3    H247157   2.586   0.549  11.415  0.5757  0.0064  0.9554
 8556TIP3   OH247158   6.329   3.224   5.945  0.3786 -0.0905  0.0696
 8556TIP3    H147159   6.312   3.305   5.993  1.8757  1.1238 -1.3220
 8556TIP3    H247160   6.399   3.181   5.994 -0.1926 -0.4027  0.6281
 8557TIP3   OH247161   2.031   2.542  13.741 -0.0354 -0.0526 -0.7446
 8557TIP3    H147162   2.092   2.570  13.673  1.6163 -1.2990  0.1579
 8557TIP3    H247163   2.072   2.465  13.780 -1.1849  0.2862  1.2913
 8558TIP3   OH247164   3.496   2.877  15.262 -0.3903 -0.2202  0.0996
 8558TIP3    H147165   3.431   2.932  15.219  0.1790  0.7089  0.3884
 8558TIP3    H247166   3.564   2.864  15.196  0.4923  1.2224  0.6908
 8559TIP3   OH247167   1.915   5.599   1.432  0.0680 -0.1633 -0.7108
 8559TIP3    H147168   1.993   5.625   1.482 -1.1505 -0.8279  1.6754
 8559TIP3    H247169   1.860   5.678   1.430  0.5340  0.1515 -1.9326
 8560TIP3   OH247170   2.667   3.126  11.224 -0.4111  0.0409 -0.4260
 8560TIP3    H147171   2.623   3.167  11.149 -1.0185  1.0975  0.4884
 8560TIP3    H247172   2.602   3.130  11.294 -0.5803 -2.6768 -0.3259
 8561TIP3   OH247173   4.163   3.139   3.372  0.2382 -0.1165  0.2103
 8561TIP3    H147174   4.116   3.079   3.314  2.5963 -2.2392  0.2848
 8561TIP3    H247175   4.141   3.226   3.339 -3.7370 -0.8800  0.3848
 8562TIP3   OH247176   4.905   4.591   3.413 -0.0348  0.3392  0.2199
 8562TIP3    H147177   4.815   4.575   3.443 -0.3624  1.4107 -0.1487
 8562TIP3    H247178   4.905   4.564   3.321  0.0229  0.3299  0.2225
 8563TIP3   OH247179   3.460   0.617   0.029  0.0165 -0.5359  0.0712
 8563TIP3    H147180   3.530   0.554   0.043  0.6829  0.1808  0.0581
 8563TIP3    H247181   3.436   0.647   0.116 -1.3525 -1.8865  0.2023
 8564TIP3   OH247182   0.522   1.402  15.369 -0.2838  0.4253  0.4274
 8564TIP3    H147183   0.545   1.393  15.461 -0.3688  0.8896  0.4940
 8564TIP3    H247184   0.426   1.394  15.368 -0.1189 -2.3317  0.0573
 8565TIP3   OH247185   6.167   3.674   5.378 -0.2948  0.4567  0.0094
 8565TIP3    H147186   6.094   3.667   5.440  0.3062  2.2420  0.9953
 8565TIP3    H247187   6.230   3.732   5.421  0.6566  0.8615 -1.8076
 8566TIP3   OH247188   2.151   6.386   1.753  0.2961  0.3370 -0.1661
 8566TIP3    H147189   2.058   6.408   1.747  0.8685  3.2811  0.1065
 8566TIP3    H247190   2.177   6.418   1.840  1.9314  1.2752 -0.9599
 8567TIP3   OH247191   5.257   3.804   1.239  0.8295 -0.1804  0.1228
 8567TIP3    H147192   5.310   3.807   1.319  0.7523 -1.3451  0.2454
 8567TIP3    H247193   5.171   3.776   1.270  0.6933 -0.2492 -0.3211
 8568TIP3   OH247194   6.453   5.935   5.447 -0.5182 -0.2568  0.0791
 8568TIP3    H147195   6.526   5.919   5.506 -1.0814  1.6743  1.4011
 8568TIP3    H247196   6.493   5.973   5.369 -0.1321  1.4959  1.0905
 8569TIP3   OH247197   5.498   1.146   4.353 -0.2649  0.2488 -0.2048
 8569TIP3    H147198   5.559   1.205   4.397 -0.6868  0.9492 -0.5430
 8569TIP3    H247199   5.510   1.165   4.259 -0.0847 -0.5214 -0.3422
 8570TIP3   OH247200   3.673   5.653  13.329  0.8899  0.0728 -0.0688
 8570TIP3    H147201   3.688   5.562  13.302  0.2581  0.3058 -1.2632
 8570TIP3    H247202   3.583   5.654  13.361 -0.5466  0.9850 -3.6144
 8571TIP3   OH247203   3.455   4.962  12.275 -0.5977  0.1655  0.2534
 8571TIP3    H147204   3.388   4.895  12.288  1.2566 -1.5690  1.3027
 8571TIP3    H247205   3.528   4.916  12.235  0.3145  1.8275 -0.0876
 8572TIP3   OH247206   3.226   1.259   2.956  0.7450  0.3338 -0.6455
 8572TIP3    H147207   3.138   1.283   2.986  0.0897 -0.4867 -1.8166
 8572TIP3    H247208   3.283   1.325   2.994 -0.1801  0.1058  1.2828
 8573TIP3   OH247209   1.324   5.378  12.643 -0.0520  0.0953  0.1246
 8573TIP3    H147210   1.380   5.350  12.716  0.2446  0.3253 -0.0143
 8573TIP3    H247211   1.312   5.472  12.657  0.6732  0.3037 -0.5712
 8574TIP3   OH247212   1.572   0.905  16.620 -0.5087 -0.1805  0.4771
 8574TIP3    H147213   1.649   0.859  16.653 -0.9896 -1.0108  0.4729
 8574TIP3    H247214   1.546   0.856  16.542 -2.0375 -0.9999  1.4271
 8575TIP3   OH247215   0.797   0.050   4.081  0.4670 -0.3498 -0.0998
 8575TIP3    H147216   0.859   0.089   4.143  1.7124  0.6389 -1.8534
 8575TIP3    H247217   0.763   0.125   4.031 -0.4745 -1.1052 -0.6324
 8576TIP3   OH247218   4.340   2.214  12.686 -0.1930 -0.0572  0.0654
 8576TIP3    H147219   4.407   2.262  12.734  0.9983 -1.7475  0.1688
 8576TIP3    H247220   4.328   2.264  12.605  1.6135 -0.0056 -0.2068
 8577TIP3   OH247221   0.322   5.648   1.886 -0.2155  0.2010  0.2694
 8577TIP3    H147222   0.249   5.691   1.931 -0.2552  0.0790  0.3214
 8577TIP3    H247223   0.400   5.697   1.913 -0.1210 -0.4213  1.1850
 8578TIP3   OH247224   4.012   6.148  14.479 -0.1247  0.1403  0.2853
 8578TIP3    H147225   4.038   6.238  14.459 -0.7455 -0.0176 -1.3751
 8578TIP3    H247226   3.923   6.156  14.512 -0.2261  0.1334  0.0174
 8579TIP3   OH247227   5.005   6.544  16.477  0.0911  0.5429  0.1037
 8579TIP3    H147228   5.061   6.585  16.411  1.2261 -1.2045 -0.0719
 8579TIP3    H247229   5.057   6.546  16.557 -0.7163  1.3662  0.6244
 8580TIP3   OH247230   0.626   6.509  14.297 -0.5714  0.2415 -0.1084
 8580TIP3    H147231   0.674   6.592  14.305 -1.9116  0.9768  0.7522
 8580TIP3    H247232   0.693   6.442  14.308  0.3582  1.2225  0.4645
 8581TIP3   OH247233   3.119   0.892  12.451  0.2325  0.0517 -0.1148
 8581TIP3    H147234   3.067   0.929  12.522  0.6177  2.1787 -0.8906
 8581TIP3    H247235   3.209   0.921  12.469  0.5726 -0.5883 -0.7152
 8582TIP3   OH247236   3.572   4.602   0.955  0.0144 -0.8818  0.4760
 8582TIP3    H147237   3.496   4.574   0.904 -0.4977  1.1298  0.0655
 8582TIP3    H247238   3.635   4.631   0.889  0.5722 -1.1590  0.8821
 8583TIP3   OH247239   4.691   6.195  12.693 -0.2429 -0.1554 -0.2521
 8583TIP3    H147240   4.704   6.288  12.674  0.3350 -0.0775  0.4999
 8583TIP3    H247241   4.720   6.150  12.613 -1.8885  0.3621 -1.1792
 8584TIP3   OH247242   1.258   0.788  13.394 -0.8122  0.8460 -0.3872
 8584TIP3    H147243   1.164   0.789  13.374 -0.7968  1.0230 -0.4562
 8584TIP3    H247244   1.301   0.784  13.309 -0.7466  1.5976 -0.3968
 8585TIP3   OH247245   1.306   4.492  10.979  0.2673  0.5415  0.1916
 8585TIP3    H147246   1.399   4.498  10.957  1.2102 -0.7364  3.1941
 8585TIP3    H247247   1.280   4.582  10.997  0.7362  0.9843 -1.2413
 8586TIP3   OH247248   6.199   4.106   2.264  0.2413 -0.8804 -0.3487
 8586TIP3    H147249   6.178   4.152   2.345 -1.3006 -0.7642 -0.7913
 8586TIP3    H247250   6.240   4.024   2.293 -1.8041 -1.6097  0.6464
 8587TIP3   OH247251   5.270   5.950   6.027 -0.6201  0.0165 -0.4091
 8587TIP3    H147252   5.176   5.962   6.013 -0.2550  3.3276 -0.8055
 8587TIP3    H247253   5.293   6.017   6.092  1.6058 -0.0743 -1.0273
 8588TIP3   OH247254   4.229   1.384  14.179 -0.2622  0.2901 -0.1747
 8588TIP3    H147255   4.324   1.395  14.180 -0.5132  3.8304 -1.0340
 8588TIP3    H247256   4.195   1.472  14.196 -3.3672 -0.5217 -1.5346
 8589TIP3   OH247257   6.507   2.148   0.179  0.0281 -0.3175 -0.1420
 8589TIP3    H147258   6.479   2.222   0.232  0.2134  0.3759 -0.9921
 8589TIP3    H247259   6.465   2.161   0.094  1.4578 -0.2179 -0.8720
 8590TIP3   OH247260   5.552   2.140  13.268 -0.4183  0.4230  0.2755
 8590TIP3    H147261   5.539   2.227  13.228 -0.0415 -0.0873 -0.9950
 8590TIP3    H247262   5.522   2.151  13.359 -1.4486  1.5886 -0.1693
 8591TIP3   OH247263   3.226   4.583   1.899 -0.0702 -0.1749  0.2332
 8591TIP3    H147264   3.233   4.574   1.804  0.2759 -1.2619  0.3462
 8591TIP3    H247265   3.295   4.527   1.934  1.0233  1.6215  1.1074
 8592TIP3   OH247266   2.113   0.537  15.112  0.2585  0.0267  0.3451
 8592TIP3    H147267   2.164   0.474  15.061  0.7617  0.8496 -0.1865
 8592TIP3    H247268   2.140   0.623  15.078  1.5140  0.6869  2.8069
 8593TIP3   OH247269   2.110   6.378   0.293  0.0198 -0.1717 -0.2325
 8593TIP3    H147270   2.168   6.307   0.262 -1.0592 -0.3339 -2.0060
 8593TIP3    H247271   2.042   6.333   0.342 -0.5257 -0.3631 -1.1444
 8594TIP3   OH247272   6.562   2.053  13.561 -0.2113  0.2623 -0.3908
 8594TIP3    H147273   6.597   2.084  13.644 -0.5998  0.6414 -0.3663
 8594TIP3    H247274   6.554   1.958  13.572  0.5192  0.2066 -0.2930
 8595TIP3   OH247275   6.656   5.735   1.349  0.2551  0.3162  0.4368
 8595TIP3    H147276   6.615   5.736   1.436  1.3176  0.8160  0.9473
 8595TIP3    H247277   6.639   5.822   1.313 -2.6070 -0.7410 -1.0712
 8596TIP3   OH247278   3.024   2.793  12.077 -0.4645  0.1228  0.2638
 8596TIP3    H147279   2.944   2.828  12.038 -0.8106  0.5557  1.3363
 8596TIP3    H247280   3.085   2.784  12.003 -1.1597  0.7609 -0.3992
 8597TIP3   OH247281   1.717   4.656   1.868 -0.1225  0.4874 -1.0049
 8597TIP3    H147282   1.734   4.666   1.962 -2.9918  3.8911 -0.6491
 8597TIP3    H247283   1.776   4.718   1.826  1.6182 -1.4870 -1.6431
 8598TIP3   OH247284   6.492   5.269   1.721  0.4376  0.1503  0.2533
 8598TIP3    H147285   6.465   5.337   1.660  1.0898 -1.4599 -1.9931
 8598TIP3    H247286   6.484   5.308   1.808 -1.9727  2.0861 -0.7510
 8599TIP3   OH247287   4.251   3.699  16.991 -0.4298  0.1614  0.0086
 8599TIP3    H147288   4.156   3.705  17.005 -0.8373 -0.3430 -2.2391
 8599TIP3    H247289   4.288   3.763  17.053 -2.2425  0.6001  0.6985
 8600TIP3   OH247290   5.722   4.649  14.930 -0.7006 -0.0200 -0.4344
 8600TIP3    H147291   5.814   4.660  14.954 -0.8426  0.0257  0.1159
 8600TIP3    H247292   5.678   4.635  15.014 -1.1592 -0.2781 -0.7188
 8601TIP3   OH247293   6.056   1.044  14.853  0.9160 -0.1842 -0.0665
 8601TIP3    H147294   6.022   1.004  14.934  0.8899  0.6876  0.3698
 8601TIP3    H247295   6.075   0.970  14.796  0.9186 -0.8219  0.7362
 8602TIP3   OH247296   4.383   4.305  16.495 -0.2401 -0.2396 -0.0681
 8602TIP3    H147297   4.361   4.395  16.518  2.0596  0.2125  0.5751
 8602TIP3    H247298   4.397   4.307  16.400 -0.3772  0.0122 -0.0844
 8603TIP3   OH247299   6.503   3.506  12.172  0.8095 -0.1184  0.4179
 8603TIP3    H147300   6.472   3.586  12.129 -2.9199 -1.7020 -0.2494
 8603TIP3    H247301   6.544   3.536  12.253 -2.6250  2.5219  1.4347
 8604TIP3   OH247302   1.371   4.344  13.594  0.0023 -0.5122  0.5494
 8604TIP3    H147303   1.323   4.424  13.571  0.1828 -0.1753  1.3364
 8604TIP3    H247304   1.340   4.279  13.530  0.1219  0.2680 -0.3277
 8605TIP3   OH247305   5.394   3.670  16.647 -0.0980 -0.1513  0.4711
 8605TIP3    H147306   5.444   3.749  16.629  3.8527 -2.8107 -1.6405
 8605TIP3    H247307   5.411   3.651  16.740 -0.6028  1.0376  0.8333
 8606TIP3   OH247308   4.987   2.012   2.027  0.4730 -0.0381 -0.0265
 8606TIP3    H147309   4.918   2.006   2.092  0.6694  1.1007  0.3175
 8606TIP3    H247310   4.963   2.088   1.974  0.8703 -0.3131 -0.6158
 8607TIP3   OH247311   0.552   1.360  15.633 -0.4757  0.0658  0.8894
 8607TIP3    H147312   0.528   1.372  15.725  0.3629 -0.3804  1.1736
 8607TIP3    H247313   0.599   1.277  15.631  0.9618  0.8679  0.3286
 8608TIP3   OH247314   4.614   4.083   4.491 -0.0164 -0.0030  0.0764
 8608TIP3    H147315   4.701   4.063   4.457  0.2673 -1.2461  1.4319
 8608TIP3    H247316   4.622   4.073   4.586 -1.3423  1.0661  0.3350
 8609TIP3   OH247317   5.273   5.900  14.081  0.2674  0.3444 -0.0267
 8609TIP3    H147318   5.275   5.810  14.048 -1.9828  0.4513 -0.6158
 8609TIP3    H247319   5.364   5.928  14.078  0.5536 -0.4851 -3.9061
 8610TIP3   OH247320   2.960   0.362   3.723  0.1121 -0.3501  0.6040
 8610TIP3    H147321   3.012   0.402   3.794 -0.2667 -0.4012  0.9124
 8610TIP3    H247322   2.881   0.415   3.718  2.2409  2.9353 -3.2411
 8611TIP3   OH247323   3.321   6.003   5.197 -0.2444 -0.4874  0.1821
 8611TIP3    H147324   3.416   5.995   5.208 -0.2176 -2.2654 -0.9055
 8611TIP3    H247325   3.284   5.966   5.278 -0.0147 -0.6159  0.2288
 8612TIP3   OH247326   4.963   2.091  15.586 -0.0545 -0.5471 -0.4524
 8612TIP3    H147327   5.006   2.177  15.586 -0.0610 -0.5330  0.4846
 8612TIP3    H247328   5.033   2.029  15.607  0.2265 -0.9428 -2.4117
 8613TIP3   OH247329   0.769   5.353   6.130 -0.5724  0.1789  0.0710
 8613TIP3    H147330   0.744   5.443   6.110 -1.1979 -0.1155 -0.4967
 8613TIP3    H247331   0.693   5.316   6.174  0.0980  0.2555  1.3446
 8614TIP3   OH247332   3.713   6.037  14.820 -0.4670  0.1992 -0.0503
 8614TIP3    H147333   3.740   5.950  14.792  0.1651 -0.0870  1.3262
 8614TIP3    H247334   3.723   6.035  14.916 -1.2401  1.5132  0.0857
 8615TIP3   OH247335   6.569   2.112   3.196  0.0223 -0.1740 -0.0568
 8615TIP3    H147336   6.500   2.058   3.157  0.8519 -1.6331  0.4118
 8615TIP3    H247337   6.528   2.198   3.208 -1.4200 -0.7432 -0.6235
 8616TIP3   OH247338   1.156   2.577  15.156  0.2942 -0.1440  0.3613
 8616TIP3    H147339   1.210   2.653  15.135 -0.7915 -0.0090 -2.2133
 8616TIP3    H247340   1.204   2.503  15.117 -0.9257 -0.1184 -1.2704
 8617TIP3   OH247341   1.407   1.594   4.865 -0.1276  0.4685 -0.1971
 8617TIP3    H147342   1.368   1.680   4.849  0.0393  0.5716 -0.0509
 8617TIP3    H247343   1.422   1.591   4.959 -0.1329  0.2784 -0.2012
 8618TIP3   OH247344   4.172   4.025  15.120 -0.1093  0.3482 -0.6969
 8618TIP3    H147345   4.111   3.961  15.083 -0.0699 -0.1149  0.0344
 8618TIP3    H247346   4.245   3.973  15.152  0.6040  0.8839 -1.4145
 8619TIP3   OH247347   5.976   1.115  10.653  0.0919  0.3194 -0.2865
 8619TIP3    H147348   6.026   1.188  10.616  2.6697 -0.5150  1.3105
 8619TIP3    H247349   6.038   1.043  10.657 -1.5827 -1.1298  0.8319
 8620TIP3   OH247350   2.289   3.153   5.610  0.5465 -0.6774 -0.0468
 8620TIP3    H147351   2.338   3.146   5.691 -0.4496  0.8866  0.7363
 8620TIP3    H247352   2.350   3.191   5.547  0.9071 -0.5738  0.3680
 8621TIP3   OH247353   2.925   6.243  13.983 -0.3846  0.3026  0.3944
 8621TIP3    H147354   2.913   6.259  14.076 -0.1796  0.9338  0.3149
 8621TIP3    H247355   3.007   6.193  13.977  0.4066  1.5591  0.4446
 8622TIP3   OH247356   0.589   6.327   0.176 -0.1333 -0.6097  0.6392
 8622TIP3    H147357   0.510   6.304   0.128 -1.0368 -0.4268  1.9651
 8622TIP3    H247358   0.643   6.248   0.174  0.0637 -0.4538 -1.0263
 8623TIP3   OH247359   4.008   4.437  13.039 -0.0053 -0.5113  0.2177
 8623TIP3    H147360   4.027   4.531  13.034 -2.2254 -0.0508 -0.8348
 8623TIP3    H247361   3.914   4.430  13.022  0.0910 -2.9410  0.2525
 8624TIP3   OH247362   2.918   1.881  13.282  0.0700 -0.0954  0.1608
 8624TIP3    H147363   2.827   1.870  13.257  0.1012  0.2469 -0.1145
 8624TIP3    H247364   2.937   1.973  13.267  0.3942 -0.1096  0.4459
 8625TIP3   OH247365   4.017   5.936  11.658  0.2388  0.6765  0.0691
 8625TIP3    H147366   4.070   5.894  11.725  0.3285  2.2829  1.0508
 8625TIP3    H247367   4.076   5.945  11.583  0.4786 -0.0989  0.1521
 8626TIP3   OH247368   5.870   3.468  12.958  0.3508  0.4306  0.3765
 8626TIP3    H147369   5.849   3.455  12.866  1.7838  1.7423 -0.1811
 8626TIP3    H247370   5.885   3.380  12.992  0.5129 -0.0261 -0.8278
 8627TIP3   OH247371   3.737   3.855   3.355  0.3826  0.1903  0.2453
 8627TIP3    H147372   3.819   3.849   3.305 -0.7104 -0.6654 -1.5322
 8627TIP3    H247373   3.759   3.819   3.441  1.9077  0.0709 -0.1701
 8628TIP3   OH247374   5.034   3.696  15.337  0.1509  0.3355  0.5272
 8628TIP3    H147375   4.993   3.642  15.270  0.2719  0.1849  0.5745
 8628TIP3    H247376   4.961   3.739  15.381  0.0864  0.6745  0.0971
 8629TIP3   OH247377   3.249   2.889  14.817 -0.4802 -0.5354 -0.0384
 8629TIP3    H147378   3.283   2.811  14.861 -0.6336 -0.5944 -0.0245
 8629TIP3    H247379   3.155   2.874  14.809 -0.3121 -0.9830 -1.3241
 8630TIP3   OH247380   4.021   6.544   4.743 -0.0188  0.4391 -0.4845
 8630TIP3    H147381   4.078   6.496   4.684 -0.2814 -0.3320 -0.1272
 8630TIP3    H247382   3.975   6.476   4.793 -0.4449  1.0590 -0.0107
 8631TIP3   OH247383   0.615   1.249  13.386  0.4222 -0.5018  0.1946
 8631TIP3    H147384   0.550   1.318  13.397  1.2266  0.6416 -1.7453
 8631TIP3    H247385   0.607   1.195  13.465 -0.2924  1.7472  1.7457
 8632TIP3   OH247386   5.194   3.638  12.156 -0.6390  0.2576 -0.2407
 8632TIP3    H147387   5.177   3.635  12.062 -1.3815  0.6416 -0.1330
 8632TIP3    H247388   5.288   3.625  12.165 -0.3474  1.6123 -1.1251
 8633TIP3   OH247389   5.732   4.469   2.272 -0.2487 -0.5157  0.4887
 8633TIP3    H147390   5.684   4.497   2.350 -2.7824  0.5278 -1.3409
 8633TIP3    H247391   5.800   4.536   2.261 -1.4276  0.7368  0.4837
 8634TIP3   OH247392   4.259   6.201  13.663 -0.1718  0.0080 -0.8211
 8634TIP3    H147393   4.240   6.173  13.753 -0.5100 -1.1464 -1.2355
 8634TIP3    H247394   4.303   6.285  13.673  0.8076 -0.6232  0.4767
 8635TIP3   OH247395   6.094   2.848   1.493 -1.0568  0.1146  0.5219
 8635TIP3    H147396   6.172   2.902   1.480  1.1480 -2.4794  2.0860
 8635TIP3    H247397   6.079   2.806   1.409 -1.5852  1.5574 -0.1360
 8636TIP3   OH247398   5.263   1.527  16.929  0.1999  0.1167 -0.1979
 8636TIP3    H147399   5.191   1.585  16.902  0.1941  0.0829 -0.2568
 8636TIP3    H247400   5.222   1.440  16.935  0.5210 -0.1565 -1.5484
 8637TIP3   OH247401   6.212   5.371   4.616  0.5271  0.5713 -0.0931
 8637TIP3    H147402   6.173   5.407   4.696 -0.7818 -1.6779  0.3473
 8637TIP3    H247403   6.158   5.406   4.545  1.2704  2.0149  0.0037
 8638TIP3   OH247404   3.920   3.696  13.910  0.1574 -0.1842  0.5181
 8638TIP3    H147405   3.872   3.702  13.827 -0.1160  2.1788  0.7967
 8638TIP3    H247406   4.010   3.716  13.888 -0.1906  2.1657  0.9723
 8639TIP3   OH247407   5.112   2.473  13.560 -0.0669  0.4832 -0.3950
 8639TIP3    H147408   5.043   2.506  13.617  0.0021  1.9628 -1.1332
 8639TIP3    H247409   5.144   2.550  13.514  0.0246 -0.6249 -2.2821
 8640TIP3   OH247410   0.206   6.653   3.160  0.2703 -0.2805 -1.0427
 8640TIP3    H147411   0.269   6.584   3.184  0.1494 -0.9587 -2.4986
 8640TIP3    H247412   0.162   6.676   3.241  2.4085  0.2284  0.0346
 8641TIP3   OH247413   3.936   4.421   1.869  0.2554 -0.2021 -0.0759
 8641TIP3    H147414   3.909   4.462   1.787  0.1226 -1.9247 -0.9488
 8641TIP3    H247415   4.030   4.435   1.873  0.1477  0.5795 -0.1056
 8642TIP3   OH247416   5.331   4.957  10.880 -0.0577 -0.0040 -0.4063
 8642TIP3    H147417   5.385   4.981  10.955  1.0160 -1.6865 -0.5851
 8642TIP3    H247418   5.308   5.041  10.840 -0.0758  0.8953  1.3735
 8643TIP3   OH247419   5.213   3.756  15.134 -0.2074 -0.1227  0.2474
 8643TIP3    H147420   5.151   3.748  15.206  0.8317 -0.7577  1.0938
 8643TIP3    H247421   5.291   3.710  15.164  0.0247 -0.9872 -1.5592
 8644TIP3   OH247422   1.335   3.398   0.766 -0.2492 -0.2261 -0.0663
 8644TIP3    H147423   1.337   3.307   0.735 -0.6499 -0.0592 -0.5964
 8644TIP3    H247424   1.350   3.450   0.687 -1.5232  0.2160 -0.0323
 8645TIP3   OH247425   1.531   6.242   1.528  0.1957 -0.5998 -0.3050
 8645TIP3    H147426   1.437   6.228   1.538  0.2819 -1.1767 -0.2675
 8645TIP3    H247427   1.543   6.336   1.539 -0.4238 -0.4749 -0.6827
 8646TIP3   OH247428   2.591   6.172  16.001  0.6190 -0.4584 -0.3702
 8646TIP3    H147429   2.626   6.262  16.002  1.1232 -0.6439  0.6526
 8646TIP3    H247430   2.497   6.183  15.986  0.8096  0.1812 -1.1467
 8647TIP3   OH247431   1.529   6.435  15.455 -0.3667 -0.1865  0.5544
 8647TIP3    H147432   1.488   6.357  15.419  2.5918 -1.3728 -0.5286
 8647TIP3    H247433   1.585   6.468  15.385 -0.7394  2.3727  1.3210
 8648TIP3   OH247434   6.278   4.776  15.106  0.1202 -0.4515 -0.0425
 8648TIP3    H147435   6.253   4.810  15.020  0.5302 -0.6978 -0.2667
 8648TIP3    H247436   6.200   4.785  15.160  0.4184  1.5438  0.1263
 8649TIP3   OH247437   5.095   0.888  12.777 -0.9765 -0.3717 -0.2699
 8649TIP3    H147438   5.013   0.924  12.811 -1.5273 -1.8055  0.0167
 8649TIP3    H247439   5.080   0.793  12.774  1.3035 -0.8768  1.5400
 8650TIP3   OH247440   0.883   4.750   0.786 -0.3664 -0.1511  0.1557
 8650TIP3    H147441   0.913   4.774   0.874 -2.4171  0.9739  0.6178
 8650TIP3    H247442   0.866   4.656   0.791  1.8955 -0.6024  0.1813
 8651TIP3   OH247443   6.357   4.270   5.128  0.1301  0.2289 -0.1830
 8651TIP3    H147444   6.445   4.307   5.127 -0.0687  0.7358  0.4373
 8651TIP3    H247445   6.370   4.176   5.145  0.5254  0.3836  0.3678
 8652TIP3   OH247446   2.137   3.061  13.267  0.6484 -0.0934 -0.1048
 8652TIP3    H147447   2.105   3.144  13.231  0.7401  0.0531  0.1534
 8652TIP3    H247448   2.058   3.008  13.278  0.6741 -0.3483 -1.0451
 8653TIP3   OH247449   0.910   4.982   2.831  0.5889  0.4348  0.0208
 8653TIP3    H147450   0.841   4.951   2.889 -0.0271 -0.3581 -1.0894
 8653TIP3    H247451   0.965   4.905   2.815 -0.9232 -0.2325 -2.7239
 8654TIP3   OH247452   5.568   5.213   2.398  0.2710  0.2832  0.0833
 8654TIP3    H147453   5.523   5.238   2.478  1.1676 -1.1344  1.0761
 8654TIP3    H247454   5.660   5.234   2.414  0.5283 -0.4422 -0.3893
 8655TIP3   OH247455   6.568   6.713  12.013  0.0258  0.5685 -0.6499
 8655TIP3    H147456   6.557   6.805  12.036  0.4310  0.6358 -0.7131
 8655TIP3    H247457   6.499   6.696  11.949 -1.1080  0.3847  0.5843
 8656TIP3   OH247458   6.643   6.570  13.955  0.3477  0.4604 -0.4204
 8656TIP3    H147459   6.679   6.483  13.934 -0.2758 -0.0018  0.3594
 8656TIP3    H247460   6.652   6.577  14.050 -0.4821  0.8477 -0.3619
 8657TIP3   OH247461   6.205   4.126  13.814 -0.4691  0.5777 -0.4138
 8657TIP3    H147462   6.247   4.040  13.811 -2.4075 -0.5235  1.3471
 8657TIP3    H247463   6.226   4.166  13.729  3.9626  0.1922  0.2459
 8658TIP3   OH247464   1.285   1.174  15.692  0.2461  0.3467  0.6876
 8658TIP3    H147465   1.226   1.120  15.639  0.1224  0.2288  0.9413
 8658TIP3    H247466   1.227   1.218  15.755  0.1925  1.7028 -0.2801
 8659TIP3   OH247467   1.432   2.006  16.857  0.4834 -1.0567 -0.2709
 8659TIP3    H147468   1.352   1.961  16.829 -0.0772 -1.6221  2.0266
 8659TIP3    H247469   1.408   2.098  16.861  0.8445 -0.8217 -2.3735
 8660TIP3   OH247470   2.074   1.304  14.275  0.0896  0.1410  0.1719
 8660TIP3    H147471   2.121   1.332  14.197 -0.6704  0.8230 -0.0509
 8660TIP3    H247472   2.000   1.252  14.242 -2.1110  3.0414  0.1619
 8661TIP3   OH247473   2.112   5.007  15.933 -0.4001 -0.4377  0.2252
 8661TIP3    H147474   2.148   5.006  16.022  1.1306  0.7401 -0.3388
 8661TIP3    H247475   2.175   5.059  15.882 -1.5789 -0.5384 -1.4100
 8662TIP3   OH247476   0.778   1.630  15.007  0.1933 -0.5818 -0.0146
 8662TIP3    H147477   0.699   1.664  15.051 -1.2687 -1.6731 -1.6946
 8662TIP3    H247478   0.789   1.542  15.043  1.0281 -0.2331  0.6295
 8663TIP3   OH247479   0.127   0.325  12.950  0.0525 -0.3319  0.5709
 8663TIP3    H147480   0.117   0.230  12.960 -1.2606 -0.2977 -0.1869
 8663TIP3    H247481   0.057   0.362  13.004  0.9950  0.2512  1.4307
 8664TIP3   OH247482   0.537   6.105   3.705 -0.4028  0.0230 -0.0050
 8664TIP3    H147483   0.578   6.018   3.707  3.0741  1.5163  0.9686
 8664TIP3    H247484   0.483   6.103   3.626  0.9034 -2.4761 -0.9826
 8665TIP3   OH247485   3.689   6.667  16.243  0.5902  0.4615 -0.6602
 8665TIP3    H147486   3.722   6.716  16.318 -0.3935  1.0315 -0.5825
 8665TIP3    H247487   3.618   6.722  16.207  1.9939  0.9515 -2.9188
 8666TIP3   OH247488   5.352   5.856   4.524 -0.5270 -0.0304  0.0475
 8666TIP3    H147489   5.336   5.850   4.430  1.0669  1.4311 -0.3815
 8666TIP3    H247490   5.446   5.840   4.533  0.0649  3.2004  0.9130
 8667TIP3   OH247491   2.936   2.836  13.567 -0.0141  0.3774 -0.0256
 8667TIP3    H147492   2.936   2.789  13.484  0.1226 -0.5500  0.4889
 8667TIP3    H247493   2.853   2.812  13.608  0.9753 -1.1867  1.1944
 8668TIP3   OH247494   6.753   1.147   4.595  0.8054 -0.3810 -0.9812
 8668TIP3    H147495   6.771   1.105   4.679  0.4977  0.8324 -0.2915
 8668TIP3    H247496   6.738   1.075   4.535  0.8501 -1.2655  0.0457
 8669TIP3   OH247497   2.562   3.883  11.868  0.1160  0.1281  0.5592
 8669TIP3    H147498   2.495   3.818  11.853 -0.3641 -0.0579  3.0878
 8669TIP3    H247499   2.518   3.967  11.857  0.0076  0.0283  0.2142
 8670TIP3   OH247500   0.052   3.034   2.491  0.1474  0.5678 -0.7459
 8670TIP3    H147501   0.018   3.064   2.576 -1.2634 -0.9258 -0.7266
 8670TIP3    H247502  -0.000   2.956   2.471  0.0271  1.2063 -3.2738
 8671TIP3   OH247503   6.722   4.359   5.357  0.0794  0.3031  0.3411
 8671TIP3    H147504   6.678   4.290   5.406 -1.2782  0.2123 -0.9635
 8671TIP3    H247505   6.673   4.439   5.378  2.0559  1.1002  2.3973
 8672TIP3   OH247506   1.094   0.154   3.636  0.0035 -0.8205 -0.0993
 8672TIP3    H147507   1.028   0.085   3.629 -0.0927 -0.8887  1.1804
 8672TIP3    H247508   1.100   0.191   3.548 -3.4638  0.7885  0.1708
 8673TIP3   OH247509   5.565   4.145   3.220  0.5228 -0.0287 -0.5043
 8673TIP3    H147510   5.506   4.111   3.152  0.4914 -1.2072  0.0980
 8673TIP3    H247511   5.508   4.167   3.293  0.7976 -0.9717  0.0032
 8674TIP3   OH247512   4.809   1.550  11.763  0.1161  0.2313  0.0016
 8674TIP3    H147513   4.865   1.473  11.778 -0.2476 -0.0403 -0.0199
 8674TIP3    H247514   4.746   1.548  11.835  1.0149  1.3551  0.8517
 8675TIP3   OH247515   2.803   2.820   0.031  0.2421 -0.4172  0.0875
 8675TIP3    H147516   2.839   2.733   0.011  1.8848  0.5016 -1.2002
 8675TIP3    H247517   2.738   2.835  -0.038  2.1272  0.5744 -1.5484
 8676TIP3   OH247518   3.171   4.748   5.499  0.5167  0.0186 -0.2857
 8676TIP3    H147519   3.185   4.653   5.502  0.8636  0.0862  0.4331
 8676TIP3    H247520   3.083   4.760   5.535 -0.3522 -0.1806 -2.2443
 8677TIP3   OH247521   5.882   4.174  12.838 -0.2417  0.0435  0.0333
 8677TIP3    H147522   5.808   4.171  12.778 -0.4901 -0.1595  0.3522
 8677TIP3    H247523   5.915   4.084  12.840 -1.3431 -0.3590  1.5918
 8678TIP3   OH247524   6.643   0.517   5.029 -0.0906  0.0420  0.3103
 8678TIP3    H147525   6.580   0.447   5.008 -1.3438  1.0337  0.6499
 8678TIP3    H247526   6.728   0.472   5.033 -1.1331 -2.0017  3.1097
 8679TIP3   OH247527   2.957   0.016  15.840 -0.0264 -0.4807 -0.6026
 8679TIP3    H147528   3.009   0.037  15.919 -1.2269  1.4245 -0.2474
 8679TIP3    H247529   2.895  -0.050  15.869 -0.0186 -0.2818 -0.1209
 8680TIP3   OH247530   5.620   5.920  16.367 -0.3375  0.4509  0.2808
 8680TIP3    H147531   5.580   5.981  16.305  1.0642 -0.2753 -1.4386
 8680TIP3    H247532   5.620   5.836  16.320  0.1441 -0.2798  1.5535
 8681TIP3   OH247533   6.585   2.710  14.452  0.0858 -0.2772 -0.2556
 8681TIP3    H147534   6.596   2.804  14.438  0.1726 -0.4568 -1.5412
 8681TIP3    H247535   6.615   2.670  14.370 -0.0727 -1.4194  0.2206
 8682TIP3   OH247536   1.150   4.627   2.363  0.7811 -0.3755  0.4756
 8682TIP3    H147537   1.119   4.694   2.301 -0.3140  0.1696  1.5705
 8682TIP3    H247538   1.092   4.637   2.439  1.4920 -1.6651  1.2038
 8683TIP3   OH247539   4.784   5.783  10.920 -0.3074  0.2867  0.4080
 8683TIP3    H147540   4.724   5.850  10.887 -0.8501 -0.2455  0.3105
 8683TIP3    H247541   4.781   5.714  10.854  0.5464  0.3276  0.3151
 8684TIP3   OH247542   1.246   0.664  12.456 -0.5167  0.2861  0.6537
 8684TIP3    H147543   1.317   0.682  12.394 -1.1785  2.1956  0.3969
 8684TIP3    H247544   1.289   0.656  12.541  0.1396 -0.0029  0.3016
 8685TIP3   OH247545   1.125   2.512   1.805 -0.2137  0.2667 -0.0808
 8685TIP3    H147546   1.034   2.543   1.805 -0.7928 -1.3720  0.0113
 8685TIP3    H247547   1.155   2.529   1.716 -0.4404  1.2257  0.0063
 8686TIP3   OH247548   1.878   6.312  16.258  0.2000  0.0461  0.6237
 8686TIP3    H147549   1.793   6.315  16.213 -0.2924  1.2450  1.5642
 8686TIP3    H247550   1.933   6.257  16.203 -0.9620 -0.1037 -0.4188
 8687TIP3   OH247551   6.820   2.426  13.665 -0.6213 -0.1826 -0.4447
 8687TIP3    H147552   6.814   2.334  13.639  0.2248 -0.1622 -0.7507
 8687TIP3    H247553   6.860   2.469  13.589  0.2058  0.2034  0.2033
 8688TIP3   OH247554   4.357   2.950  12.834  0.6028  0.0747 -0.7874
 8688TIP3    H147555   4.331   3.016  12.898  3.4915 -0.3343  0.9919
 8688TIP3    H247556   4.453   2.949  12.837  0.7643 -4.1817 -0.6308
 8689TIP3   OH247557   1.155   3.687   1.880  0.2965  0.4445  0.1700
 8689TIP3    H147558   1.063   3.676   1.857  0.5637 -1.4791 -0.1967
 8689TIP3    H247559   1.202   3.677   1.798  0.9623 -1.4250  0.7201
 8690TIP3   OH247560   5.350   1.046   0.170  0.4388  0.1637 -0.3143
 8690TIP3    H147561   5.266   1.074   0.207  1.5612  0.5126  2.2276
 8690TIP3    H247562   5.412   1.112   0.200  1.6946 -0.2558 -1.8710
 8691TIP3   OH247563   6.769   5.118  15.446  0.3047 -0.1940 -0.2087
 8691TIP3    H147564   6.826   5.174  15.498  1.6934 -1.8763  0.1742
 8691TIP3    H247565   6.714   5.073  15.510 -1.0489  0.9153 -0.5357
 8692TIP3   OH247566   4.614   6.636  14.797 -0.2951 -0.4396 -0.0105
 8692TIP3    H147567   4.536   6.580  14.796  0.6110 -1.7363 -0.7875
 8692TIP3    H247568   4.644   6.632  14.888  0.6928 -2.6239 -0.3663
 8693TIP3   OH247569   5.353   6.220   1.139 -0.4185 -0.2812 -0.2408
 8693TIP3    H147570   5.369   6.295   1.196  2.4260 -2.0553  1.5427
 8693TIP3    H247571   5.258   6.219   1.127 -0.7556  2.3146  1.3849
 8694TIP3   OH247572   3.822   5.456  16.884 -0.1204 -0.6481 -0.2725
 8694TIP3    H147573   3.823   5.550  16.904 -0.4321 -0.1246 -2.4370
 8694TIP3    H247574   3.730   5.436  16.867 -0.0845 -1.4034  0.3871
 8695TIP3   OH247575   0.477   4.889  14.438  0.8327  0.0111  0.4780
 8695TIP3    H147576   0.482   4.976  14.479 -0.1071 -0.3494  1.4121
 8695TIP3    H247577   0.490   4.828  14.510 -0.4860 -0.6452  0.1903
 8696TIP3   OH247578   1.531   2.488   5.531 -0.1609  0.0828 -0.1947
 8696TIP3    H147579   1.534   2.562   5.469 -1.4465 -0.2036 -0.6187
 8696TIP3    H247580   1.537   2.411   5.475  1.7380 -0.1651  0.2886
 8697TIP3   OH247581   3.989   0.700   2.463 -1.1377  0.0724  0.1241
 8697TIP3    H147582   3.976   0.607   2.480 -2.0704  0.2310  0.3201
 8697TIP3    H247583   3.999   0.739   2.549 -1.2875  0.2303  0.0695
 8698TIP3   OH247584   5.783   6.099  12.564 -0.2544  0.3721  0.0546
 8698TIP3    H147585   5.770   6.176  12.619 -0.2247 -0.0043  0.5948
 8698TIP3    H247586   5.873   6.072  12.582 -0.8663 -0.9364  1.3697
 8699TIP3   OH247587   5.482   3.543  16.918 -0.3971  0.1836  0.1356
 8699TIP3    H147588   5.564   3.498  16.899 -0.6018  0.2481 -0.9283
 8699TIP3    H247589   5.458   3.513  17.006 -0.7736 -2.1572 -0.6988
 8700TIP3   OH247590   2.642   0.701  14.461  0.2672  0.0478 -0.9128
 8700TIP3    H147591   2.679   0.679  14.546 -0.0388 -1.8931 -1.2408
 8700TIP3    H247592   2.699   0.657  14.398  0.0878  0.8979 -1.6956
 8701TIP3   OH247593   5.852   1.213   0.768  0.5603 -0.1830 -0.1260
 8701TIP3    H147594   5.884   1.175   0.850  1.7987  0.7021 -0.1634
 8701TIP3    H247595   5.875   1.306   0.775 -2.7689  0.7286  0.1654
 8702TIP3   OH247596   5.157   0.456   1.490  0.5983 -0.2172  0.4247
 8702TIP3    H147597   5.241   0.418   1.516  0.6632 -0.5579 -0.2614
 8702TIP3    H247598   5.175   0.498   1.406  0.0809 -0.3189  0.2604
 8703TIP3   OH247599   5.097   4.842  13.848 -0.7260 -0.0092  0.1995
 8703TIP3    H147600   5.103   4.794  13.931  0.9877  1.8611  1.2680
 8703TIP3    H247601   5.175   4.815  13.799 -1.8820 -1.3279 -1.0084
 8704TIP3   OH247602   2.835   4.516  17.116  0.2176 -0.3435 -0.0761
 8704TIP3    H147603   2.803   4.440  17.068 -2.2819  0.4016  0.2382
 8704TIP3    H247604   2.824   4.492  17.208 -0.9182  0.4585  0.0259
 8705TIP3   OH247605   0.493   3.810   1.718 -0.3722 -0.2703  1.0248
 8705TIP3    H147606   0.416   3.864   1.737 -1.4951 -1.2569 -0.5069
 8705TIP3    H247607   0.482   3.732   1.772 -0.4888 -0.4550  0.7325
 8706TIP3   OH247608   0.838   1.940  11.602 -0.0978 -0.1967 -0.0740
 8706TIP3    H147609   0.746   1.948  11.576  0.0488 -2.2914 -1.5226
 8706TIP3    H247610   0.835   1.902  11.691 -0.6348  0.0563  0.0150
 8707TIP3   OH247611   3.238   3.030   0.786 -0.4492 -0.1448  0.0533
 8707TIP3    H147612   3.164   3.046   0.844 -0.9706  0.3506 -0.7340
 8707TIP3    H247613   3.274   3.117   0.768  0.8337 -0.4381  1.0655
 8708TIP3   OH247614   4.109   4.226  14.767 -0.5238 -0.1825  0.0027
 8708TIP3    H147615   4.164   4.215  14.845  1.0848  0.3570 -1.0094
 8708TIP3    H247616   4.131   4.152  14.711 -0.2751  0.4309 -0.7257
 8709TIP3   OH247617   3.594   4.354   4.810 -0.0540 -0.0989  0.1190
 8709TIP3    H147618   3.621   4.317   4.726  1.3809 -0.9018  0.8975
 8709TIP3    H247619   3.627   4.444   4.808 -0.2930 -0.0178 -0.2925
 8710TIP3   OH247620   2.260   3.681  14.431  0.2457 -0.1489  0.0940
 8710TIP3    H147621   2.331   3.628  14.394 -0.5503 -0.8037 -0.5138
 8710TIP3    H247622   2.201   3.696  14.358  1.1268  2.8010 -0.1275
 8711TIP3   OH247623   2.633   1.832   5.639 -0.0884  0.5246 -0.0113
 8711TIP3    H147624   2.701   1.798   5.697 -0.6786 -0.8504 -0.0946
 8711TIP3    H247625   2.632   1.927   5.656 -0.4872  0.1414  2.4855
 8712TIP3   OH247626   1.912   1.009   4.161 -0.3022  0.8364  0.0346
 8712TIP3    H147627   1.982   0.988   4.223 -0.6717 -0.7692 -0.0422
 8712TIP3    H247628   1.957   1.024   4.078 -0.0147 -0.2670 -0.0371
 8713TIP3   OH247629   1.064   2.058  11.478 -0.2695 -0.0613  0.0774
 8713TIP3    H147630   0.980   2.104  11.475  0.2776  0.9693  0.4173
 8713TIP3    H247631   1.042   1.972  11.516 -0.8592  0.9621  2.2272
 8714TIP3   OH247632   2.202   4.867   2.529 -0.0904 -0.0015  0.7923
 8714TIP3    H147633   2.204   4.803   2.600 -1.3432 -1.0159 -0.0515
 8714TIP3    H247634   2.213   4.815   2.450  0.1037  0.9818  0.1625
 8715TIP3   OH247635   1.564   5.930  12.376  0.4484 -0.1748 -0.5515
 8715TIP3    H147636   1.625   5.891  12.439  1.9302  0.5100 -1.5321
 8715TIP3    H247637   1.619   5.980  12.316 -1.2859  3.2258  0.4321
 8716TIP3   OH247638   3.880   3.519   3.932 -0.6869  0.0714 -0.4687
 8716TIP3    H147639   3.870   3.479   4.018  0.2254  1.7702  0.4770
 8716TIP3    H247640   3.793   3.513   3.892 -0.9524 -1.3494  0.2718
 8717TIP3   OH247641   3.079   2.133   2.967  0.2204 -0.0120  0.1161
 8717TIP3    H147642   3.131   2.212   2.952  1.9965 -1.0654  0.5149
 8717TIP3    H247643   3.085   2.085   2.884  1.5500 -1.0421  0.7729
 8718TIP3   OH247644   2.857   1.659   1.046 -0.3332  0.1763  0.6024
 8718TIP3    H147645   2.827   1.605   1.119 -0.1932  0.4709  0.8818
 8718TIP3    H247646   2.833   1.748   1.070 -0.4660  0.2517  0.1946
 8719TIP3   OH247647   0.382   5.057  10.715 -0.1307 -0.4217  0.4088
 8719TIP3    H147648   0.336   5.085  10.795 -1.3123 -0.3383 -0.2790
 8719TIP3    H247649   0.331   4.982  10.683 -0.3920  0.2907 -0.9113
 8720TIP3   OH247650   3.529   0.755  14.423 -0.2032  0.1646 -0.2045
 8720TIP3    H147651   3.575   0.802  14.493 -1.0180 -0.6205  0.8856
 8720TIP3    H247652   3.438   0.781  14.433 -0.1014  1.5340 -2.2088
 8721TIP3   OH247653   6.553   0.564   3.084  0.2330 -0.4604  0.0160
 8721TIP3    H147654   6.458   0.569   3.094 -0.1507  0.4180 -3.1547
 8721TIP3    H247655   6.571   0.603   2.999  3.7866  2.2076  1.7066
 8722TIP3   OH247656   4.329   4.740  12.753  0.6090  0.2403 -0.2981
 8722TIP3    H147657   4.292   4.775  12.834  0.6513  0.5747 -0.4209
 8722TIP3    H247658   4.330   4.815  12.693  0.5685 -0.0087 -0.6094
 8723TIP3   OH247659   0.989   3.322  14.100 -0.3743 -0.1253  0.6510
 8723TIP3    H147660   0.950   3.266  14.168  0.5308 -1.7831 -0.1378
 8723TIP3    H247661   1.072   3.350  14.137 -1.2346  1.5247  1.4190
 8724TIP3   OH247662   6.785   3.361   3.618  0.4560 -0.6644  0.0369
 8724TIP3    H147663   6.867   3.408   3.602  0.5985 -0.9133  0.0430
 8724TIP3    H247664   6.795   3.323   3.705  0.2829 -0.5888  0.0912
 8725TIP3   OH247665   3.258   5.923  13.215  0.0566  0.1093  0.9925
 8725TIP3    H147666   3.227   5.909  13.126 -0.1313  1.6733  0.7940
 8725TIP3    H247667   3.353   5.910  13.211  0.3422  2.1258  0.1042
 8726TIP3   OH247668   2.294   2.331  16.772  0.1555 -0.2768  0.6283
 8726TIP3    H147669   2.325   2.268  16.706 -3.6299 -0.0172 -1.6929
 8726TIP3    H247670   2.253   2.401  16.721  0.2778  1.9037  3.2678
 8727TIP3   OH247671   0.345   2.063  12.319  0.2179 -0.4601  0.9439
 8727TIP3    H147672   0.267   2.116  12.308  0.5662 -0.3848 -2.0781
 8727TIP3    H247673   0.418   2.123  12.304  0.7043 -1.2064  0.1980
 8728TIP3   OH247674   6.089   2.041  12.085 -0.0014  0.2064  0.2919
 8728TIP3    H147675   6.129   2.119  12.047 -0.8609  0.5194  0.0190
 8728TIP3    H247676   6.079   1.980  12.012 -0.9721  0.5281  0.1410
 8729TIP3   OH247677   6.658   1.087  11.053 -0.1408  0.3915  0.5223
 8729TIP3    H147678   6.693   1.176  11.047  0.3357  0.1871  0.2266
 8729TIP3    H247679   6.563   1.099  11.060 -0.0582  0.9310  0.7838
 8730TIP3   OH247680   1.803   2.531  15.339 -0.2022 -0.2838 -0.7797
 8730TIP3    H147681   1.815   2.621  15.309 -1.0004 -0.2031 -0.8690
 8730TIP3    H247682   1.756   2.488  15.268 -1.6403 -0.2315  0.0932
 8731TIP3   OH247683   5.543   4.633   0.317  0.1926 -0.3591 -0.3624
 8731TIP3    H147684   5.509   4.721   0.334 -0.4108  0.0831 -3.3788
 8731TIP3    H247685   5.502   4.607   0.235  1.8311 -2.7002 -0.5192
 8732TIP3   OH247686   3.932   2.786  10.497 -0.0006  0.6001  0.0653
 8732TIP3    H147687   3.888   2.701  10.505 -2.3700  1.6002 -1.0922
 8732TIP3    H247688   3.992   2.774  10.423 -1.5083  0.3053 -1.1889
 8733TIP3   OH247689   0.787   6.077  11.126  0.3117  0.0296 -0.3661
 8733TIP3    H147690   0.807   6.024  11.204  1.5109  0.4218 -0.3774
 8733TIP3    H247691   0.820   6.025  11.053 -1.2774 -0.5691 -0.6795
 8734TIP3   OH247692   3.108   2.202  16.047  0.4185  0.0726  0.2121
 8734TIP3    H147693   3.015   2.182  16.052  0.3421  0.3494 -0.0586
 8734TIP3    H247694   3.144   2.169  16.129  0.2870 -1.0777 -0.1760
 8735TIP3   OH247695   6.015   4.131   2.664 -0.2045  0.1760 -0.1280
 8735TIP3    H147696   5.955   4.149   2.737 -0.9074  1.3754 -0.9543
 8735TIP3    H247697   5.959   4.135   2.586  0.5285 -1.0968 -0.7467
 8736TIP3   OH247698   6.835   3.367  10.424  0.5073  0.0695 -0.2286
 8736TIP3    H147699   6.849   3.343  10.332  0.2368 -0.4982 -0.1272
 8736TIP3    H247700   6.903   3.431  10.443  1.6395 -1.0780 -0.3303
 8737TIP3   OH247701   6.294   5.391   1.152  0.1190  0.0894  0.2611
 8737TIP3    H147702   6.276   5.320   1.090 -0.2925 -1.0058  1.6056
 8737TIP3    H247703   6.387   5.410   1.141  0.2255 -0.6409 -0.1193
 8738TIP3   OH247704   5.045   6.067  16.948  0.1455  0.4952 -0.4247
 8738TIP3    H147705   4.983   6.120  16.899 -1.3638  0.9391  1.8320
 8738TIP3    H247706   5.013   5.977  16.939 -0.4385  0.6396  0.1388
 8739TIP3   OH247707   0.315   3.141  13.760 -0.2943  0.2936  0.4564
 8739TIP3    H147708   0.359   3.199  13.822  0.0158 -0.0507  0.5661
 8739TIP3    H247709   0.375   3.066  13.752 -0.3231  0.3493 -0.2768
 8740TIP3   OH247710   5.956   5.439   1.043 -0.8247 -0.4636 -0.4501
 8740TIP3    H147711   5.983   5.530   1.055 -2.3613  0.0327 -0.4719
 8740TIP3    H247712   5.885   5.444   0.978 -1.6035 -1.5560  0.2869
 8741TIP3   OH247713   3.007   5.192  11.492  0.5693 -0.3337 -0.0459
 8741TIP3    H147714   2.981   5.162  11.579  0.7980  1.7338  0.7776
 8741TIP3    H247715   3.101   5.177  11.488  0.8371  0.9871  0.7066
 8742TIP3   OH247716   1.383   1.386   2.212 -0.1458 -0.1961  0.1368
 8742TIP3    H147717   1.372   1.426   2.298 -0.9444 -2.3434  1.1000
 8742TIP3    H247718   1.383   1.460   2.151  1.1730  1.4544  1.9885
 8743TIP3   OH247719   3.947   1.922  11.565 -0.1696  0.3249 -0.2289
 8743TIP3    H147720   4.036   1.889  11.560 -0.3437 -0.3308  0.7818
 8743TIP3    H247721   3.935   1.944  11.657 -1.0798  0.3405 -0.3451
 8744TIP3   OH247722   6.050   4.118   1.523  0.6048 -0.2924 -0.0903
 8744TIP3    H147723   6.001   4.036   1.533  0.4958 -0.0484  1.8366
 8744TIP3    H247724   6.139   4.090   1.501  0.1863 -0.8320 -1.1786
 8745TIP3   OH247725   3.450   6.047   2.219 -0.3806  0.2145 -0.1154
 8745TIP3    H147726   3.472   6.065   2.310  0.4973  2.1892 -0.6762
 8745TIP3    H247727   3.406   5.962   2.222  1.3713 -0.7349  1.9029
 8746TIP3   OH247728   1.295   2.202  16.537  0.5181  0.4436  0.3816
 8746TIP3    H147729   1.260   2.280  16.494  1.7119  1.0779  0.5082
 8746TIP3    H247730   1.265   2.209  16.627  0.5241  0.7125  0.3647
 8747TIP3   OH247731   2.887   1.343  14.021 -0.0082 -0.6543  0.3960
 8747TIP3    H147732   2.881   1.348  13.925  1.2512 -0.1467  0.3241
 8747TIP3    H247733   2.863   1.431  14.050  0.7783 -0.4546  0.4637
 8748TIP3   OH247734   1.577   5.040  10.848 -0.2832  0.4144  0.0560
 8748TIP3    H147735   1.658   5.087  10.871 -0.2606 -0.5149  2.0591
 8748TIP3    H247736   1.512   5.075  10.909 -0.7534 -0.6708  0.1922
 8749TIP3   OH247737   6.480   3.088  15.533  0.4558 -0.3512 -0.2590
 8749TIP3    H147738   6.450   3.000  15.513  1.6809 -1.1222  1.0457
 8749TIP3    H247739   6.403   3.133  15.568 -0.2836 -0.7361 -1.3508
 8750TIP3   OH247740   1.620   0.331  15.148 -0.3067 -0.6131  0.5137
 8750TIP3    H147741   1.574   0.351  15.067  2.4406 -1.7944 -1.5243
 8750TIP3    H247742   1.588   0.396  15.211 -2.0712  0.7927 -1.6714
 8751TIP3   OH247743   2.891   2.063  17.032 -0.2782  0.4077  0.4733
 8751TIP3    H147744   2.900   1.970  17.012  0.0285  0.0326  2.2168
 8751TIP3    H247745   2.805   2.087  16.998  0.1917 -0.1536 -1.2095
 8752TIP3   OH247746   6.292   3.183   4.079  0.5036  0.4417  0.4682
 8752TIP3    H147747   6.244   3.145   4.152 -0.0331  0.6067  0.2073
 8752TIP3    H247748   6.234   3.172   4.004  1.6611 -1.0693 -0.2572
 8753TIP3   OH247749   5.307   1.961  14.585  0.0703  0.1453 -0.3741
 8753TIP3    H147750   5.390   2.007  14.594 -0.0567  0.1587  0.9814
 8753TIP3    H247751   5.241   2.026  14.611 -0.0269 -1.0759  2.7988
 8754TIP3   OH247752   0.489   5.188   5.913  0.1890  0.0904 -0.5967
 8754TIP3    H147753   0.536   5.106   5.932 -1.2635 -0.8372 -0.8925
 8754TIP3    H247754   0.518   5.248   5.982  1.7278 -0.4656 -0.7142
 8755TIP3   OH247755   3.164   2.011  11.751 -0.5393 -0.5416  0.0595
 8755TIP3    H147756   3.177   2.085  11.691 -0.9064 -0.1123  0.4985
 8755TIP3    H247757   3.069   2.009  11.765 -0.5178 -1.0301  0.1395
 8756TIP3   OH247758   4.804   2.694  15.810 -0.0653 -0.1542  0.2532
 8756TIP3    H147759   4.852   2.615  15.834  1.2811  0.6013  0.1500
 8756TIP3    H247760   4.855   2.766  15.848 -0.1840  0.8048 -1.3232
 8757TIP3   OH247761   0.029   6.175   4.117 -0.2458  0.6552  0.3807
 8757TIP3    H147762  -0.005   6.257   4.152 -0.4896  0.9800 -0.6150
 8757TIP3    H247763  -0.047   6.129   4.081  0.0857  0.5816 -0.2407
 8758TIP3   OH247764   5.769   5.475   5.264  0.1599 -0.8234  0.5005
 8758TIP3    H147765   5.809   5.461   5.349  1.8644  0.9039  0.0480
 8758TIP3    H247766   5.833   5.442   5.201 -0.0486  0.0439 -0.1882
 8759TIP3   OH247767   4.542   0.871  16.357  0.3623  0.4538  0.3456
 8759TIP3    H147768   4.530   0.903  16.446 -3.0365 -0.7450  0.4652
 8759TIP3    H247769   4.540   0.951  16.303  0.9911  1.0753  1.2212
 8760TIP3   OH247770   0.627   0.551   3.396  0.0839 -0.2134 -0.4065
 8760TIP3    H147771   0.642   0.457   3.386  0.8154  0.1047 -2.9766
 8760TIP3    H247772   0.544   0.566   3.351  0.6229  0.5366 -1.1789
 8761TIP3   OH247773   0.193   4.256  14.581 -0.0389 -0.3883 -0.3806
 8761TIP3    H147774   0.107   4.271  14.542  0.2857 -1.3078 -1.4788
 8761TIP3    H247775   0.200   4.161  14.590  0.4472 -0.2654  0.6753
 8762TIP3   OH247776   0.971   4.189  12.773 -0.0680 -0.1142  0.0695
 8762TIP3    H147777   0.995   4.097  12.763  0.6380  0.0476  0.2599
 8762TIP3    H247778   0.958   4.221  12.684 -1.4220 -0.6800  0.0380
 8763TIP3   OH247779   1.757   4.324  16.416 -0.3199 -0.2669  0.1436
 8763TIP3    H147780   1.771   4.416  16.391 -0.1451 -0.3352 -0.0140
 8763TIP3    H247781   1.846   4.289  16.426 -0.3869 -0.3848  0.3317
 8764TIP3   OH247782   2.077   4.461  10.924 -0.0260 -0.7018  0.9761
 8764TIP3    H147783   2.138   4.526  10.958  0.0083  0.0010 -0.3546
 8764TIP3    H247784   1.995   4.508  10.912 -0.0781 -0.9565  0.2558
 8765TIP3   OH247785   4.616   2.421  15.986 -0.3434 -0.2070 -0.6735
 8765TIP3    H147786   4.665   2.348  16.024 -0.2300  0.2074 -0.0002
 8765TIP3    H247787   4.597   2.478  16.061 -0.7604  0.2630 -1.1302
 8766TIP3   OH247788   4.218   3.993   1.985  0.1184 -0.6643 -0.9597
 8766TIP3    H147789   4.312   3.979   1.974  0.2296  0.1758 -1.1159
 8766TIP3    H247790   4.189   4.032   1.903 -0.0497  0.6235 -0.3231
 8767TIP3   OH247791   5.517   3.700  12.167  0.1753 -0.7084 -0.3523
 8767TIP3    H147792   5.545   3.790  12.151 -0.9633 -0.3615 -0.5189
 8767TIP3    H247793   5.563   3.674  12.247  1.9079 -0.6276 -1.2819
 8768TIP3   OH247794   2.424   2.322   5.248 -0.3998 -0.5394  0.2775
 8768TIP3    H147795   2.474   2.243   5.227  0.5908  0.6218 -2.1712
 8768TIP3    H247796   2.491   2.388   5.268 -1.0612  0.3486 -0.3482
 8769TIP3   OH247797   4.902   6.784   1.418 -0.0501 -0.5078 -0.2924
 8769TIP3    H147798   4.847   6.833   1.479  0.6673 -0.4754  0.3316
 8769TIP3    H247799   4.907   6.696   1.456  0.5384 -0.4425 -0.2247
 8770TIP3   OH247800   2.566   6.434   3.828 -0.3526  0.1204  0.6709
 8770TIP3    H147801   2.606   6.457   3.911 -1.5213  0.8760  1.0305
 8770TIP3    H247802   2.472   6.438   3.843 -0.6140 -1.3752 -0.2349
 8771TIP3   OH247803   4.345   5.015   4.000  0.3568  0.5598 -0.8825
 8771TIP3    H147804   4.263   5.042   3.960 -0.3144 -0.7382 -0.4405
 8771TIP3    H247805   4.329   4.926   4.031  1.8772  0.3379 -0.6303
 8772TIP3   OH247806   3.531   3.873  11.936 -0.5896 -0.0420  0.6066
 8772TIP3    H147807   3.619   3.861  11.973 -0.4465 -0.7522  0.0536
 8772TIP3    H247808   3.541   3.852  11.843 -1.3015  0.0739  0.5008
 8773TIP3   OH247809   3.414   3.085   1.379  0.8913 -0.2629  0.1510
 8773TIP3    H147810   3.369   3.011   1.339 -1.7077  1.6189 -0.7041
 8773TIP3    H247811   3.463   3.124   1.307  0.6756 -0.0457  0.1205
 8774TIP3   OH247812   1.070   1.725  11.423  0.6399 -0.5219 -0.1455
 8774TIP3    H147813   1.160   1.736  11.391  0.6108  2.2830  0.4478
 8774TIP3    H247814   1.031   1.811  11.411 -1.4784 -1.2546  1.1375
 8775TIP3   OH247815   6.432   5.180   3.446  0.1954  0.3042 -0.6758
 8775TIP3    H147816   6.461   5.213   3.361  1.2386  1.1985  0.0008
 8775TIP3    H247817   6.411   5.259   3.497 -0.3379 -0.2110 -0.0674
 8776TIP3   OH247818   1.283   3.157   4.701  1.0986  0.0247  0.3483
 8776TIP3    H147819   1.290   3.209   4.621 -0.5356 -0.1916  0.0354
 8776TIP3    H247820   1.371   3.122   4.715  1.1710 -0.8772 -2.0146
 8777TIP3   OH247821   4.076   6.358  10.610  0.0501 -0.1114 -0.3185
 8777TIP3    H147822   4.014   6.426  10.585 -0.4903 -0.6619 -0.4957
 8777TIP3    H247823   4.155   6.377  10.560  0.0285  0.5830 -0.1042
 8778TIP3   OH247824   5.296   3.177  10.542  0.1886  0.4988  0.7699
 8778TIP3    H147825   5.213   3.161  10.497  0.8171 -1.8439  0.3226
 8778TIP3    H247826   5.346   3.231  10.481 -0.2771  0.2705  0.1699
 8779TIP3   OH247827   0.206   4.931  12.566  0.4770  0.1430  0.0727
 8779TIP3    H147828   0.282   4.968  12.610 -0.0451  0.6471  0.5638
 8779TIP3    H247829   0.234   4.845  12.537  1.5987  0.7586 -0.7531
 8780TIP3   OH247830   4.200   5.870   2.432 -0.0335 -0.1512 -0.3042
 8780TIP3    H147831   4.211   5.964   2.444 -0.7274  0.1091 -1.6072
 8780TIP3    H247832   4.206   5.856   2.338  0.6276 -1.4996 -0.1008
 8781TIP3   OH247833   0.843   5.840   2.714 -0.2078 -0.2159 -0.2737
 8781TIP3    H147834   0.800   5.754   2.719 -0.4851 -0.1388 -1.1256
 8781TIP3    H247835   0.791   5.889   2.650  0.2849  0.3907 -0.2176
 8782TIP3   OH247836   0.371   0.745   0.411 -0.1201  0.5695  0.5928
 8782TIP3    H147837   0.431   0.804   0.457 -0.7910  0.3762  1.7782
 8782TIP3    H247838   0.386   0.659   0.451  0.5746 -0.0033 -0.8520
 8783TIP3   OH247839   3.608   5.357  12.690  0.0654  0.1081  0.5044
 8783TIP3    H147840   3.638   5.417  12.758  0.9003  0.6887 -0.3356
 8783TIP3    H247841   3.589   5.414  12.615  1.2145 -0.6870 -0.4275
 8784TIP3   OH247842   2.769   6.017   4.321  0.6089 -0.5271  0.1573
 8784TIP3    H147843   2.779   5.930   4.284  2.3292 -0.3327  0.0588
 8784TIP3    H247844   2.687   6.014   4.369 -0.0994 -1.7371 -1.0713
 8785TIP3   OH247845   2.084   2.169  11.736 -0.4578 -0.1067 -0.0330
 8785TIP3    H147846   2.152   2.139  11.676 -0.4050 -1.1239  0.4930
 8785TIP3    H247847   2.031   2.231  11.686  0.5130  0.2498 -0.6241
 8786TIP3   OH247848   2.189   6.352   2.051  0.4369  0.0162 -0.1834
 8786TIP3    H147849   2.137   6.272   2.059  1.3172 -0.5514 -0.0007
 8786TIP3    H247850   2.209   6.377   2.141 -2.8875  2.5564  0.0544
 8787TIP3   OH247851   4.548   3.151  11.782 -0.2162 -0.4372  0.3951
 8787TIP3    H147852   4.613   3.156  11.711  1.2475  0.4266  1.7207
 8787TIP3    H247853   4.596   3.111  11.855 -1.1421  0.3293  1.4449
 8788TIP3   OH247854   1.642   0.590  12.599  0.0174  0.3761  0.0315
 8788TIP3    H147855   1.579   0.660  12.616  0.2651  0.9906 -1.4640
 8788TIP3    H247856   1.594   0.528  12.544 -0.0902 -0.4748  1.0600
 8789TIP3   OH247857   6.142   2.835  13.142 -0.0800 -0.4011  0.0637
 8789TIP3    H147858   6.131   2.870  13.231 -0.0891  0.3654 -0.2318
 8789TIP3    H247859   6.237   2.830  13.130 -0.0675  0.2910 -0.1796
 8790TIP3   OH247860   6.404   2.904   0.114  0.3195 -0.2392 -0.7228
 8790TIP3    H147861   6.444   2.977   0.161 -1.2661 -0.8383  1.7441
 8790TIP3    H247862   6.438   2.826   0.158 -1.4932 -0.8084 -0.2342
 8791TIP3   OH247863   2.564   4.907   6.074  0.0120 -0.4223  0.1592
 8791TIP3    H147864   2.589   4.929   6.164 -0.3576  0.0103  0.1647
 8791TIP3    H247865   2.517   4.985   6.043 -1.9191 -1.4260  0.3973
 8792TIP3   OH247866   5.141   3.553  11.913 -0.0466  0.3147  0.5381
 8792TIP3    H147867   5.156   3.459  11.926  2.0554  0.5809  0.4427
 8792TIP3    H247868   5.222   3.584  11.874 -0.8422  2.1262  0.2596
 8793TIP3   OH247869   0.279   6.714   0.507 -0.2481 -0.1083 -0.0381
 8793TIP3    H147870   0.255   6.772   0.434  0.3308 -1.4599 -1.3586
 8793TIP3    H247871   0.221   6.639   0.498 -0.2986 -0.2080  1.0401
 8794TIP3   OH247872   4.865   2.546  15.034 -0.2250 -0.2602  0.1257
 8794TIP3    H147873   4.831   2.495  14.961  1.1874 -0.1960 -0.6265
 8794TIP3    H247874   4.905   2.623  14.993 -0.4614  0.3875  1.0743
 8795TIP3   OH247875   0.962   4.238  13.351  0.2812 -0.2602 -0.3175
 8795TIP3    H147876   0.901   4.308  13.330  0.7353  0.8319  1.7718
 8795TIP3    H247877   0.930   4.163  13.301 -1.7398  0.7333 -0.6166
 8796TIP3   OH247878   0.586   1.671   6.172 -0.2479 -0.2531  0.5080
 8796TIP3    H147879   0.583   1.606   6.242 -0.7530 -0.5790  0.1861
 8796TIP3    H247880   0.666   1.649   6.123 -0.4799 -0.7060  0.3285
 8797TIP3   OH247881   6.301   6.530   1.278  0.4738  0.1034 -0.0042
 8797TIP3    H147882   6.228   6.497   1.332  0.2878 -0.2084 -0.4351
 8797TIP3    H247883   6.379   6.514   1.331  0.4761 -1.7845 -0.5051
 8798TIP3   OH247884   2.523   3.777  12.274 -0.4308 -0.3389 -0.1010
 8798TIP3    H147885   2.577   3.768  12.352 -2.0669  1.5564  1.3739
 8798TIP3    H247886   2.583   3.806  12.205  0.9179 -1.3163  0.6387
 8799TIP3   OH247887   0.550   6.730   4.152  0.1068 -0.2477  0.3714
 8799TIP3    H147888   0.502   6.767   4.226 -0.0476 -0.4418  0.3687
 8799TIP3    H247889   0.611   6.799   4.126  0.2733 -0.2348  0.7801
 8800TIP3   OH247890   1.449   6.171  14.511  0.3954  0.3474  0.0938
 8800TIP3    H147891   1.463   6.201  14.601 -0.6464 -0.3633  0.5053
 8800TIP3    H247892   1.536   6.143  14.481  0.7435  0.5677  0.8830
 8801TIP3   OH247893   2.468   1.521   4.062 -0.4139  0.0034  0.0814
 8801TIP3    H147894   2.516   1.514   4.144 -0.9890 -0.9619  0.3466
 8801TIP3    H247895   2.378   1.502   4.085 -0.6420  0.0813 -0.7135
 8802TIP3   OH247896   2.359   1.968  14.300  0.5425  0.7302  0.2854
 8802TIP3    H147897   2.418   1.967  14.224  1.1843  0.9459  0.7692
 8802TIP3    H247898   2.365   1.879  14.336 -0.8928  0.1775 -0.7495
 8803TIP3   OH247899   0.848   6.205  11.620  0.5766  0.8487 -0.2730
 8803TIP3    H147900   0.918   6.174  11.678  1.2869  3.4944  0.3855
 8803TIP3    H247901   0.862   6.299  11.613 -0.3812  0.8615 -3.6006
 8804TIP3   OH247902   4.625   6.418  16.848 -0.0468  0.0565  0.4894
 8804TIP3    H147903   4.594   6.344  16.901 -0.4023  0.3055  0.6321
 8804TIP3    H247904   4.627   6.384  16.759 -1.2173  0.1781  0.4018
 8805TIP3   OH247905   3.500   4.781   2.656  0.1015 -0.5096 -0.3390
 8805TIP3    H147906   3.472   4.860   2.610  0.6617 -0.5497 -0.7676
 8805TIP3    H247907   3.595   4.780   2.645  0.2883 -0.3461  1.1229
 8806TIP3   OH247908   4.988   1.894   5.086 -0.1174  0.8577  0.2095
 8806TIP3    H147909   4.925   1.863   5.020 -0.2918  1.6823 -0.0205
 8806TIP3    H247910   4.939   1.960   5.136  0.3037  0.8958  0.5716
 8807TIP3   OH247911   2.973   0.663   4.807 -0.8948 -0.0799 -0.0853
 8807TIP3    H147912   3.038   0.605   4.767 -0.3097 -0.7529  1.7560
 8807TIP3    H247913   2.892   0.612   4.808 -0.8989 -0.0786 -0.3638
 8808TIP3   OH247914   6.826   0.415   3.275 -0.3663  0.1517  0.4655
 8808TIP3    H147915   6.839   0.343   3.336 -0.6126 -0.0044  0.3343
 8808TIP3    H247916   6.800   0.373   3.193  1.0943  0.2680 -0.0908
 8809TIP3   OH247917   6.694   1.630  11.561  0.0542  0.7089 -0.0598
 8809TIP3    H147918   6.774   1.682  11.559  2.4036 -2.5366  1.0010
 8809TIP3    H247919   6.673   1.613  11.470  1.1306  0.8216 -0.3345
 8810TIP3   OH247920   2.907   1.268  10.437  0.3471 -0.6308 -0.5392
 8810TIP3    H147921   2.961   1.220  10.499  0.4811  1.0571  0.7110
 8810TIP3    H247922   2.940   1.241  10.351  2.0282 -0.9154  0.1625
 8811TIP3   OH247923   6.463   0.051   2.947 -0.1613 -0.5624 -0.0978
 8811TIP3    H147924   6.440   0.143   2.933  1.3006 -0.5724 -3.3425
 8811TIP3    H247925   6.525   0.053   3.020  0.1294  1.0553 -0.3593
 8812TIP3   OH247926   2.236   4.955   3.837 -0.0835 -0.3741 -0.0075
 8812TIP3    H147927   2.241   5.039   3.791  0.4142 -0.6904 -0.5361
 8812TIP3    H247928   2.251   4.978   3.929 -0.6089  0.2003 -0.0537
 8813TIP3   OH247929   1.455   5.623   5.395  0.2843 -0.0743  0.1827
 8813TIP3    H147930   1.531   5.572   5.370 -0.1364 -0.4197 -0.4242
 8813TIP3    H247931   1.387   5.597   5.332  0.2671  1.7814 -0.6118
 8814TIP3   OH247932   5.969   6.481   1.498 -0.3282 -0.6583 -0.6095
 8814TIP3    H147933   5.980   6.396   1.456 -1.8612 -0.7659 -0.8616
 8814TIP3    H247934   5.874   6.489   1.511  0.0460 -0.5127  2.6530
 8815TIP3   OH247935   2.217   6.557  12.512 -0.0205 -0.3251  0.1162
 8815TIP3    H147936   2.125   6.570  12.530  0.3574  0.4734  1.6219
 8815TIP3    H247937   2.241   6.627  12.452 -0.4581 -0.7694 -0.5936
 8816TIP3   OH247938   1.665   6.456   2.759  0.2409 -0.1369  0.0522
 8816TIP3    H147939   1.595   6.399   2.729 -1.0595  1.4128  0.0005
 8816TIP3    H247940   1.694   6.418   2.842  2.1001 -2.9991 -1.7543
 8817TIP3   OH247941   6.168   2.632  12.767 -0.1462  0.0878  0.6777
 8817TIP3    H147942   6.246   2.685  12.781 -0.8196  1.1327  0.5391
 8817TIP3    H247943   6.154   2.634  12.673  0.5695 -1.4505  0.5048
 8818TIP3   OH247944   4.984   4.110   3.473 -0.3952  0.2728 -0.1435
 8818TIP3    H147945   5.018   4.052   3.405 -1.2560 -0.0244 -0.3304
 8818TIP3    H247946   5.059   4.166   3.496  0.1291 -0.1564 -0.7569
 8819TIP3   OH247947   4.338   2.602   2.487  0.1020  0.3713  0.0611
 8819TIP3    H147948   4.341   2.510   2.512 -0.4605  0.1952 -0.5071
 8819TIP3    H247949   4.276   2.605   2.415  0.7167  1.0769 -0.4450
 8820TIP3   OH247950   3.587   2.223   0.356  0.2545 -0.0639  0.7169
 8820TIP3    H147951   3.644   2.146   0.362 -1.0796 -1.1291  0.0681
 8820TIP3    H247952   3.502   2.193   0.389 -0.8006  0.5849 -1.2971
 8821TIP3   OH247953   0.320   4.711   3.398  0.4412 -0.3936 -0.1754
 8821TIP3    H147954   0.254   4.648   3.429  1.1153 -2.0266 -1.8637
 8821TIP3    H247955   0.269   4.785   3.366 -0.5451 -1.2238 -0.5933
 8822TIP3   OH247956   3.779   0.933   2.749 -0.2162  0.3768  0.0844
 8822TIP3    H147957   3.733   0.872   2.806 -0.1583  1.1148  0.9482
 8822TIP3    H247958   3.864   0.892   2.733 -0.1081  0.3019  0.8090
 8823TIP3   OH247959   0.559   2.796  11.152 -0.0027  0.6794  0.3747
 8823TIP3    H147960   0.525   2.756  11.072  2.0625  0.4528 -0.4396
 8823TIP3    H247961   0.543   2.890  11.140 -0.6312  0.5568  0.1892
 8824TIP3   OH247962   4.019   2.388  14.253 -0.1484  0.1533 -0.3648
 8824TIP3    H147963   4.072   2.312  14.226 -1.1207 -1.0841  1.0134
 8824TIP3    H247964   4.031   2.392  14.348 -1.7155  0.4476 -0.1585
 8825TIP3   OH247965   0.761   6.498   5.057  0.0376  0.0819 -0.0168
 8825TIP3    H147966   0.706   6.435   5.104 -0.8785  0.5957 -0.3744
 8825TIP3    H247967   0.813   6.541   5.125  0.9175 -1.2627  0.2032
 8826TIP3   OH247968   0.384   2.556  15.498  0.5252  0.4083  0.5008
 8826TIP3    H147969   0.346   2.643  15.491  3.2807  1.8180  1.7320
 8826TIP3    H247970   0.356   2.512  15.417 -1.4609  2.1536  0.1451
 8827TIP3   OH247971   0.827   1.634   2.477 -0.0051  0.1199  0.4824
 8827TIP3    H147972   0.762   1.651   2.409  1.8384  0.3033 -1.3074
 8827TIP3    H247973   0.857   1.544   2.461  1.2625  0.5533  0.3045
 8828TIP3   OH247974   4.866   6.771  11.247  0.2165  0.2518 -0.0896
 8828TIP3    H147975   4.917   6.704  11.293 -3.2476 -3.0129 -0.5303
 8828TIP3    H247976   4.897   6.767  11.157  1.4374  0.8369  0.2721
 8829TIP3   OH247977   1.664   5.967   2.585  0.3821  0.2920  0.2220
 8829TIP3    H147978   1.623   5.905   2.645 -0.2417  1.6744  1.2856
 8829TIP3    H247979   1.600   5.978   2.515  0.7137 -0.6149 -0.2452
 8830TIP3   OH247980   1.543   5.835   4.915  0.0758 -0.0164 -0.1491
 8830TIP3    H147981   1.510   5.888   4.842 -0.7894 -1.8749 -1.1916
 8830TIP3    H247982   1.632   5.867   4.929 -0.8843  2.7661  0.3766
 8831TIP3   OH247983   5.778   0.950   2.836  0.4683  0.4323 -0.0946
 8831TIP3    H147984   5.762   0.884   2.903  0.9842 -0.5418 -0.9031
 8831TIP3    H247985   5.831   0.905   2.770  0.5867  1.5736 -0.8079
 8832TIP3   OH247986   3.985   5.420   1.774 -0.1792 -0.5149  0.1582
 8832TIP3    H147987   4.017   5.346   1.826  0.2592 -1.6366 -1.6182
 8832TIP3    H247988   3.890   5.416   1.784 -0.1981 -1.6417 -0.2897
 8833TIP3   OH247989   1.451   2.497  16.501  0.1680  0.0876 -0.1060
 8833TIP3    H147990   1.540   2.466  16.519  0.4743  1.9579  2.0374
 8833TIP3    H247991   1.460   2.548  16.420  0.9433 -0.0329 -0.1112
 8834TIP3   OH247992   4.115   2.674  11.187  0.3021  0.0565  0.0055
 8834TIP3    H147993   4.159   2.693  11.104 -0.4608  0.0734 -0.4109
 8834TIP3    H247994   4.162   2.598  11.222  0.2518 -0.3443 -0.7541
 8835TIP3   OH247995   0.911   3.274   4.208 -0.2580 -0.0631  0.5806
 8835TIP3    H147996   0.934   3.324   4.286 -0.9925 -0.6533  1.1945
 8835TIP3    H247997   0.990   3.223   4.187 -0.2194 -0.2850  1.2465
 8836TIP3   OH247998   3.452   0.215  12.910 -0.4795  0.0413 -0.7752
 8836TIP3    H147999   3.428   0.193  13.000  0.4358  1.9312 -0.0141
 8836TIP3    H248000   3.379   0.182  12.857 -1.2337 -0.7521  0.6893
 8837TIP3   OH248001   6.780   6.096   5.687  0.1129 -0.0152 -0.3897
 8837TIP3    H148002   6.874   6.103   5.699 -0.1288 -0.5509  2.5736
 8837TIP3    H248003   6.768   6.013   5.642  1.0176 -1.4772  1.8553
 8838TIP3   OH248004   6.067   1.578  14.975  0.9921 -0.1414 -0.1592
 8838TIP3    H148005   6.076   1.652  14.915  0.0650  1.4513  1.5602
 8838TIP3    H248006   6.031   1.508  14.921 -0.6938  1.4984 -1.3113
 8839TIP3   OH248007   1.240   2.408  11.443 -0.3093 -0.3033  0.0397
 8839TIP3    H148008   1.169   2.472  11.430  0.2186  0.6515  1.5525
 8839TIP3    H248009   1.201   2.324  11.422 -1.7146  0.2793  0.2157
 8840TIP3   OH248010   1.111   1.596  11.763  1.0450 -0.4318 -0.1762
 8840TIP3    H148011   1.130   1.649  11.686  0.8271  0.1038  0.1381
 8840TIP3    H248012   1.018   1.612  11.781  0.9417 -1.0218 -0.1572
 8841TIP3   OH248013   4.418   0.097   2.690  0.0440 -0.0024  0.3302
 8841TIP3    H148014   4.384   0.089   2.779  2.5263 -1.5729  1.2431
 8841TIP3    H248015   4.511   0.075   2.698  0.3234 -0.3000 -2.6751
 8842TIP3   OH248016   4.718   0.584   6.771  0.8738  0.3208  0.2110
 8842TIP3    H148017   4.707   0.491   6.749  0.3349  0.3129  0.5060
 8842TIP3    H248018   4.666   0.630   6.705  1.5335  0.4419 -0.2308
 8843TIP3   OH248019   3.866   4.862   0.241  0.6172  0.3772 -0.0324
 8843TIP3    H148020   3.880   4.935   0.301 -0.5106  1.2116 -0.7550
 8843TIP3    H248021   3.851   4.787   0.298  2.0916  0.6211  0.7267
 8844TIP3   OH248022   2.135   3.923   2.393  0.3416  0.3279 -0.8409
 8844TIP3    H148023   2.131   4.010   2.353 -0.7625  0.1424 -1.1714
 8844TIP3    H248024   2.097   3.935   2.480 -0.9549 -0.0335 -1.3249
 8845TIP3   OH248025   2.814   5.142  14.424 -0.2343  0.0608  0.3496
 8845TIP3    H148026   2.760   5.161  14.346 -1.2395 -1.8008  0.5271
 8845TIP3    H248027   2.835   5.228  14.460 -0.7283  0.9318 -1.3285
 8846TIP3   OH248028   4.942   6.185   2.725  0.3019  0.3727  0.5065
 8846TIP3    H148029   4.923   6.116   2.661 -1.8866  2.9673 -1.9212
 8846TIP3    H248030   4.944   6.140   2.809 -1.2881 -2.5860 -0.8867
 8847TIP3   OH248031   5.521   4.745   5.714  0.5218  0.6705 -0.1805
 8847TIP3    H148032   5.533   4.808   5.786  1.3815  0.0986  0.1893
 8847TIP3    H248033   5.426   4.743   5.701  0.2442  0.1204  1.5693
 8848TIP3   OH248034   2.604   3.779   3.486  0.5154  0.2336 -0.2328
 8848TIP3    H148035   2.558   3.766   3.569 -2.5585 -0.5454 -1.8791
 8848TIP3    H248036   2.643   3.866   3.494 -0.4859  0.5815  1.6979
 8849TIP3   OH248037   2.413   3.618   1.003 -0.5811  0.6126  0.0210
 8849TIP3    H148038   2.496   3.576   0.980 -0.7293  0.2577  0.1383
 8849TIP3    H248039   2.439   3.694   1.055 -0.4107 -0.6340  1.8291
 8850TIP3   OH248040   3.549   2.121  12.305 -0.7103  0.8354 -0.2801
 8850TIP3    H148041   3.491   2.197  12.297  0.2737  1.7016  0.5153
 8850TIP3    H248042   3.548   2.099  12.398 -1.2496 -0.3637 -0.5500
 8851TIP3   OH248043   0.873   0.444   4.991  0.1282  0.7757 -0.0354
 8851TIP3    H148044   0.836   0.395   4.918  1.7471  2.6499 -2.2865
 8851TIP3    H248045   0.965   0.419   4.993  0.1025  0.7416  1.4049
 8852TIP3   OH248046   4.075   6.765   4.604  0.7565  0.0958  0.2093
 8852TIP3    H148047   4.026   6.845   4.620  1.6232  1.0084 -1.4425
 8852TIP3    H248048   4.036   6.700   4.663 -1.2101  1.2360  0.2247
 8853TIP3   OH248049   5.356   3.210   6.126  0.3905  0.1186  0.6284
 8853TIP3    H148050   5.274   3.220   6.077 -0.3194  0.0723  1.7673
 8853TIP3    H248051   5.424   3.240   6.066 -0.4103 -0.2572 -0.4948
 8854TIP3   OH248052   0.369   6.748  16.954 -0.0330 -0.5839  0.1549
 8854TIP3    H148053   0.341   6.760  17.044  0.3897  0.8645  0.1180
 8854TIP3    H248054   0.454   6.705  16.960 -0.3323 -1.1491  0.4077
 8855TIP3   OH248055   3.105   1.556   1.651 -0.2453  0.0796  0.0223
 8855TIP3    H148056   3.192   1.595   1.645 -0.8388  1.3770 -0.4562
 8855TIP3    H248057   3.067   1.566   1.564 -1.6261  1.4049  0.7243
 8856TIP3   OH248058   4.536   4.708  11.995 -0.2554  0.3279  0.2226
 8856TIP3    H148059   4.590   4.752  12.061  0.2293 -0.2555  0.2303
 8856TIP3    H248060   4.584   4.721  11.913 -0.4291  0.3406  0.1223
 8857TIP3   OH248061   0.324   6.442   4.818  0.3398  0.8854  0.1760
 8857TIP3    H148062   0.390   6.397   4.871  1.3148 -0.2397 -1.8201
 8857TIP3    H248063   0.360   6.529   4.803  0.4499  0.9273  0.6982
 8858TIP3   OH248064   0.317   6.515   1.856 -0.5607 -0.6056 -0.0763
 8858TIP3    H148065   0.322   6.608   1.880  0.5527 -0.1552 -1.8483
 8858TIP3    H248066   0.273   6.473   1.930 -4.5449  1.8784 -0.7343
 8859TIP3   OH248067   1.514   3.265   0.102  0.0798 -0.4574  0.3577
 8859TIP3    H148068   1.532   3.172   0.087  0.3814 -0.1539 -1.4253
 8859TIP3    H248069   1.588   3.310   0.062 -0.6614  0.5963  0.1340
 8860TIP3   OH248070   6.673   2.789   5.138  0.2748 -0.1389 -0.1918
 8860TIP3    H148071   6.674   2.803   5.043  0.1579  1.2337 -0.0092
 8860TIP3    H248072   6.722   2.863   5.174 -1.8600  0.7951  0.9635
 8861TIP3   OH248073   2.933   4.805   5.959  0.0271 -0.7414  0.2319
 8861TIP3    H148074   2.972   4.757   6.032  0.5222 -1.0790 -0.2413
 8861TIP3    H248075   2.985   4.885   5.953  1.6295 -1.8043 -1.2715
 8862TIP3   OH248076   4.735   1.559   3.747  0.5104  0.4604 -0.0348
 8862TIP3    H148077   4.737   1.610   3.828 -1.9145  1.1956 -0.3496
 8862TIP3    H248078   4.719   1.623   3.679  0.2683 -0.4040 -0.8077
 8863TIP3   OH248079   6.810   5.050   3.333  0.4534 -0.7782  0.3776
 8863TIP3    H148080   6.726   5.005   3.341 -0.8597  0.9629 -2.1344
 8863TIP3    H248081   6.829   5.083   3.421 -0.7996 -2.3184  1.2627
 8864TIP3   OH248082   2.354   5.618   4.667  0.6217  0.7424 -0.7950
 8864TIP3    H148083   2.449   5.626   4.667  0.5611  1.5459 -0.8892
 8864TIP3    H248084   2.333   5.585   4.755  0.9307  1.3296 -0.4937
 8865TIP3   OH248085   3.766   2.507  13.661  0.3726 -0.2645  0.5248
 8865TIP3    H148086   3.728   2.524  13.574 -1.6086  0.4977  1.4654
 8865TIP3    H248087   3.843   2.452  13.643 -1.0367 -1.7531 -1.5941
 8866TIP3   OH248088   4.186   0.690   5.433 -0.0349 -0.0514 -0.3440
 8866TIP3    H148089   4.203   0.617   5.373 -1.4263 -0.1348 -0.6608
 8866TIP3    H248090   4.154   0.647   5.513 -0.5119  0.1847 -0.4062
 8867TIP3   OH248091   4.608   5.810  12.093  0.1859  0.2062  0.7902
 8867TIP3    H148092   4.682   5.863  12.125  1.7174 -1.5730  0.3792
 8867TIP3    H248093   4.617   5.811  11.998  0.5428 -1.1627  0.7947
 8868TIP3   OH248094   2.532   4.125   3.124  0.0991  0.0605  0.3002
 8868TIP3    H148095   2.454   4.090   3.081 -0.7146  1.2476  0.7810
 8868TIP3    H248096   2.499   4.191   3.185  1.5218  1.2610 -0.1545
 8869TIP3   OH248097   0.587   5.053   4.727  0.4385  0.3970  0.2046
 8869TIP3    H148098   0.562   5.117   4.794  0.2974  0.9118 -0.3333
 8869TIP3    H248099   0.508   5.041   4.674 -0.2314 -1.8841  1.5789
 8870TIP3   OH248100   3.462   1.653   6.842  0.5857  0.1030 -0.5963
 8870TIP3    H148101   3.455   1.746   6.863  1.6706 -0.0426  0.4848
 8870TIP3    H248102   3.429   1.646   6.752  1.0321  1.6103 -0.8939
 8871TIP3   OH248103   5.150   6.275   2.538  0.0531  0.2456 -0.2129
 8871TIP3    H148104   5.160   6.369   2.524 -0.9821 -0.0929 -5.1074
 8871TIP3    H248105   5.074   6.267   2.594  0.3030  2.3091  0.4970
 8872TIP3   OH248106   0.371   6.344   2.365  0.6409  0.4146 -0.2277
 8872TIP3    H148107   0.339   6.254   2.355  0.5785  0.4731 -0.5811
 8872TIP3    H248108   0.386   6.355   2.459  0.7614 -0.0059 -0.1970
 8873TIP3   OH248109   1.668   1.437  16.737 -0.0243  0.1788  0.4911
 8873TIP3    H148110   1.577   1.411  16.720  0.4044 -0.6438 -0.7072
 8873TIP3    H248111   1.685   1.507  16.674  0.4225 -0.2734  0.0965
 8874TIP3   OH248112   0.931   3.315   5.514  0.3639 -0.1423 -0.3085
 8874TIP3    H148113   0.914   3.227   5.478 -1.9404 -0.3222  1.0423
 8874TIP3    H248114   0.988   3.299   5.589 -1.0728 -0.7260  0.7258
 8875TIP3   OH248115   1.844   6.145   1.305 -0.2529  0.1910  0.2418
 8875TIP3    H148116   1.842   6.225   1.357 -1.2482  0.4824 -0.2307
 8875TIP3    H248117   1.756   6.137   1.269 -0.1733 -1.1280  0.2930
 8876TIP3   OH248118   0.550   4.776   1.080  0.0554  0.3488 -0.3514
 8876TIP3    H148119   0.481   4.740   1.024  0.3485  1.0190 -1.1563
 8876TIP3    H248120   0.507   4.844   1.131 -0.5566 -1.2152  1.3435
 8877TIP3   OH248121   6.485   5.732   2.886  0.5185 -0.0953 -0.1388
 8877TIP3    H148122   6.489   5.648   2.840 -3.6072  1.1292 -3.3302
 8877TIP3    H248123   6.569   5.774   2.869  1.6852 -2.4807 -0.6402
 8878TIP3   OH248124   5.553   0.573  11.482  0.4485 -0.0969  0.0396
 8878TIP3    H148125   5.597   0.606  11.403 -0.3845 -1.2383 -0.9557
 8878TIP3    H248126   5.484   0.517  11.448  0.6708 -1.3968  1.6197
 8879TIP3   OH248127   4.166   6.152   1.503  0.1361  0.0191  0.2880
 8879TIP3    H148128   4.140   6.240   1.530  0.2109 -0.5140  2.2796
 8879TIP3    H248129   4.083   6.104   1.494  0.0760  0.3626 -1.1454
 8880TIP3   OH248130   0.001   5.293  11.720 -0.1453  0.0382 -0.4158
 8880TIP3    H148131  -0.024   5.340  11.641 -0.2896 -0.7450 -0.8494
 8880TIP3    H248132  -0.047   5.336  11.790  1.0693  1.6665 -0.5130
 8881TIP3   OH248133   1.152   2.520  11.750  0.0859 -0.3057 -0.0573
 8881TIP3    H148134   1.143   2.595  11.692 -0.4166 -0.3054  0.0165
 8881TIP3    H248135   1.128   2.554  11.836  1.7502 -0.0625  0.3368
 8882TIP3   OH248136   0.349   4.847   4.625 -0.3222  0.3277 -0.0830
 8882TIP3    H148137   0.394   4.803   4.697  2.5369 -0.7775 -2.3240
 8882TIP3    H248138   0.258   4.821   4.634  0.3363 -1.6309  1.8114
 8883TIP3   OH248139   3.704   3.641   1.350  0.4822  0.3000 -0.2446
 8883TIP3    H148140   3.772   3.576   1.335  0.5749 -0.1739  1.8240
 8883TIP3    H248141   3.718   3.707   1.282  3.2521  0.4053  0.2925
 8884TIP3   OH248142   0.945   5.901  16.037  0.5887  1.4496  0.1351
 8884TIP3    H148143   0.855   5.883  16.007 -0.4422  2.2023  2.5003
 8884TIP3    H248144   0.948   5.863  16.125  2.7201  1.1656 -0.0277
 8885TIP3   OH248145   5.767   3.559  14.958  0.4456 -0.3982  0.3067
 8885TIP3    H148146   5.819   3.639  14.948  0.5994 -0.3507  1.3023
 8885TIP3    H248147   5.810   3.512  15.030  0.5313 -1.5248 -0.4535
 8886TIP3   OH248148   4.831   1.245   6.151  0.2762  0.4104  0.2577
 8886TIP3    H148149   4.829   1.336   6.121 -0.1112  0.0965 -0.7421
 8886TIP3    H248150   4.747   1.232   6.194  0.4433  0.6029  0.6406
 8887TIP3   OH248151   0.435   6.127   0.669 -0.2677 -0.1603 -0.1483
 8887TIP3    H148152   0.504   6.084   0.618  1.9741  1.8544  0.9752
 8887TIP3    H248153   0.453   6.101   0.760  1.1234  2.8711  0.5620
 8888TIP3   OH248154   1.521   0.342  17.093 -0.1654 -0.0190 -0.6483
 8888TIP3    H148155   1.492   0.384  17.174  0.3824 -0.7917 -0.0392
 8888TIP3    H248156   1.613   0.322  17.108 -0.5247 -1.8962 -0.6933
 8889TIP3   OH248157   3.598   1.378   2.995 -0.0992 -0.1363 -0.3444
 8889TIP3    H148158   3.623   1.365   3.086  1.3673  0.1269 -0.6965
 8889TIP3    H248159   3.531   1.446   2.998 -0.5471 -0.6009  0.5828
 8890TIP3   OH248160   5.885   1.551   4.331  0.4428  0.4570  0.8576
 8890TIP3    H148161   5.863   1.482   4.268 -1.4605 -0.1199  2.0744
 8890TIP3    H248162   5.845   1.630   4.295 -0.9421  0.0581  1.4777
 8891TIP3   OH248163   5.315   0.658   3.005 -0.0070  1.0985  0.2222
 8891TIP3    H148164   5.242   0.684   2.948  1.9730  3.4340 -1.4431
 8891TIP3    H248165   5.391   0.702   2.967  2.5309 -2.1180  1.2240
 8892TIP3   OH248166   2.110   3.482  15.380 -0.3728 -0.1117  0.4455
 8892TIP3    H148167   2.121   3.546  15.450  2.4710 -0.2467  0.2308
 8892TIP3    H248168   2.109   3.397  15.425 -0.2726 -0.1208  0.4287
 8893TIP3   OH248169   2.463   4.913  16.288  0.0317  0.2794 -0.2620
 8893TIP3    H148170   2.488   4.864  16.366 -0.4799  0.6010  0.1117
 8893TIP3    H248171   2.512   4.995  16.294 -0.3923  0.5201 -0.0067
 8894TIP3   OH248172   6.031   0.582   0.517  0.4338 -0.0131 -0.1951
 8894TIP3    H148173   5.962   0.639   0.552  0.3832  0.9291 -1.7387
 8894TIP3    H248174   6.113   0.622   0.546  0.3737  0.2191 -0.3448
 8895TIP3   OH248175   5.253   4.156   1.465 -0.1795  0.9219 -0.3367
 8895TIP3    H148176   5.335   4.203   1.477  0.5471 -0.5525  0.7445
 8895TIP3    H248177   5.248   4.097   1.540 -2.3998  1.2021 -0.1881
 8896TIP3   OH248178   4.874   5.105  11.525  0.6279  0.0781 -0.1111
 8896TIP3    H148179   4.900   5.115  11.617  2.0041 -1.5285 -0.2872
 8896TIP3    H248180   4.866   5.010  11.512 -0.6755  0.3171 -1.3736
 8897TIP3   OH248181   2.409   5.227  16.985  0.0004 -0.0881  0.0625
 8897TIP3    H148182   2.485   5.171  17.000 -0.8708 -1.5244 -0.6637
 8897TIP3    H248183   2.399   5.276  17.067  3.0265  1.8723 -0.5886
 8898TIP3   OH248184   4.517   0.273   0.338 -0.4925  0.1720  0.7297
 8898TIP3    H148185   4.477   0.356   0.366  0.4527  0.2244  2.0068
 8898TIP3    H248186   4.445   0.210   0.341 -1.1922  0.9016 -0.1268
 8899TIP3   OH248187   2.483   3.181  13.437  0.1497 -0.0810 -0.1106
 8899TIP3    H148188   2.532   3.130  13.501  0.5102  0.2484 -0.1187
 8899TIP3    H248189   2.534   3.261  13.425 -1.1180  0.9496  0.9849
 8900TIP3   OH248190   6.047   3.136  12.008  0.5224  0.4199  0.8293
 8900TIP3    H148191   6.116   3.072  11.994 -0.5438 -0.6271  0.1021
 8900TIP3    H248192   6.029   3.171  11.921 -1.3827 -1.0091  0.5595
 8901TIP3   OH248193   0.846   3.955   4.963  0.5924 -0.5750 -0.3785
 8901TIP3    H148194   0.874   3.945   5.054  0.3937 -1.9089 -0.4512
 8901TIP3    H248195   0.750   3.962   4.968  0.5905 -0.5201 -0.4855
 8902TIP3   OH248196   4.870   4.911   1.604 -0.9200  0.8254  0.5292
 8902TIP3    H148197   4.858   4.838   1.543  2.1468  1.1809 -0.6873
 8902TIP3    H248198   4.862   4.989   1.549 -0.1369  1.2277  0.9711
 8903TIP3   OH248199   4.765   2.057  11.938  0.1789 -0.7816 -0.0285
 8903TIP3    H148200   4.703   2.127  11.917  1.4792  0.0144 -1.4321
 8903TIP3    H248201   4.715   1.976  11.925 -0.5509 -0.1641 -1.2274
 8904TIP3   OH248202   4.878   4.496   1.374 -0.2120 -0.6949 -0.1106
 8904TIP3    H148203   4.786   4.499   1.400 -0.1161  1.0981  0.0982
 8904TIP3    H248204   4.927   4.499   1.457  0.0657 -2.0137 -0.1972
 8905TIP3   OH248205   0.972   1.705   3.134 -0.1064 -0.4884 -0.5034
 8905TIP3    H148206   0.891   1.660   3.157 -0.1549  0.1509  0.6784
 8905TIP3    H248207   1.040   1.638   3.146 -0.3866 -0.8368 -0.8340
 8906TIP3   OH248208   3.936   2.262  15.850 -0.1499  0.2608 -0.1825
 8906TIP3    H148209   3.982   2.180  15.831 -1.4420 -0.6504  0.4145
 8906TIP3    H248210   3.996   2.312  15.904  0.1515 -0.8980  0.5969
 8907TIP3   OH248211   5.133   5.311   5.526 -0.2231 -0.4085 -0.2738
 8907TIP3    H148212   5.052   5.273   5.560  0.1728 -0.8874  0.1386
 8907TIP3    H248213   5.104   5.389   5.477 -1.0382 -1.2735 -1.2039
 8908TIP3   OH248214   2.338   6.600  15.404  0.1758 -0.3534 -0.0520
 8908TIP3    H148215   2.308   6.655  15.332 -0.5399 -1.4124 -0.5815
 8908TIP3    H248216   2.266   6.603  15.468 -0.0599 -1.0256 -0.2835
 8909TIP3   OH248217   0.681   2.935  14.771  0.5434 -0.0019 -0.4457
 8909TIP3    H148218   0.737   2.903  14.699  1.1791  0.9779 -0.4062
 8909TIP3    H248219   0.734   3.002  14.814  0.2369 -0.7008  1.0632
 8910TIP3   OH248220   6.740   2.262  13.237  0.0641  0.2532  0.1160
 8910TIP3    H148221   6.657   2.223  13.208  0.3812 -0.7997  0.5701
 8910TIP3    H248222   6.791   2.188  13.271  1.0297  0.9467  0.2309
 8911TIP3   OH248223   0.082   3.228  14.706  0.2514  0.0217 -0.0601
 8911TIP3    H148224   0.129   3.252  14.785 -0.9376  3.1372 -0.1170
 8911TIP3    H248225  -0.006   3.204  14.736 -0.0940  0.8592 -0.3515
 8912TIP3   OH248226   1.440   0.830  11.458 -0.1265  0.3517 -0.0223
 8912TIP3    H148227   1.356   0.784  11.458 -0.4121  0.8458 -0.9847
 8912TIP3    H248228   1.462   0.840  11.366  1.2403 -0.1927  0.2189
 8913TIP3   OH248229   4.455   5.338  12.583  0.5124 -0.8787 -0.1175
 8913TIP3    H148230   4.487   5.249  12.570 -0.8279 -1.3140 -0.5954
 8913TIP3    H248231   4.373   5.342  12.534 -0.2205  0.1486  1.1135
 8914TIP3   OH248232   6.800   1.071  13.244  0.1395 -0.1418 -0.3930
 8914TIP3    H148233   6.718   1.120  13.251  0.9296  1.2607 -0.7764
 8914TIP3    H248234   6.832   1.089  13.156  0.2499 -1.7081 -0.6987
 8915TIP3   OH248235   4.228   2.617   4.382  0.3036 -0.2812 -0.4211
 8915TIP3    H148236   4.288   2.610   4.456 -0.5446 -1.0388  0.2289
 8915TIP3    H248237   4.202   2.709   4.381  0.7813 -0.1372 -0.1595
 8916TIP3   OH248238   3.494   4.450  13.588  0.2001 -0.4542  0.6948
 8916TIP3    H148239   3.458   4.505  13.657  1.7147  0.8782  0.5113
 8916TIP3    H248240   3.547   4.385  13.634 -0.2307 -0.6873  0.8583
 8917TIP3   OH248241   2.211   1.549   3.883  0.3104  0.0078  0.4511
 8917TIP3    H148242   2.204   1.513   3.972  0.6968 -0.6895  0.2081
 8917TIP3    H248243   2.236   1.640   3.895 -0.0069  0.0156  1.0706
 8918TIP3   OH248244   4.693   2.456   4.952  0.5502 -0.6701 -0.3086
 8918TIP3    H148245   4.687   2.460   4.856  0.8715 -1.4284 -0.3681
 8918TIP3    H248246   4.785   2.436   4.969  0.5261 -0.3729  0.1635
 8919TIP3   OH248247   5.909   5.446  12.719  0.7488 -0.0928 -0.2248
 8919TIP3    H148248   5.855   5.375  12.754 -0.5910  1.2867  0.6595
 8919TIP3    H248249   5.976   5.461  12.786  1.8403 -1.3265 -0.9951
 8920TIP3   OH248250   1.062   3.652   4.955  0.0149  0.6819 -0.1553
 8920TIP3    H148251   0.984   3.687   4.998  0.3654  1.0318  0.1996
 8920TIP3    H248252   1.041   3.656   4.861 -1.0031 -0.6836 -0.0142
 8921TIP3   OH248253   6.365   2.911   1.432 -0.1342  0.0284  0.3042
 8921TIP3    H148254   6.397   2.824   1.455 -0.0308  0.1631  0.6702
 8921TIP3    H248255   6.369   2.913   1.336  0.5554 -0.1078  0.3260
 8922TIP3   OH248256   4.862   2.838   6.464  0.3059  0.4840 -0.0198
 8922TIP3    H148257   4.783   2.794   6.432  1.3318 -0.1502 -1.8535
 8922TIP3    H248258   4.934   2.788   6.426  1.5655  1.8644  0.4579
 8923TIP3   OH248259   0.102   5.154  10.891 -0.2777 -0.0639  0.1235
 8923TIP3    H148260   0.177   5.211  10.882 -0.5469  0.3688  0.5674
 8923TIP3    H248261   0.026   5.210  10.875 -0.4691 -0.9684 -2.6292
 8924TIP3   OH248262   6.026   5.892   1.900  0.2583  0.1015 -0.0149
 8924TIP3    H148263   6.119   5.879   1.916  0.3206 -2.2520 -1.7941
 8924TIP3    H248264   6.022   5.935   1.814 -0.2964  0.0300 -0.0300
 8925TIP3   OH248265   3.707   3.583  13.736 -0.4003  0.4602  0.1702
 8925TIP3    H148266   3.633   3.523  13.740 -0.1580  0.2116  1.5141
 8925TIP3    H248267   3.783   3.526  13.722 -0.1552  0.3983  1.5639
 8926TIP3   OH248268   3.158   1.743   1.079 -0.0266  0.5242 -0.2137
 8926TIP3    H148269   3.106   1.673   1.119 -1.5351  0.5953 -1.8971
 8926TIP3    H248270   3.094   1.793   1.027  1.7497  0.3748 -2.7426
 8927TIP3   OH248271   4.288   3.200  14.268  0.3868  0.5567 -0.0797
 8927TIP3    H148272   4.303   3.127  14.209  2.9217  1.7068 -1.0099
 8927TIP3    H248273   4.193   3.203  14.280 -0.0696 -0.7615 -2.7476
 8928TIP3   OH248274   0.873   4.388  12.488  0.3403  0.0229  0.9923
 8928TIP3    H148275   0.968   4.398  12.482  0.1090  1.8962 -2.0124
 8928TIP3    H248276   0.839   4.477  12.475 -1.8076 -0.9428 -0.6925
 8929TIP3   OH248277   2.523   5.278   3.535 -0.2889 -0.6281 -0.3553
 8929TIP3    H148278   2.479   5.351   3.492 -0.8633 -1.3159 -0.9524
 8929TIP3    H248279   2.484   5.275   3.623 -0.6386 -0.5382 -0.5065
 8930TIP3   OH248280   4.531   3.873  15.552 -0.5311  0.0474  0.1542
 8930TIP3    H148281   4.543   3.894  15.644 -2.0342  3.3531 -0.2651
 8930TIP3    H248282   4.444   3.908  15.530  0.8292  1.8946 -3.1045
 8931TIP3   OH248283   6.055   0.818  10.493 -0.3365 -0.0287  0.1494
 8931TIP3    H148284   5.990   0.749  10.507  1.7262 -2.1180  0.1396
 8931TIP3    H248285   6.014   0.877  10.429 -1.7045 -2.0041 -0.9044
 8932TIP3   OH248286   3.503   5.742   0.418 -0.4714 -0.6025  0.4435
 8932TIP3    H148287   3.467   5.768   0.333  0.7629  2.7563  0.7847
 8932TIP3    H248288   3.449   5.788   0.482  0.9904  0.1356  1.2056
 8933TIP3   OH248289   0.130   6.191  11.370 -0.1109  0.6570 -0.3742
 8933TIP3    H148290   0.083   6.274  11.381 -1.1159  0.3845 -2.2046
 8933TIP3    H248291   0.148   6.186  11.276 -0.1996 -1.2604 -0.3318
 8934TIP3   OH248292   5.236   3.783  16.412  0.8934 -0.0749 -0.1280
 8934TIP3    H148293   5.283   3.756  16.491  0.8500 -1.2834 -0.5019
 8934TIP3    H248294   5.266   3.873  16.396 -0.7655  1.0934  2.5300
 8935TIP3   OH248295   0.808   3.517  16.900 -0.0983 -0.4321  0.1985
 8935TIP3    H148296   0.852   3.535  16.984  1.5607 -0.4654 -0.6286
 8935TIP3    H248297   0.806   3.421  16.896 -0.4134 -0.4304  0.3168
 8936TIP3   OH248298   0.632   1.956  15.967  0.0981  0.1295 -0.6953
 8936TIP3    H148299   0.627   2.022  15.898 -1.7938 -0.1808 -0.8965
 8936TIP3    H248300   0.543   1.949  16.000  0.2077 -2.3940 -0.7473
 8937TIP3   OH248301   1.543   1.076  10.668 -0.0892  0.2095  0.9818
 8937TIP3    H148302   1.510   1.086  10.579 -0.9049 -1.6762  1.0312
 8937TIP3    H248303   1.465   1.072  10.723  0.2116 -1.8602  1.3682
 8938TIP3   OH248304   0.160   6.442  11.634 -0.7116  0.2592 -0.2153
 8938TIP3    H148305   0.238   6.461  11.582 -0.0952  1.0030  0.9330
 8938TIP3    H248306   0.090   6.430  11.570  0.3526 -0.4810 -1.2756
 8939TIP3   OH248307   4.493   3.536   2.413 -0.5959 -0.1275  0.0304
 8939TIP3    H148308   4.455   3.448   2.424 -1.8037  0.3972  0.1917
 8939TIP3    H248309   4.447   3.590   2.477 -0.6235  0.8566 -0.7980
 8940TIP3   OH248310   1.661   1.071   1.469 -0.2537 -0.6642  0.0154
 8940TIP3    H148311   1.733   1.073   1.532  0.3752 -0.5600 -0.6948
 8940TIP3    H248312   1.634   1.162   1.461  1.5839 -0.2236 -1.9998
 8941TIP3   OH248313   0.684   0.442   1.783 -0.9160 -0.1595  0.1201
 8941TIP3    H148314   0.717   0.453   1.872 -1.4527  1.0464  0.1979
 8941TIP3    H248315   0.755   0.399   1.735  0.0145  0.6300  0.7469
 8942TIP3   OH248316   1.725   5.102   2.947  0.1697  0.1752 -0.0956
 8942TIP3    H148317   1.676   5.118   3.027  1.7423  1.2299  0.7161
 8942TIP3    H248318   1.817   5.097   2.976  0.6775 -0.4753 -1.6955
 8943TIP3   OH248319   3.265   5.253  11.196 -0.0463  0.6065  0.1328
 8943TIP3    H148320   3.181   5.207  11.189 -0.0733  0.8211 -1.3380
 8943TIP3    H248321   3.244   5.335  11.239 -0.5556  0.5638 -0.0239
 8944TIP3   OH248322   1.278   0.574  15.093 -0.1008 -0.4632 -0.5527
 8944TIP3    H148323   1.328   0.656  15.096 -0.3731 -0.2240 -1.8036
 8944TIP3    H248324   1.283   0.540  15.182  1.3386  0.1196 -0.3780
 8945TIP3   OH248325   0.533   3.460  16.931  0.2512  0.3915 -0.5111
 8945TIP3    H148326   0.615   3.487  16.890 -0.4912  1.1220 -1.5459
 8945TIP3    H248327   0.535   3.365  16.929  0.0541  0.3892 -2.6674
 8946TIP3   OH248328   5.848   2.998  11.489 -0.1337  0.0833 -0.4651
 8946TIP3    H148329   5.835   3.013  11.582 -1.0122 -1.3193 -0.3295
 8946TIP3    H248330   5.794   3.064  11.446 -0.1433  0.3976  0.0283
 8947TIP3   OH248331   1.445   3.696  14.234 -0.3496  0.0656  0.0381
 8947TIP3    H148332   1.483   3.632  14.174 -0.6779 -0.0695 -0.0261
 8947TIP3    H248333   1.410   3.765  14.177  1.3535  1.0780  0.1516
 8948TIP3   OH248334   4.377   4.630   6.586 -0.1412 -0.1228 -0.1585
 8948TIP3    H148335   4.383   4.598   6.496  1.5798  0.4677 -0.2815
 8948TIP3    H248336   4.452   4.591   6.631 -1.7806 -1.6375  1.4621
 8949TIP3   OH248337   1.735   5.019   4.512  0.7753 -0.1102  0.1810
 8949TIP3    H148338   1.691   5.088   4.463 -3.6161 -2.7469 -0.2164
 8949TIP3    H248339   1.760   4.954   4.446 -0.9183 -1.5679  0.8603
 8950TIP3   OH248340   3.254   5.510  12.236 -0.4589 -0.4925 -0.1827
 8950TIP3    H148341   3.166   5.500  12.199 -0.8842  3.0774 -0.5194
 8950TIP3    H248342   3.263   5.604  12.252  2.6592 -0.9367  1.5703
 8951TIP3   OH248343   3.517   2.807   4.406 -0.1044 -0.0572 -0.1589
 8951TIP3    H148344   3.544   2.723   4.370  0.1102 -0.2729  0.4944
 8951TIP3    H248345   3.591   2.835   4.460 -0.6280 -0.0072  0.5493
 8952TIP3   OH248346   4.235   2.723  13.311  0.1367 -0.4880 -0.1259
 8952TIP3    H148347   4.320   2.757  13.341  0.3742 -1.0207 -0.1706
 8952TIP3    H248348   4.192   2.692  13.391 -1.2977  2.4273  0.3511
 8953TIP3   OH248349   6.176   1.654   3.030 -0.4690  0.7021  0.1471
 8953TIP3    H148350   6.229   1.644   3.110 -1.0999 -1.7832  0.3512
 8953TIP3    H248351   6.106   1.714   3.055  0.1797  1.1168  1.0103
 8954TIP3   OH248352   4.173   0.554  15.439  0.3633 -0.2665  0.2400
 8954TIP3    H148353   4.115   0.603  15.497 -1.1756 -0.3136 -1.1747
 8954TIP3    H248354   4.133   0.466  15.435  0.2184 -0.1586 -1.1414
 8955TIP3   OH248355   4.750   2.989   5.427  0.1668 -0.2937  0.3038
 8955TIP3    H148356   4.795   2.908   5.449  1.7989 -0.0690 -1.8543
 8955TIP3    H248357   4.740   3.035   5.510  0.9596 -1.8362  1.2947
 8956TIP3   OH248358   0.875   4.627  10.427  0.0361  0.1993 -0.1500
 8956TIP3    H148359   0.812   4.688  10.388 -2.2287  0.2690  3.1584
 8956TIP3    H248360   0.960   4.670  10.418 -1.0545  2.3657 -0.6930
 8957TIP3   OH248361   2.630   2.155   0.738 -0.2265  0.3923  0.1645
 8957TIP3    H148362   2.722   2.144   0.760 -0.4193  0.9429  1.3032
 8957TIP3    H248363   2.619   2.248   0.722 -0.8245  0.5275  1.2534
 8958TIP3   OH248364   5.131   6.339   1.677 -0.0773 -0.5658  0.4040
 8958TIP3    H148365   5.060   6.283   1.707 -2.2232  1.1441 -1.0887
 8958TIP3    H248366   5.111   6.357   1.585  1.4438  1.2055  0.3359
 8959TIP3   OH248367   4.851   1.245   5.247 -0.0408 -0.3514  0.2167
 8959TIP3    H148368   4.904   1.234   5.327 -0.7790  0.8518  0.9014
 8959TIP3    H248369   4.901   1.307   5.194  0.6294 -1.4275 -0.4499
 8960TIP3   OH248370   1.086   0.247  12.363  0.2364 -0.4290 -0.2048
 8960TIP3    H148371   1.085   0.157  12.398 -2.0400 -0.7304 -0.8969
 8960TIP3    H248372   1.090   0.236  12.268 -0.2053  0.2014 -0.2988
 8961TIP3   OH248373   6.321   0.872   0.521 -0.0946 -0.4146  0.5721
 8961TIP3    H148374   6.310   0.967   0.513 -0.4270 -0.5919 -1.9461
 8961TIP3    H248375   6.411   0.855   0.493 -0.5303 -0.9469 -0.5881
 8962TIP3   OH248376   1.248   3.569  15.540 -0.3109  0.2967  0.4483
 8962TIP3    H148377   1.214   3.563  15.629  0.4308 -1.5553  0.6529
 8962TIP3    H248378   1.309   3.643  15.542 -0.6558  0.5685  1.3339
 8963TIP3   OH248379   5.514   5.840  12.140  0.4622 -0.2428 -0.2114
 8963TIP3    H148380   5.605   5.863  12.157  0.1095  0.4943  0.8085
 8963TIP3    H248381   5.504   5.851  12.046  1.3416  0.0023 -0.2873
 8964TIP3   OH248382   6.483   5.515   2.417 -0.7362 -0.3205  0.3718
 8964TIP3    H148383   6.547   5.573   2.377 -0.2399  1.0955  2.9919
 8964TIP3    H248384   6.493   5.432   2.370 -0.7039  1.3150 -2.7462
 8965TIP3   OH248385   0.488   6.677   4.670 -0.0826  0.1449 -0.2143
 8965TIP3    H148386   0.550   6.748   4.684  0.5497 -0.5898  0.8428
 8965TIP3    H248387   0.538   6.598   4.687 -0.2167 -0.7224 -3.2713
 8966TIP3   OH248388   5.756   1.031  14.733  0.5880  0.2063 -0.2489
 8966TIP3    H148389   5.704   1.066  14.806 -2.7435 -2.1681 -1.2549
 8966TIP3    H248390   5.798   1.108  14.695 -0.9240  2.0927  1.6391
 8967TIP3   OH248391   5.014   2.979  13.910  0.5288  0.1357 -0.3650
 8967TIP3    H148392   5.075   3.038  13.866  0.6489  1.0421  0.9682
 8967TIP3    H248393   4.979   3.030  13.982  0.3482 -1.2986  0.6000
 8968TIP3   OH248394   2.433   3.681  12.648 -0.2015 -0.2564 -0.1410
 8968TIP3    H148395   2.498   3.711  12.585 -0.5458 -0.1047 -0.4223
 8968TIP3    H248396   2.475   3.605  12.690  0.6119  0.4979  0.4727
 8969TIP3   OH248397   6.386   1.799  11.886  0.4303  0.5924 -0.2542
 8969TIP3    H148398   6.373   1.744  11.963 -0.1345 -0.0701 -0.8153
 8969TIP3    H248399   6.479   1.822  11.889 -0.1525  3.1490  2.2959
 8970TIP3   OH248400   2.890   3.882   5.756 -0.6308  0.1935  0.1807
 8970TIP3    H148401   2.920   3.796   5.786  0.2391  0.6897  0.8234
 8970TIP3    H248402   2.962   3.941   5.780 -0.8215  0.9594 -1.0564
 8971TIP3   OH248403   6.420   5.594  14.268 -0.1476 -0.1422  0.1026
 8971TIP3    H148404   6.433   5.553  14.182 -2.2977  0.2765 -0.5008
 8971TIP3    H248405   6.332   5.566  14.294 -0.4300  1.5696  1.1066
 8972TIP3   OH248406   4.746   4.606  13.532  0.8601  0.0859 -0.5996
 8972TIP3    H148407   4.723   4.600  13.625  0.5871 -2.2389 -0.7455
 8972TIP3    H248408   4.811   4.537  13.519 -0.4938 -0.9366 -2.4826
 8973TIP3   OH248409   2.881   4.208  12.827 -0.2939 -0.0905  0.2885
 8973TIP3    H148410   2.879   4.158  12.908 -1.0303  0.6702  0.7512
 8973TIP3    H248411   2.849   4.295  12.851 -0.9955  0.0090 -0.8960
 8974TIP3   OH248412   3.194   2.591   1.992  0.4116 -0.1442  0.2374
 8974TIP3    H148413   3.207   2.540   1.912  1.4853  1.1635 -0.4690
 8974TIP3    H248414   3.099   2.603   1.998  0.3711  0.6471 -1.4599
 8975TIP3   OH248415   1.245   0.548   3.692 -0.1079  0.1062  0.0813
 8975TIP3    H148416   1.326   0.522   3.648  0.2148  0.9630  0.1324
 8975TIP3    H248417   1.203   0.608   3.630 -0.0427  0.6994  0.5971
 8976TIP3   OH248418   3.675   4.276   4.561 -0.0020  0.2863  0.1131
 8976TIP3    H148419   3.648   4.202   4.507 -3.8993  0.8246  1.0284
 8976TIP3    H248420   3.686   4.349   4.500  0.3297 -0.1833 -0.3958
 8977TIP3   OH248421   4.135   6.423   4.314 -0.5529 -0.1057  0.1798
 8977TIP3    H148422   4.121   6.358   4.244 -0.6060 -0.7016  0.7328
 8977TIP3    H248423   4.201   6.482   4.279 -1.1790  0.0986 -0.7023
 8978TIP3   OH248424   6.651   3.026  12.320  0.2787  0.2022 -0.5813
 8978TIP3    H148425   6.595   3.017  12.243  0.1643  1.5707 -0.6941
 8978TIP3    H248426   6.593   3.007  12.394 -0.1296  0.7948 -0.7416
 8979TIP3   OH248427   5.315   5.952  16.091 -0.1748  0.1997 -0.2284
 8979TIP3    H148428   5.287   5.894  16.162 -0.1632 -0.2006 -0.5475
 8979TIP3    H248429   5.367   6.020  16.134 -1.4361  0.8429  0.3484
 8980TIP3   OH248430   0.070   5.208   3.557 -0.1158 -0.2615 -0.0332
 8980TIP3    H148431   0.067   5.255   3.641 -0.1465  0.0920 -0.2318
 8980TIP3    H248432   0.097   5.119   3.581  0.1623 -0.0855  0.3226
 8981TIP3   OH248433   4.168   2.995   0.856  0.2722 -0.2577 -0.4436
 8981TIP3    H148434   4.146   2.969   0.945 -0.0253  2.5435  0.3734
 8981TIP3    H248435   4.128   2.927   0.801  2.1041 -3.1675  1.5050
 8982TIP3   OH248436   2.843   6.455  13.051  0.1375 -0.4160 -0.4452
 8982TIP3    H148437   2.926   6.502  13.054 -0.9415  1.7029 -1.1669
 8982TIP3    H248438   2.866   6.365  13.028  2.1088  0.4622 -2.2397
 8983TIP3   OH248439   3.439   4.077   1.850  0.5229  0.4435 -0.2562
 8983TIP3    H148440   3.459   4.000   1.797  0.2689  0.0143  0.2649
 8983TIP3    H248441   3.424   4.042   1.937  0.9577  1.1468  0.1069
 8984TIP3   OH248442   5.675   3.396  15.819 -0.2521  0.6750  0.6062
 8984TIP3    H148443   5.614   3.418  15.750 -0.1319 -1.3968 -0.2295
 8984TIP3    H248444   5.754   3.445  15.798  0.7305 -1.8509 -2.3652
 8985TIP3   OH248445   1.442   1.848   5.066 -0.1178  0.1111 -0.6713
 8985TIP3    H148446   1.493   1.888   5.136 -1.2802 -1.2777  1.0678
 8985TIP3    H248447   1.507   1.822   5.000  1.2545 -0.1880  0.7422
 8986TIP3   OH248448   6.538   5.572   5.949 -0.3698 -0.3273  0.5518
 8986TIP3    H148449   6.483   5.538   6.020 -1.3295 -2.1754 -0.9739
 8986TIP3    H248450   6.595   5.499   5.927  0.2182  0.3745 -0.2963
 8987TIP3   OH248451   3.256   5.434  10.170 -0.0877  0.5900 -0.1989
 8987TIP3    H148452   3.286   5.524  10.185 -2.0620  1.0855  1.1442
 8987TIP3    H248453   3.178   5.444  10.116 -0.6532 -0.2831  0.4362
 8988TIP3   OH248454   0.817   6.158   2.180 -0.6663  0.2978  0.1120
 8988TIP3    H148455   0.759   6.191   2.248 -1.3015 -0.6777  0.0708
 8988TIP3    H248456   0.901   6.201   2.196 -0.6734 -0.2455  1.7907
 8989TIP3   OH248457   6.226   5.498   1.397  0.4897  0.6367 -0.1398
 8989TIP3    H148458   6.157   5.548   1.353 -1.6079 -1.4440  0.6505
 8989TIP3    H248459   6.277   5.461   1.325 -0.0425  1.0580 -0.7519
 8990TIP3   OH248460   6.283   4.988  15.321 -0.1856 -0.3235  0.3285
 8990TIP3    H148461   6.363   4.959  15.278 -0.8070 -0.7971 -0.5463
 8990TIP3    H248462   6.236   5.037  15.254 -1.1701 -1.0542  0.4649
 8991TIP3   OH248463   6.763   0.452   4.355 -0.3895 -0.1412  0.0035
 8991TIP3    H148464   6.718   0.372   4.384 -0.2077  0.3003  1.6088
 8991TIP3    H248465   6.833   0.464   4.419 -0.2899  1.1983 -0.3381
 8992TIP3   OH248466   0.454   0.383  13.228 -0.0745 -0.5020 -0.4072
 8992TIP3    H148467   0.509   0.450  13.187 -0.4103  0.4092  0.6011
 8992TIP3    H248468   0.515   0.327  13.275  0.0114  0.6005  0.8453
 8993TIP3   OH248469   2.370   4.995   5.663 -0.3243  0.2382 -0.1040
 8993TIP3    H148470   2.438   4.958   5.607 -0.7761  1.0817 -1.2404
 8993TIP3    H248471   2.293   4.940   5.648 -0.1186 -0.2569  0.6079
 8994TIP3   OH248472   2.981   6.818  15.476 -0.2731 -0.2788  0.0662
 8994TIP3    H148473   2.989   6.767  15.557  0.6148  0.6765  0.6055
 8994TIP3    H248474   2.887   6.821  15.459 -0.5661  0.2598  1.5725
 8995TIP3   OH248475   5.195   1.612  12.206  0.2634  0.3393  0.7849
 8995TIP3    H148476   5.288   1.633  12.212 -0.2258  2.8501  0.9165
 8995TIP3    H248477   5.171   1.636  12.117  0.0849 -2.0999  0.1297
 8996TIP3   OH248478   3.493   4.434   3.433  0.4919 -0.2221  0.7048
 8996TIP3    H148479   3.567   4.477   3.476 -0.0278  1.3029  0.1166
 8996TIP3    H248480   3.532   4.394   3.355  0.8341 -0.1099  0.8151
 8997TIP3   OH248481   2.536   4.133   2.695 -0.6952 -0.3673 -0.6211
 8997TIP3    H148482   2.471   4.202   2.703  1.0274  1.1500  1.1555
 8997TIP3    H248483   2.612   4.175   2.657  0.9952 -0.7531  2.0873
 8998TIP3   OH248484   2.095   2.569   1.232 -0.3985 -0.6024  0.1737
 8998TIP3    H148485   2.115   2.654   1.192 -0.0612 -1.8321 -2.5281
 8998TIP3    H248486   2.180   2.532   1.255 -0.5819  0.0131  1.9876
 8999TIP3   OH248487   1.575   1.303  15.864 -0.1563 -0.7890  0.3088
 8999TIP3    H148488   1.661   1.346  15.855 -1.0756  1.3965  1.2173
 8999TIP3    H248489   1.557   1.267  15.777  0.5312  1.0534 -0.6534
 9000TIP3   OH248490   3.787   1.791   2.760 -0.2172  0.1516 -0.5133
 9000TIP3    H148491   3.701   1.793   2.716 -1.5668 -1.4016  1.8462
 9000TIP3    H248492   3.782   1.860   2.826  0.5476  0.3309 -0.6299
 9001TIP3   OH248493   5.696   4.750   0.778 -0.2058 -0.2061  0.6301
 9001TIP3    H148494   5.713   4.687   0.849 -1.4126  0.2184  1.3294
 9001TIP3    H248495   5.646   4.700   0.714  1.6320 -0.8410 -0.3956
 9002TIP3   OH248496   1.981   0.061  15.624  0.3170 -0.3013  0.1616
 9002TIP3    H148497   2.020   0.148  15.613 -1.1508  0.2489 -1.0439
 9002TIP3    H248498   1.910   0.074  15.687  0.3971 -0.7327  0.3405
 9003TIP3   OH248499   3.706   6.717   4.457  0.3418 -0.3833 -0.1518
 9003TIP3    H148500   3.702   6.745   4.549  2.4674 -0.8757  0.1504
 9003TIP3    H248501   3.624   6.748   4.419 -0.7847 -0.5265  1.9961
 9004TIP3   OH248502   0.545   4.949  16.191 -0.1043 -0.7570  0.0934
 9004TIP3    H148503   0.475   4.890  16.220 -0.5869 -0.2280  0.0141
 9004TIP3    H248504   0.578   4.909  16.110 -2.1025  0.3390 -1.3532
 9005TIP3   OH248505   2.538   5.359  16.460 -0.2823  0.1081 -0.2409
 9005TIP3    H148506   2.524   5.378  16.367 -0.6120  2.7652  0.2640
 9005TIP3    H248507   2.454   5.326  16.491  0.1187 -1.7818 -1.0525
 9006TIP3   OH248508   4.224   1.365  13.368 -0.0361  0.2152 -0.1917
 9006TIP3    H148509   4.294   1.412  13.411 -0.3930 -1.6085  2.6545
 9006TIP3    H248510   4.265   1.284  13.336 -0.9382 -1.7656  3.1249
 9007TIP3   OH248511   0.273   0.057   5.286  0.1399  0.3341  0.2017
 9007TIP3    H148512   0.314  -0.027   5.308 -1.4234 -0.8104 -0.9429
 9007TIP3    H248513   0.286   0.065   5.191 -0.7650  0.7870  0.1080
 9008TIP3   OH248514   3.498   1.358  10.742  0.1167 -0.3982  0.9469
 9008TIP3    H148515   3.508   1.431  10.680  1.3354 -1.7621 -0.5843
 9008TIP3    H248516   3.584   1.351  10.784  1.3802 -3.1582 -1.6651
 9009TIP3   OH248517   6.798   4.574   1.083 -0.2415 -0.0820 -0.1848
 9009TIP3    H148518   6.776   4.631   1.157  0.5978 -1.6947  1.3777
 9009TIP3    H248519   6.840   4.632   1.020 -1.6343  1.4800  0.2422
 9010TIP3   OH248520   6.641   3.589  17.004  0.1725 -0.0651  0.0539
 9010TIP3    H148521   6.610   3.638  16.928 -1.3790 -0.9275  0.1026
 9010TIP3    H248522   6.694   3.518  16.968 -0.7492 -0.6079 -0.2440
 9011TIP3   OH248523   4.013   3.238  15.178 -0.6494  0.3035 -0.1838
 9011TIP3    H148524   4.017   3.202  15.089  0.7769  2.8387 -1.2615
 9011TIP3    H248525   4.043   3.328  15.168  1.6669  0.0948  3.1898
 9012TIP3   OH248526   5.387   3.542  12.932  0.2531  0.1359  0.2325
 9012TIP3    H148527   5.435   3.462  12.908  0.2418 -0.2582  1.4672
 9012TIP3    H248528   5.339   3.565  12.852 -2.1694 -2.8394  0.5996
 9013TIP3   OH248529   5.600   1.864   4.913  0.9319  0.6587  0.5651
 9013TIP3    H148530   5.515   1.820   4.912  0.2618  1.9003  0.6782
 9013TIP3    H248531   5.660   1.802   4.872 -0.6374  0.8983 -2.3234
 9014TIP3   OH248532   4.477   6.372  15.701 -0.0022  0.0035  0.7542
 9014TIP3    H148533   4.484   6.461  15.668  0.3111  0.4636  1.9929
 9014TIP3    H248534   4.568   6.342  15.709 -0.1180 -0.9284 -0.8633
 9015TIP3   OH248535   6.120   3.032   3.325  0.5100  0.1877  0.2061
 9015TIP3    H148536   6.099   2.951   3.278 -2.9364  0.3018  1.2889
 9015TIP3    H248537   6.162   3.002   3.406  1.1876 -0.3617 -0.3385
 9016TIP3   OH248538   4.985   1.921  11.120  0.3937  0.2243 -0.2532
 9016TIP3    H148539   4.998   1.828  11.101 -1.8058 -0.2819  0.4636
 9016TIP3    H248540   4.954   1.924  11.210  0.2527  1.6406 -0.3211
 9017TIP3   OH248541   4.628   2.785   0.552 -0.3811  0.2834  0.0237
 9017TIP3    H148542   4.613   2.692   0.535  0.9159 -0.1063  0.8865
 9017TIP3    H248543   4.544   2.816   0.585 -0.6192 -0.7590  0.4600
 9018TIP3   OH248544   6.416   2.680  15.139 -0.6586 -0.1048  0.1787
 9018TIP3    H148545   6.433   2.754  15.197  1.1065 -0.0453 -0.3525
 9018TIP3    H248546   6.322   2.683  15.123 -0.6356  2.0283  0.1839
 9019TIP3   OH248547   2.015   3.420   2.525 -0.1171 -0.6468  0.1038
 9019TIP3    H148548   1.984   3.411   2.436 -1.8806  1.2816  0.4513
 9019TIP3    H248549   2.076   3.494   2.522 -0.7538 -0.0926  0.6098
 9020TIP3   OH248550   1.994   2.830   3.068 -0.5053  0.6354  0.0013
 9020TIP3    H148551   1.994   2.860   3.159 -2.5822 -4.0270  1.8559
 9020TIP3    H248552   1.911   2.862   3.032 -1.4244 -0.4812  1.0425
 9021TIP3   OH248553   3.082   3.783   5.453 -0.0276  0.3534  0.1302
 9021TIP3    H148554   3.066   3.871   5.417  1.7995  0.8842  0.4861
 9021TIP3    H248555   3.074   3.795   5.547 -2.9401 -0.6233  0.0991
 9022TIP3   OH248556   0.004   0.829  12.787  0.4142 -0.7241  0.0568
 9022TIP3    H148557  -0.090   0.828  12.767  0.4963 -0.4353 -0.3603
 9022TIP3    H248558   0.046   0.811  12.703  0.7955  1.1482 -0.1884
 9023TIP3   OH248559   5.777   3.192  10.734 -0.2900  0.1974  0.5096
 9023TIP3    H148560   5.727   3.235  10.803  0.9638  0.6518  1.1505
 9023TIP3    H248561   5.845   3.256  10.710  0.7026 -0.8503  0.4680
 9024TIP3   OH248562   6.739   4.920   3.888 -0.0970  0.8358  0.0483
 9024TIP3    H148563   6.734   5.012   3.861 -1.4818  0.7531 -0.0408
 9024TIP3    H248564   6.748   4.923   3.983 -0.0513  1.0566  0.0374
 9025TIP3   OH248565   2.751   4.284  11.839  0.2407 -0.7068  0.2213
 9025TIP3    H148566   2.740   4.217  11.772 -0.0041 -0.0487 -0.4091
 9025TIP3    H248567   2.677   4.344  11.826  1.2603  0.5006 -0.2092
 9026TIP3   OH248568   1.566   5.669   4.676 -0.3812  0.2781 -0.2063
 9026TIP3    H148569   1.517   5.732   4.622  3.7489  3.2192 -1.0338
 9026TIP3    H248570   1.543   5.693   4.766 -1.4364  0.6269 -0.5451
 9027TIP3   OH248571   5.382   6.357   3.291 -0.1042  0.0124 -0.0059
 9027TIP3    H148572   5.340   6.282   3.248  0.5745 -0.3823  0.0038
 9027TIP3    H248573   5.381   6.426   3.225 -1.9010  0.4429  0.4034
 9028TIP3   OH248574   4.283   1.820  16.872 -0.4042 -0.6137 -0.3116
 9028TIP3    H148575   4.188   1.829  16.866 -0.3319  0.0624 -0.6945
 9028TIP3    H248576   4.314   1.839  16.783  0.2246  1.5094  0.2895
 9029TIP3   OH248577   5.362   1.252  12.114 -0.1926  0.1388  0.2926
 9029TIP3    H148578   5.286   1.294  12.074 -0.4504 -0.3682  0.2436
 9029TIP3    H248579   5.342   1.159  12.111 -0.6035  0.1076  2.3562
 9030TIP3   OH248580   3.775   2.388   1.514 -0.0086 -0.0331  0.3779
 9030TIP3    H148581   3.770   2.355   1.604 -0.3150 -2.0727 -0.3468
 9030TIP3    H248582   3.817   2.318   1.465 -1.3459  0.3490 -1.3954
 9031TIP3   OH248583   3.411   6.078   0.159 -0.5426 -0.6577 -0.5137
 9031TIP3    H148584   3.321   6.103   0.137 -0.3066 -0.6071 -1.4999
 9031TIP3    H248585   3.460   6.096   0.078  1.0480  2.5774  0.9739
 9032TIP3   OH248586   4.951   5.290   1.117 -0.6908 -0.0154 -0.0989
 9032TIP3    H148587   5.030   5.262   1.071 -0.7424 -2.0725  0.9331
 9032TIP3    H248588   4.882   5.234   1.082 -1.7796  1.8358 -1.0759
 9033TIP3   OH248589   0.178   4.260   0.381 -0.9910 -0.0992  0.2416
 9033TIP3    H148590   0.269   4.287   0.368 -1.4261  0.4491 -2.1794
 9033TIP3    H248591   0.142   4.322   0.444  0.3364 -0.4702  1.4072
 9034TIP3   OH248592   5.705   1.065   1.642 -0.3272  0.8779  0.2945
 9034TIP3    H148593   5.643   1.064   1.715 -0.1082 -0.1601  0.4886
 9034TIP3    H248594   5.785   1.027   1.679  0.4764  2.2912  0.0748
 9035TIP3   OH248595   3.675   6.108   5.229  0.5724  0.4154 -0.0607
 9035TIP3    H148596   3.642   6.037   5.285  0.4583  0.4237 -0.1164
 9035TIP3    H248597   3.727   6.064   5.162  1.3552  0.4587  0.4956
 9036TIP3   OH248598   2.515   5.673  13.736  0.0093  0.2145 -0.2820
 9036TIP3    H148599   2.536   5.752  13.686 -0.1319 -0.0557 -0.7732
 9036TIP3    H248600   2.492   5.706  13.823  0.2140  0.6944 -0.4032
 9037TIP3   OH248601   5.982   6.281  16.517 -0.0057 -0.7651 -0.5580
 9037TIP3    H148602   5.949   6.201  16.558  0.2880 -1.4020 -1.5335
 9037TIP3    H248603   5.921   6.349  16.546  1.1094 -0.8316  2.2453
 9038TIP3   OH248604   5.235   5.171   1.214 -0.2261  0.7140 -0.3695
 9038TIP3    H148605   5.159   5.116   1.192  0.7611 -1.0933  0.5090
 9038TIP3    H248606   5.246   5.159   1.308  1.9083 -0.1040 -0.6803
 9039TIP3   OH248607   4.656   0.354   3.273  0.2743  0.6321  0.8913
 9039TIP3    H148608   4.610   0.423   3.320 -2.6148 -1.0249  0.7457
 9039TIP3    H248609   4.641   0.373   3.180 -0.8105 -0.3039  0.8559
 9040TIP3   OH248610   3.694   5.131   1.749 -0.1494  0.1105 -0.6505
 9040TIP3    H148611   3.722   5.213   1.791 -1.8039  0.9229 -1.0790
 9040TIP3    H248612   3.602   5.145   1.728  0.2309 -0.8212 -3.2603
 9041TIP3   OH248613   3.162   6.078  15.986 -0.5792 -0.3237  0.4162
 9041TIP3    H148614   3.184   5.985  15.987 -0.5281 -0.3520 -1.0854
 9041TIP3    H248615   3.071   6.081  15.957 -0.2635  0.1325 -0.5615
 9042TIP3   OH248616   5.974   0.826   1.317  0.0575 -0.2496 -0.2066
 9042TIP3    H148617   5.917   0.755   1.348 -0.3692 -0.4243 -1.3470
 9042TIP3    H248618   5.987   0.807   1.224 -1.9797  2.3804 -1.1577
 9043TIP3   OH248619   6.217   1.487  12.868  0.5909  0.0259 -0.2280
 9043TIP3    H148620   6.212   1.583  12.871  0.4751  0.0112  0.0312
 9043TIP3    H248621   6.303   1.469  12.830  0.1325  0.2496 -1.4417
 9044TIP3   OH248622   6.000   4.285  15.538 -0.0192  0.5354  0.5063
 9044TIP3    H148623   6.041   4.235  15.466  0.9774  1.6966  0.2267
 9044TIP3    H248624   6.064   4.280  15.609  0.3569  1.8140  0.2916
 9045TIP3   OH248625   3.752   2.407  16.396 -0.0509 -0.5316 -0.2014
 9045TIP3    H148626   3.738   2.483  16.453  1.3980 -1.0864  0.9829
 9045TIP3    H248627   3.794   2.443  16.318 -0.5781  0.0357 -0.2360
 9046TIP3   OH248628   0.133   1.560   2.026 -0.4212  0.3866 -0.1159
 9046TIP3    H148629   0.166   1.599   2.107  0.2173 -0.9087  0.2735
 9046TIP3    H248630   0.039   1.577   2.028 -0.1934  1.7545  0.0981
 9047TIP3   OH248631   1.129   4.070   2.396  0.5181 -0.0673 -0.1391
 9047TIP3    H148632   1.222   4.092   2.387  0.3225  0.2215 -1.7215
 9047TIP3    H248633   1.088   4.151   2.427  0.2716  1.0110 -3.0202
 9048TIP3   OH248634   1.000   3.817   1.243  0.3298 -0.1398  0.0655
 9048TIP3    H148635   1.054   3.750   1.201  1.0068  0.6995 -0.4369
 9048TIP3    H248636   1.058   3.892   1.255 -0.8111  0.9739 -0.9407
 9049TIP3   OH248637   3.740   5.773   5.538  0.0631  0.3318 -0.1848
 9049TIP3    H148638   3.773   5.790   5.626  0.4865  0.1667 -0.3082
 9049TIP3    H248639   3.807   5.810   5.480 -1.1498  2.2403 -0.4457
 9050TIP3   OH248640   3.409   3.456   0.196 -0.5932  0.4831 -0.3195
 9050TIP3    H148641   3.478   3.396   0.169 -1.5862 -0.4948 -0.7822
 9050TIP3    H248642   3.452   3.517   0.256  0.7265  0.1061 -0.8391
 9051TIP3   OH248643   5.870   6.093   0.532 -0.3947  0.5041 -0.3654
 9051TIP3    H148644   5.840   6.065   0.446 -1.4460 -0.2362  0.2120
 9051TIP3    H248645   5.923   6.020   0.564 -2.6610 -0.7003  0.9024
 9052TIP3   OH248646   3.866   2.233  10.898  0.4273  1.1077 -0.4236
 9052TIP3    H148647   3.786   2.225  10.845 -1.2165  0.1012  2.0255
 9052TIP3    H248648   3.916   2.153  10.878  0.0773  0.9767 -0.7938
 9053TIP3   OH248649   6.708   3.109   1.785  0.6266  0.5705 -0.6707
 9053TIP3    H148650   6.763   3.042   1.745 -2.3588 -1.0621 -2.4459
 9053TIP3    H248651   6.633   3.060   1.821  0.1857  2.6422  1.4668
 9054TIP3   OH248652   1.411   2.370   3.405  0.1343 -0.2216  0.3453
 9054TIP3    H148653   1.457   2.448   3.434 -1.5044  0.2491  1.9007
 9054TIP3    H248654   1.397   2.319   3.485 -1.8532 -0.4028 -0.0652
 9055TIP3   OH248655   5.632   3.169   3.068  0.3939  0.2676 -0.3774
 9055TIP3    H148656   5.717   3.148   3.028  0.7351  1.1509 -0.1282
 9055TIP3    H248657   5.652   3.235   3.134 -0.3522 -0.2359  0.3817
 9056TIP3   OH248658   5.715   2.846   2.825  0.1718 -0.0590 -0.0814
 9056TIP3    H148659   5.707   2.764   2.874 -1.7255 -0.1291 -0.4249
 9056TIP3    H248660   5.777   2.899   2.875  1.1376 -1.5431  0.3454
 9057TIP3   OH248661   5.426   6.342  13.335 -0.5673  0.4906  0.3632
 9057TIP3    H148662   5.405   6.269  13.276 -1.6948  2.6612 -2.1295
 9057TIP3    H248663   5.521   6.347  13.333 -0.5594  0.1189 -0.7747
 9058TIP3   OH248664   2.510   2.026   6.281 -0.0806 -0.1356 -0.0323
 9058TIP3    H148665   2.594   2.021   6.327  0.9317 -0.1587 -1.7730
 9058TIP3    H248666   2.486   2.118   6.286  0.0828 -0.1153  0.4284
 9059TIP3   OH248667   3.080   5.464   2.202  0.1564  0.6742  0.5138
 9059TIP3    H148668   3.161   5.429   2.239  0.2003  0.5943  0.3404
 9059TIP3    H248669   3.109   5.525   2.134  0.0666 -0.6710 -0.7900
 9060TIP3   OH248670   6.692   0.442  15.105 -0.5688  0.5799  0.4951
 9060TIP3    H148671   6.611   0.488  15.126 -0.3385  1.2453 -0.0269
 9060TIP3    H248672   6.726   0.414  15.190 -1.3592  0.2593  0.7155
 9061TIP3   OH248673   4.812   4.307   4.009 -0.1333  0.0061  0.2829
 9061TIP3    H148674   4.747   4.322   4.078 -0.8268  0.0619 -0.3632
 9061TIP3    H248675   4.892   4.282   4.056 -0.5697  0.1102  1.1040
 9062TIP3   OH248676   4.827   4.812  11.411  0.6848 -0.0406  0.2291
 9062TIP3    H148677   4.897   4.786  11.351 -0.7801 -0.5145 -1.3458
 9062TIP3    H248678   4.748   4.813  11.357 -0.8819 -1.3661  2.3309
 9063TIP3   OH248679   2.672   6.423   0.172  0.2938  0.1868  0.2071
 9063TIP3    H148680   2.592   6.418   0.225 -0.0685  0.7327 -0.2704
 9063TIP3    H248681   2.640   6.424   0.082  0.8813 -0.2786 -0.0115
 9064TIP3   OH248682   2.428   2.278   0.329 -0.5407 -0.1909  0.0050
 9064TIP3    H148683   2.430   2.190   0.366  1.4576  0.5360  1.8389
 9064TIP3    H248684   2.335   2.299   0.321 -1.0419 -1.8929  0.9714
 9065TIP3   OH248685   5.506   1.225   0.329  0.1943  0.3676 -0.4935
 9065TIP3    H148686   5.571   1.160   0.356  0.0118  0.1652 -0.5457
 9065TIP3    H248687   5.549   1.273   0.258  0.8905  1.2680  0.5070
 9066TIP3   OH248688   1.942   6.104  11.189 -0.3463  0.7789 -0.2606
 9066TIP3    H148689   1.860   6.065  11.159 -0.0305 -0.5966  0.5966
 9066TIP3    H248690   1.955   6.179  11.131 -1.9206  0.7028 -0.7643
 9067TIP3   OH248691   4.748   0.677  15.297 -0.3940  0.1549 -0.0875
 9067TIP3    H148692   4.671   0.684  15.241  0.5626 -0.2890 -1.5335
 9067TIP3    H248693   4.820   0.706  15.241  0.8119 -1.6312  0.4522
 9068TIP3   OH248694   5.335   6.031   2.836  0.0496  0.6114 -0.9443
 9068TIP3    H148695   5.262   5.983   2.796 -0.1861  0.8842 -0.8454
 9068TIP3    H248696   5.411   5.974   2.823 -0.2755  0.0908 -0.6005
 9069TIP3   OH248697   3.406   4.906   4.788  0.4441  0.7910 -0.1205
 9069TIP3    H148698   3.337   4.897   4.722  0.0651 -1.4381  0.4898
 9069TIP3    H248699   3.366   4.874   4.869  2.1123 -0.3425  0.2971
 9070TIP3   OH248700   6.836   0.954   1.802 -0.7070  0.1439 -0.0503
 9070TIP3    H148701   6.883   0.980   1.881 -0.5820  1.0302 -0.4024
 9070TIP3    H248702   6.896   0.894   1.757 -0.6006 -0.0210  0.3112
 9071TIP3   OH248703   4.377   4.254  13.593 -0.0176  0.0606  0.0498
 9071TIP3    H148704   4.428   4.328  13.626  0.3486 -0.0841 -0.1889
 9071TIP3    H248705   4.314   4.235  13.663  1.9770 -1.4729  1.5658
 9072TIP3   OH248706   5.797   3.400   2.797 -1.0724 -0.3873 -0.0791
 9072TIP3    H148707   5.801   3.478   2.741 -1.4803  0.2679  0.7890
 9072TIP3    H248708   5.711   3.362   2.780 -1.8955  0.7599  1.3163
 9073TIP3   OH248709   5.172   1.066  10.585  0.3535 -0.2700  0.7617
 9073TIP3    H148710   5.200   0.977  10.561  1.0664 -0.0978  0.9303
 9073TIP3    H248711   5.236   1.123  10.543  1.5234  0.0594  2.8407
 9074TIP3   OH248712   1.747   3.484  14.652 -0.4792  0.0930 -0.1247
 9074TIP3    H148713   1.756   3.576  14.626  0.1813 -0.1086 -0.6511
 9074TIP3    H248714   1.826   3.466  14.703  2.0523 -1.4881 -4.0979
 9075TIP3   OH248715   4.553   3.676  11.825 -0.6655  0.7832  0.2303
 9075TIP3    H148716   4.537   3.638  11.739  0.8474  2.0481 -0.6862
 9075TIP3    H248717   4.605   3.610  11.872 -1.8175 -0.0674  0.3375
 9076TIP3   OH248718   1.128   1.514   3.222  0.4029 -0.2513  0.2771
 9076TIP3    H148719   1.131   1.506   3.317  1.1354  1.7276  0.4630
 9076TIP3    H248720   1.213   1.483   3.192  0.4113 -0.2630  0.3133
 9077TIP3   OH248721   6.527   3.051   2.322  0.3841 -0.4825  0.3809
 9077TIP3    H148722   6.523   2.978   2.260 -0.5452 -0.3718  0.3061
 9077TIP3    H248723   6.446   3.045   2.372  0.7451 -0.0720  1.0305
 9078TIP3   OH248724   3.192   6.004  16.696 -0.5402  0.1472  0.5681
 9078TIP3    H148725   3.108   6.047  16.715 -0.5631  0.0042  0.7937
 9078TIP3    H248726   3.189   5.922  16.745 -1.8781 -1.7368 -2.3787
 9079TIP3   OH248727   3.502   3.504  10.585  0.4810  0.6847 -0.6054
 9079TIP3    H148728   3.484   3.410  10.575 -0.3949  0.8608 -0.7727
 9079TIP3    H248729   3.596   3.509  10.601  0.4052 -0.2941  0.3042
 9080TIP3   OH248730   4.248   3.528  15.813  0.3108  0.4377 -1.1038
 9080TIP3    H148731   4.208   3.585  15.879  1.4892 -0.4864  0.4889
 9080TIP3    H248732   4.341   3.549  15.816  0.8117 -1.5894 -0.3630
 9081TIP3   OH248733   6.205   5.129  13.267  0.0059  0.4035  0.2096
 9081TIP3    H148734   6.250   5.190  13.209  2.1353 -2.3878 -1.3255
 9081TIP3    H248735   6.117   5.120  13.229  0.4509  0.7418 -0.9290
 9082TIP3   OH248736   2.154   4.397   0.160 -0.1830  0.1821 -0.2623
 9082TIP3    H148737   2.160   4.485   0.123 -1.4172  0.9002  1.1408
 9082TIP3    H248738   2.245   4.368   0.168  0.2093  1.0388 -1.3597
 9083TIP3   OH248739   3.431   4.461  15.279 -0.1748 -0.5873 -0.4084
 9083TIP3    H148740   3.359   4.476  15.340 -0.4954  0.3671 -1.0050
 9083TIP3    H248741   3.426   4.533  15.217  1.7302 -0.0826 -0.0480
 9084TIP3   OH248742   1.950   2.558   2.504 -0.2220 -0.0318 -0.0369
 9084TIP3    H148743   1.914   2.646   2.507 -1.6789 -0.5510  3.6608
 9084TIP3    H248744   1.873   2.501   2.507  0.7287 -1.3935 -0.6411
 9085TIP3   OH248745   5.196   2.836   1.304  0.5366 -0.3528 -0.3245
 9085TIP3    H148746   5.229   2.766   1.361  2.0325 -0.3447 -1.1353
 9085TIP3    H248747   5.268   2.899   1.300 -0.3433  0.6647 -0.5659
 9086TIP3   OH248748   1.262   4.207   2.760  0.3651 -0.1011  0.1787
 9086TIP3    H148749   1.195   4.142   2.738 -0.9704  1.3969 -0.2857
 9086TIP3    H248750   1.229   4.289   2.726  0.4273  1.5182  3.6270
 9087TIP3   OH248751   1.620   5.939  10.661  0.1668  0.0118  0.7586
 9087TIP3    H148752   1.564   5.977  10.593  1.9015 -0.0747 -0.8315
 9087TIP3    H248753   1.564   5.930  10.737 -0.8043  4.4437  0.8617
 9088TIP3   OH248754   0.772   5.853  14.156 -0.5547 -0.4861 -0.2542
 9088TIP3    H148755   0.695   5.880  14.206  0.8786  2.2029  0.6755
 9088TIP3    H248756   0.765   5.900  14.073 -0.0264 -0.4342 -0.2739
 9089TIP3   OH248757   6.409   0.380   4.159  0.2433  0.3901  0.3901
 9089TIP3    H148758   6.423   0.388   4.064 -0.2149 -0.2318  0.2635
 9089TIP3    H248759   6.351   0.453   4.181 -0.1355  0.1841  0.0833
 9090TIP3   OH248760   1.800   1.104  12.454 -0.6232 -0.2689  0.1056
 9090TIP3    H148761   1.847   1.059  12.525  0.8369  0.7864 -0.1320
 9090TIP3    H248762   1.711   1.114  12.487  0.1122  0.5595  1.9863
 9091TIP3   OH248763   3.468   0.802   5.229 -0.9302 -0.0020 -0.1285
 9091TIP3    H148764   3.544   0.743   5.231 -2.2803 -1.8082  0.5462
 9091TIP3    H248765   3.482   0.861   5.303 -0.3261 -0.5173  0.1844
 9092TIP3   OH248766   2.638   5.172  13.615 -0.3027 -0.3057 -0.0521
 9092TIP3    H148767   2.600   5.175  13.703 -0.6336 -1.8901 -0.0998
 9092TIP3    H248768   2.639   5.263  13.586 -0.5690  0.2011  1.4291
 9093TIP3   OH248769   2.934   2.781   1.633  0.5001  0.0248  0.5395
 9093TIP3    H148770   2.929   2.686   1.624 -0.4077  0.2281 -1.4492
 9093TIP3    H248771   2.849   2.806   1.669  0.9709  0.0627  1.6863
 9094TIP3   OH248772   2.552   5.641   2.419  0.2988  0.3102  0.2097
 9094TIP3    H148773   2.534   5.693   2.497 -2.8523  0.6871 -0.6564
 9094TIP3    H248774   2.521   5.694   2.346  1.7237 -0.7029 -1.2178
 9095TIP3   OH248775   5.853   0.578  16.370 -0.0726  0.3326  0.1395
 9095TIP3    H148776   5.841   0.524  16.292 -0.9019  1.1808 -0.3425
 9095TIP3    H248777   5.948   0.586  16.379  0.0527 -0.8189 -0.0377
 9096TIP3   OH248778   5.900   5.556  14.147  0.1018 -0.0147 -0.1399
 9096TIP3    H148779   5.942   5.607  14.078  1.1589  1.5614  1.5729
 9096TIP3    H248780   5.963   5.487  14.167  1.1555  1.2810  1.2006
 9097TIP3   OH248781   5.485   2.058   4.552  1.0203  0.0031 -0.2830
 9097TIP3    H148782   5.436   2.070   4.471  0.2745  2.1288  0.4227
 9097TIP3    H248783   5.445   2.119   4.614  1.0958 -2.0194  1.9270
 9098TIP3   OH248784   1.211   5.811   3.404 -0.0515 -0.1079 -0.1242
 9098TIP3    H148785   1.196   5.831   3.496  1.4641 -1.0407  0.3658
 9098TIP3    H248786   1.264   5.884   3.372  0.6653 -0.4926  0.1546
 9099TIP3   OH248787   5.586   2.223   1.920  0.1261  0.0525 -0.3777
 9099TIP3    H148788   5.654   2.177   1.871 -0.1396  1.5606 -2.2907
 9099TIP3    H248789   5.633   2.290   1.969  0.2163 -0.2146 -0.1014
 9100TIP3   OH248790   0.214   5.366  14.103  0.3957 -0.2320 -0.2888
 9100TIP3    H148791   0.258   5.281  14.091 -0.3689 -0.7262  0.2462
 9100TIP3    H248792   0.165   5.379  14.022 -1.0235 -1.2660  0.3541
 9101TIP3   OH248793   0.587   4.522  11.023 -0.1475 -0.0964 -0.3204
 9101TIP3    H148794   0.675   4.513  10.986  0.3877  2.2229  0.2203
 9101TIP3    H248795   0.602   4.553  11.112 -1.5056  0.9907 -0.4432
 9102TIP3   OH248796   5.283   4.484  16.457  0.5868  0.2391  0.3258
 9102TIP3    H148797   5.329   4.568  16.456 -0.1058  0.6662 -2.3209
 9102TIP3    H248798   5.298   4.447  16.370 -1.7109 -0.9037  0.3362
 9103TIP3   OH248799   2.902   3.025   3.250 -0.3674  0.2217  0.4882
 9103TIP3    H148800   2.820   2.979   3.265 -0.4855  0.0087 -0.7043
 9103TIP3    H248801   2.963   2.987   3.313 -0.3690 -1.8666 -0.6666
 9104TIP3   OH248802   4.917   0.319   1.377 -0.5973 -0.3374  0.2666
 9104TIP3    H148803   4.940   0.392   1.434  0.3145 -0.0961 -0.3999
 9104TIP3    H248804   4.981   0.251   1.397  0.8015  0.3445 -1.6080
 9105TIP3   OH248805   2.782   0.858   1.553 -0.0332  0.0862  0.4013
 9105TIP3    H148806   2.731   0.939   1.560  2.4234  1.6580  1.5100
 9105TIP3    H248807   2.866   0.886   1.518  1.1103 -1.8634  1.4451
 9106TIP3   OH248808   2.518   4.590   2.783 -0.5434  0.1610 -0.1498
 9106TIP3    H148809   2.606   4.617   2.754 -0.4698  0.6850  0.5328
 9106TIP3    H248810   2.534   4.517   2.843 -0.6509 -0.4647 -0.8726
 9107TIP3   OH248811   1.606   2.355  14.339  0.1292  0.2498 -0.0451
 9107TIP3    H148812   1.563   2.415  14.279 -1.6287  1.9982  2.7037
 9107TIP3    H248813   1.602   2.270  14.296 -2.4166  1.1245 -1.7469
 9108TIP3   OH248814   5.768   0.503  17.013 -0.3398 -0.2948  0.4952
 9108TIP3    H148815   5.744   0.436  16.949  1.1480  0.5399 -1.0316
 9108TIP3    H248816   5.764   0.458  17.097  0.6414 -2.3358 -0.4746
 9109TIP3   OH248817   4.780   1.145  14.347  0.5109  0.6971  0.5612
 9109TIP3    H148818   4.794   1.224  14.295  2.2620  0.0964  0.0460
 9109TIP3    H248819   4.701   1.163  14.398 -0.5749  1.7674 -1.4179
 9110TIP3   OH248820   0.653   2.501  12.359 -0.1875  0.1242 -0.1428
 9110TIP3    H148821   0.745   2.482  12.376 -0.2861 -0.2019  0.0318
 9110TIP3    H248822   0.608   2.419  12.377 -0.5845  0.4439  0.3449
 9111TIP3   OH248823   0.735   4.110   1.575 -0.6933 -0.7514  0.6080
 9111TIP3    H148824   0.692   4.192   1.599 -0.9288 -0.7773  0.2653
 9111TIP3    H248825   0.827   4.134   1.560 -0.3566 -0.8534  2.2695
 9112TIP3   OH248826   2.793   5.737  16.482 -0.7415 -0.4787 -0.1733
 9112TIP3    H148827   2.882   5.710  16.458 -0.5426 -0.4772  0.5342
 9112TIP3    H248828   2.765   5.673  16.547 -0.0033  1.3126  2.0387
 9113TIP3   OH248829   2.900   3.858   2.301 -1.1614  0.2388 -0.3364
 9113TIP3    H148830   2.973   3.853   2.362  0.9904  3.9160 -2.2332
 9113TIP3    H248831   2.928   3.804   2.226 -0.2295  1.7105 -1.0969
 9114TIP3   OH248832   4.231   3.298   1.622 -0.9391  0.0036  0.0865
 9114TIP3    H148833   4.169   3.252   1.677 -0.5862  1.0780  1.4334
 9114TIP3    H248834   4.194   3.386   1.612 -0.4596  0.1498 -0.4919
 9115TIP3   OH248835   5.231   0.078  14.532  0.1961  0.0109 -0.4063
 9115TIP3    H148836   5.221   0.017  14.460 -0.6192 -1.6457  1.0341
 9115TIP3    H248837   5.177   0.042  14.602  0.2235  2.0457  0.7372
 9116TIP3   OH248838   2.802   3.065   4.291  0.6677 -0.0125 -0.0439
 9116TIP3    H148839   2.752   2.985   4.304 -1.3362  0.9942 -1.0780
 9116TIP3    H248840   2.783   3.119   4.368 -0.4716  0.6456 -0.7538
 9117TIP3   OH248841   6.455   3.088   0.334  0.3876 -0.6873  0.1740
 9117TIP3    H148842   6.525   3.067   0.396  0.0111 -1.9683  0.1965
 9117TIP3    H248843   6.375   3.090   0.387  0.2765 -0.1842 -0.0061
 9118TIP3   OH248844   3.095   5.124  10.796  0.1194  0.5113 -0.2474
 9118TIP3    H148845   3.092   5.074  10.715 -1.2863 -0.3746  0.2967
 9118TIP3    H248846   3.098   5.216  10.769 -0.0356  0.2131 -1.2970
 9119TIP3   OH248847   0.292   5.782   4.891  0.6309  0.2246  0.4146
 9119TIP3    H148848   0.388   5.787   4.888  0.7591 -0.0629  2.5465
 9119TIP3    H248849   0.263   5.839   4.820  2.3742  2.3037  1.2670
 9120TIP3   OH248850   4.048   5.749  17.151 -0.1199 -0.1735 -0.2131
 9120TIP3    H148851   4.039   5.800  17.232 -0.3927 -0.0837 -0.2983
 9120TIP3    H248852   4.087   5.666  17.180  0.3426  0.0898 -0.0794
 9121TIP3   OH248853   1.811   3.623   5.084 -0.4366 -0.3929  0.0161
 9121TIP3    H148854   1.732   3.672   5.060  0.3804  0.8382 -0.3212
 9121TIP3    H248855   1.838   3.581   5.002 -0.9516 -1.1322  0.2242
 9122TIP3   OH248856   2.947   4.060  10.532 -0.2480 -0.4122  0.0314
 9122TIP3    H148857   2.975   4.147  10.502  1.1238 -0.9448 -0.3312
 9122TIP3    H248858   2.908   4.020  10.454 -1.6370  0.1573  0.4115
 9123TIP3   OH248859   4.796   6.471  16.234  0.1314  0.0682  0.0398
 9123TIP3    H148860   4.796   6.514  16.148 -1.8913 -0.1422 -0.1222
 9123TIP3    H248861   4.785   6.378  16.214  2.9682 -0.4452  0.4490
 9124TIP3   OH248862   1.110   4.550   5.818 -0.4206  0.1374 -0.2577
 9124TIP3    H148863   1.204   4.547   5.832 -0.2564  0.0969 -1.3297
 9124TIP3    H248864   1.072   4.536   5.905  0.5266 -2.4889 -0.2014
 9125TIP3   OH248865   1.478   4.594  10.713 -0.4680 -0.6801  0.0226
 9125TIP3    H148866   1.390   4.574  10.681  0.0585 -1.1865 -1.1965
 9125TIP3    H248867   1.473   4.684  10.743 -1.1560 -0.3473 -1.0213
 9126TIP3   OH248868   0.798   1.604  13.512  0.4677 -0.4419  0.2913
 9126TIP3    H148869   0.722   1.634  13.462  1.1947  0.2823 -0.4092
 9126TIP3    H248870   0.762   1.542  13.575 -1.0784  1.7383  1.6885
 9127TIP3   OH248871   0.934   0.987   2.454  0.0464  0.6916  0.2346
 9127TIP3    H148872   0.997   0.930   2.498 -0.2268  1.3188  1.4827
 9127TIP3    H248873   0.986   1.038   2.392  0.3576 -0.5690 -0.6028
 9128TIP3   OH248874   6.425   1.984   3.845 -0.4932  0.2259 -0.3950
 9128TIP3    H148875   6.519   1.996   3.862  0.1187 -2.7520 -1.0212
 9128TIP3    H248876   6.410   2.027   3.761  0.9840 -1.2873 -1.5254
 9129TIP3   OH248877   4.034   5.406   4.092 -0.1190 -0.0159  0.5017
 9129TIP3    H148878   3.991   5.385   4.175  1.4563  1.5239  1.8003
 9129TIP3    H248879   4.011   5.498   4.076  1.4682  0.4207  0.5221
 9130TIP3   OH248880   5.910   0.186  15.703 -0.2140  0.2528 -0.1957
 9130TIP3    H148881   5.963   0.191  15.623 -0.9622 -0.0367 -0.7191
 9130TIP3    H248882   5.951   0.116  15.754 -0.5798 -0.5402 -0.9699
 9131TIP3   OH248883   5.696   1.348   5.884 -0.3037  0.6597  0.1995
 9131TIP3    H148884   5.702   1.261   5.844  0.3653 -0.6518  2.8808
 9131TIP3    H248885   5.775   1.394   5.857  2.1521 -1.6059  2.8722
 9132TIP3   OH248886   2.322   2.865   2.832 -0.0227 -0.9036  0.1040
 9132TIP3    H148887   2.404   2.843   2.876  1.4860  2.8639 -0.4524
 9132TIP3    H248888   2.343   2.859   2.739 -1.0272 -1.7846 -0.0894
 9133TIP3   OH248889   2.033   3.212   1.772 -0.0165  0.3024  0.1234
 9133TIP3    H148890   1.981   3.169   1.704 -1.8145  0.5140  1.3269
 9133TIP3    H248891   1.972   3.269   1.818  1.8530  2.7010 -0.1182
 9134TIP3   OH248892   4.076   1.205   1.006  0.4773  0.4221  0.3660
 9134TIP3    H148893   4.078   1.293   0.968 -0.1482  0.9308  1.4575
 9134TIP3    H248894   4.069   1.220   1.100  0.5935 -0.8054  0.5877
 9135TIP3   OH248895   4.879   6.768   0.957  0.4171 -0.4392 -0.0977
 9135TIP3    H148896   4.967   6.733   0.970  1.1326  0.7171 -1.4773
 9135TIP3    H248897   4.872   6.839   1.021  0.7989 -0.0370 -0.4941
 9136TIP3   OH248898   1.093   4.483  10.800 -0.1796  0.1547  0.3360
 9136TIP3    H148899   1.145   4.507  10.723  1.0527  1.7165  1.5786
 9136TIP3    H248900   1.158   4.457  10.866 -1.2434 -1.8515  0.6822
 9137TIP3   OH248901   4.207   0.154   4.491 -0.3389 -0.3312  0.3683
 9137TIP3    H148902   4.188   0.065   4.518 -2.2532 -0.1284 -0.1070
 9137TIP3    H248903   4.138   0.175   4.427  0.2544  1.3657  0.2121
 9138TIP3   OH248904   2.069   5.326  10.425 -0.6248  0.0089 -0.2710
 9138TIP3    H148905   1.981   5.296  10.406 -0.8090 -0.1419  0.7616
 9138TIP3    H248906   2.122   5.246  10.428  0.2583  0.2793 -4.1050
 9139TIP3   OH248907   4.739   2.924   1.324  0.2500  0.1569  0.3096
 9139TIP3    H148908   4.796   2.847   1.318 -0.2839 -0.1637 -1.0065
 9139TIP3    H248909   4.737   2.960   1.235 -0.4413  1.0121  0.6501
 9140TIP3   OH248910   2.692   3.060   0.392  0.2078  0.3823  0.4062
 9140TIP3    H148911   2.633   2.985   0.391 -0.8633  1.1512 -1.9984
 9140TIP3    H248912   2.779   3.023   0.378 -0.1513 -0.4837  0.3834
 9141TIP3   OH248913   1.637   2.401  12.227  0.0076 -0.2536  0.1519
 9141TIP3    H148914   1.604   2.403  12.317 -0.6591  0.8040 -0.0909
 9141TIP3    H248915   1.642   2.493  12.202  2.4448 -0.3916 -0.1165
 9142TIP3   OH248916   5.694   4.749   1.990  0.2603  0.4919  0.3012
 9142TIP3    H148917   5.660   4.826   1.944  0.8241  0.0237 -0.9326
 9142TIP3    H248918   5.780   4.734   1.950  0.9429  0.3036  1.7914
 9143TIP3   OH248919   2.063   1.415  16.581  0.0259  0.7909  0.1375
 9143TIP3    H148920   2.061   1.500  16.624  0.9038  1.5543 -1.2490
 9143TIP3    H248921   2.154   1.403  16.554  0.1348 -1.0445  1.1215
 9144TIP3   OH248922   2.758   2.291  14.687 -0.1887 -0.2011 -0.1051
 9144TIP3    H148923   2.703   2.315  14.612 -0.2148  0.6426  0.1740
 9144TIP3    H248924   2.698   2.293  14.761 -0.1745 -1.0869 -0.0639
 9145TIP3   OH248925   2.375   3.024   0.753 -0.1617  0.2130 -0.2223
 9145TIP3    H148926   2.369   3.016   0.658  1.0445  5.6992 -1.0874
 9145TIP3    H248927   2.469   3.036   0.770 -0.4220 -0.0438  1.6119
 9146TIP3   OH248928   3.252   5.580  14.489 -0.3679 -0.2096 -0.5480
 9146TIP3    H148929   3.263   5.503  14.434 -0.6209  0.0841 -1.0152
 9146TIP3    H248930   3.339   5.597  14.526  0.0344  0.1767 -1.6349
 9147TIP3   OH248931   3.649   3.220   4.939 -0.2725  0.1170 -0.0848
 9147TIP3    H148932   3.708   3.231   5.013 -0.1292 -2.2069  0.2136
 9147TIP3    H248933   3.566   3.194   4.977 -0.3477 -0.5779 -0.7064
 9148TIP3   OH248934   1.148   1.851  12.327  0.0234 -0.2243 -0.0348
 9148TIP3    H148935   1.223   1.853  12.267 -0.3811 -0.8803 -0.5683
 9148TIP3    H248936   1.091   1.921  12.295  0.7336  0.7792  0.8243
 9149TIP3   OH248937   1.245   5.695   4.751 -0.1102 -0.5366  0.7398
 9149TIP3    H148938   1.220   5.644   4.674 -0.8895 -0.2910  0.8267
 9149TIP3    H248939   1.276   5.778   4.715 -0.7532 -0.3109  0.7072
 9150TIP3   OH248940   6.682   1.603   2.963  0.5331  0.1084  0.0528
 9150TIP3    H148941   6.655   1.666   3.030  0.1796  0.3889 -0.3501
 9150TIP3    H248942   6.769   1.632   2.937  0.7472 -0.1074  0.5195
 9151TIP3   OH248943   2.898   6.268  16.129 -0.0313  0.2582  0.2433
 9151TIP3    H148944   2.957   6.299  16.060 -2.5715  0.5834 -1.9372
 9151TIP3    H248945   2.905   6.333  16.198  1.6723  0.5946 -0.1987
 9152TIP3   OH248946   0.430   5.070   4.023  0.5944 -0.1001  0.0407
 9152TIP3    H148947   0.520   5.053   3.997  0.6261  0.6635 -0.3980
 9152TIP3    H248948   0.421   5.030   4.110  1.1338 -0.8024 -0.2222
 9153TIP3   OH248949   1.643   1.859   4.858  0.3305 -0.3480  0.1322
 9153TIP3    H148950   1.628   1.911   4.779 -2.0189 -1.0669  0.0404
 9153TIP3    H248951   1.717   1.803   4.836  1.1445  1.0093 -0.7291
 9154TIP3   OH248952   5.304   2.191  12.713 -0.4341 -0.2658  0.9675
 9154TIP3    H148953   5.323   2.135  12.638 -0.5919  1.0811 -0.0999
 9154TIP3    H248954   5.389   2.223  12.742 -0.3856 -0.6821  1.3022
 9155TIP3   OH248955   5.284   1.397  13.119 -0.2492 -0.0561  0.5146
 9155TIP3    H148956   5.256   1.323  13.066  1.1386  0.5712 -1.1546
 9155TIP3    H248957   5.379   1.391  13.122 -0.2152  0.6874  1.8331
 9156TIP3   OH248958   2.593   4.887  12.302  0.5280  0.5015 -0.0881
 9156TIP3    H148959   2.608   4.928  12.217  2.4979 -0.6307 -0.3510
 9156TIP3    H248960   2.603   4.793  12.286  1.7278  0.3141  1.4952
 9157TIP3   OH248961   0.893   0.469  11.066 -0.3766 -0.2398  0.1351
 9157TIP3    H148962   0.889   0.444  11.158 -0.1919  0.8703  0.4597
 9157TIP3    H248963   0.984   0.451  11.040 -0.2672 -0.0035  0.3441
 9158TIP3   OH248964   4.227   2.779  14.159 -0.2507  0.0914 -0.1247
 9158TIP3    H148965   4.133   2.768  14.145 -0.2754  0.1275  0.0074
 9158TIP3    H248966   4.261   2.690  14.167 -0.7344  0.0654  2.8181
 9159TIP3   OH248967   5.109   2.275  11.233 -0.6449  0.2801  0.2962
 9159TIP3    H148968   5.115   2.353  11.289 -1.0106  1.4101 -1.1732
 9159TIP3    H248969   5.160   2.209  11.279  2.1002  2.1938  0.2891
 9160TIP3   OH248970   5.137   1.099  15.069 -0.2061  0.0334  0.4668
 9160TIP3    H148971   5.181   1.140  14.994 -0.3535 -2.1195 -0.9027
 9160TIP3    H248972   5.102   1.172  15.120  0.3711  1.5983 -1.2712
 9161TIP3   OH248973   6.441   5.413   3.881 -0.1868  0.7301 -0.1146
 9161TIP3    H148974   6.509   5.424   3.948 -0.6427  1.5793  0.2195
 9161TIP3    H248975   6.372   5.474   3.906  0.3979  2.4592 -2.3360
 9162TIP3   OH248976   6.676   4.259   0.535  0.1453  0.4165 -0.0885
 9162TIP3    H148977   6.580   4.254   0.530  0.1471  0.7089 -0.4671
 9162TIP3    H248978   6.698   4.338   0.486  0.5867  0.3104 -0.0609
 9163TIP3   OH248979   6.046   5.700   1.252  0.1892  0.2810  0.5144
 9163TIP3    H148980   6.108   5.672   1.185  0.8517  0.4038  1.0666
 9163TIP3    H248981   6.030   5.793   1.234 -0.0517  0.1811  0.2075
 9164TIP3   OH248982   1.913   3.782  15.293  0.3611  0.1249  0.0561
 9164TIP3    H148983   1.948   3.855  15.242 -0.0575  1.9984  2.2918
 9164TIP3    H248984   1.989   3.743  15.335  0.5438 -0.5622 -0.8718
 9165TIP3   OH248985   1.617   1.115  14.944  0.1742  0.0638  0.0838
 9165TIP3    H148986   1.639   1.176  14.874 -1.1185  1.4657  0.8272
 9165TIP3    H248987   1.671   1.142  15.018  0.5832 -0.5850  0.0366
 9166TIP3   OH248988   2.524   3.743   1.659 -0.5329  0.3524  0.0636
 9166TIP3    H148989   2.510   3.685   1.585 -0.9760 -0.4780  0.7698
 9166TIP3    H248990   2.443   3.736   1.710 -0.0945  0.6130  0.8095
 9167TIP3   OH248991   6.235   2.226   5.342  0.4045  0.3108  0.1517
 9167TIP3    H148992   6.233   2.320   5.325  0.1389  0.4391  0.8732
 9167TIP3    H248993   6.327   2.206   5.361  0.4329  0.4536  0.1613
 9168TIP3   OH248994   3.574   3.442  16.034 -0.0131  0.0494 -0.7938
 9168TIP3    H148995   3.606   3.481  15.953 -2.4495 -1.6425 -2.7139
 9168TIP3    H248996   3.584   3.348  16.022 -0.2997 -0.2486  0.9441
 9169TIP3   OH248997   3.945   2.659  14.223  0.4200 -0.5240 -0.7823
 9169TIP3    H148998   3.979   2.570  14.232 -0.2075 -0.7249 -0.3653
 9169TIP3    H248999   3.949   2.695  14.311 -0.6788 -0.6369 -0.6787
 9170TIP3   OH249000   2.186   1.475  12.841 -0.1352  0.0497 -0.3363
 9170TIP3    H149001   2.093   1.487  12.856  0.0864  0.4689  0.8340
 9170TIP3    H249002   2.209   1.397  12.893 -0.2004 -1.3196 -2.2401
 9171TIP3   OH249003   3.522   0.612  16.261 -0.2207 -0.3617 -0.1658
 9171TIP3    H149004   3.491   0.694  16.222  1.0097 -0.4478 -1.4215
 9171TIP3    H249005   3.484   0.610  16.348 -0.1955  1.6067 -0.0771
 9172TIP3   OH249006   5.507   4.980  15.674  0.2165  0.0884 -0.1652
 9172TIP3    H149007   5.420   5.006  15.706 -0.0259  0.2386 -0.9226
 9172TIP3    H249008   5.526   5.042  15.605  1.8603  1.3663  1.3538
 9173TIP3   OH249009   6.383   4.133  12.373  0.1575 -0.6624 -0.2103
 9173TIP3    H149010   6.356   4.199  12.437 -1.9124  0.3137 -1.9621
 9173TIP3    H249011   6.390   4.181  12.290 -0.1273 -2.3928 -1.2882
 9174TIP3   OH249012   5.606   1.459   1.238  0.2691 -0.1772  0.2309
 9174TIP3    H149013   5.633   1.370   1.257 -0.2900 -0.6594 -1.0944
 9174TIP3    H249014   5.511   1.458   1.247  0.2819  0.3605  0.4850
 9175TIP3   OH249015   1.962   0.733   4.195  0.0620 -0.5609  0.2140
 9175TIP3    H149016   1.914   0.765   4.271 -1.5999  0.3873 -1.1343
 9175TIP3    H249017   2.049   0.773   4.202 -1.2549  2.7664 -0.3038
 9176TIP3   OH249018   1.296   4.905   0.434 -0.0976 -0.0600 -0.3044
 9176TIP3    H149019   1.292   4.918   0.339 -1.6399 -2.1097 -0.5847
 9176TIP3    H249020   1.370   4.958   0.462  0.6858  0.2391 -2.7147
 9177TIP3   OH249021   6.424   4.037  16.571  0.0145 -0.2205  0.1768
 9177TIP3    H149022   6.433   3.958  16.517 -2.3621  0.0634 -0.7578
 9177TIP3    H249023   6.388   4.005  16.654 -0.0836 -0.2138  0.1365
 9178TIP3   OH249024   6.300   2.236  11.551  0.1421 -0.3120  0.1220
 9178TIP3    H149025   6.329   2.148  11.526 -1.3720 -0.6074 -0.7238
 9178TIP3    H249026   6.204   2.229  11.555 -0.0235  1.3805 -0.3022
 9179TIP3   OH249027   6.579   6.235  14.586  0.3489 -0.1575 -0.3398
 9179TIP3    H149028   6.650   6.299  14.584 -0.6380  1.0339  0.9462
 9179TIP3    H249029   6.543   6.238  14.497  0.5795  0.7980 -0.4198
 9180TIP3   OH249030   2.238   0.621  13.695 -0.1912 -0.0906  0.0176
 9180TIP3    H149031   2.330   0.629  13.720 -0.3969 -0.9080  1.1262
 9180TIP3    H249032   2.209   0.711  13.681  0.2283  0.3722  1.7818
 9181TIP3   OH249033   1.945   3.099  12.560 -0.0226  0.7045  0.5189
 9181TIP3    H149034   1.970   3.171  12.501  1.7546 -0.4088 -0.1657
 9181TIP3    H249035   2.024   3.045  12.566 -1.2738 -1.1416  1.0952
 9182TIP3   OH249036   5.182   4.240   2.676  0.2017 -0.0482  0.0134
 9182TIP3    H149037   5.122   4.250   2.602  0.4415 -1.4008 -0.3949
 9182TIP3    H249038   5.127   4.209   2.748  0.0285  0.9403  0.3217
 9183TIP3   OH249039   2.008   5.958   1.660  0.1614 -0.1027  0.3845
 9183TIP3    H149040   1.971   6.041   1.688  2.7930  0.7637  1.5741
 9183TIP3    H249041   2.034   5.972   1.569  1.1864  0.6472  0.7714
 9184TIP3   OH249042   1.561   0.130   2.150 -0.0674 -0.3850  0.5045
 9184TIP3    H149043   1.633   0.186   2.180 -0.0694 -0.2012  0.1675
 9184TIP3    H249044   1.491   0.147   2.213  0.4263 -1.1307  1.2784
 9185TIP3   OH249045   5.938   0.093   0.214 -0.0629  1.0016 -0.3207
 9185TIP3    H149046   5.966   0.131   0.131  0.1246  1.1364 -0.1985
 9185TIP3    H249047   5.979   0.148   0.281 -0.0829  0.8013 -0.1392
 9186TIP3   OH249048   2.579   6.417  10.924 -0.4075 -0.0226 -0.2115
 9186TIP3    H149049   2.573   6.323  10.912 -0.3466  0.0510 -0.8430
 9186TIP3    H249050   2.673   6.437  10.918 -0.6157  0.5536 -4.0673
 9187TIP3   OH249051   2.288   6.423  12.010  0.0037  0.3973 -0.3926
 9187TIP3    H149052   2.248   6.437  11.924  1.0580  0.3962 -0.9038
 9187TIP3    H249053   2.215   6.426  12.071 -0.6451  1.4012 -1.1801
 9188TIP3   OH249054   2.488   1.224  15.411  0.0690 -0.7021  0.2492
 9188TIP3    H149055   2.582   1.212  15.423 -0.3730 -1.9346  3.5288
 9188TIP3    H249056   2.472   1.315  15.436  0.2680 -0.8438  0.9187
 9189TIP3   OH249057   1.708   5.821   1.182  0.6683 -0.6359 -0.2442
 9189TIP3    H149058   1.671   5.805   1.268  0.3193  0.2627 -0.2096
 9189TIP3    H249059   1.797   5.853   1.199 -0.4498  2.7819  0.0406
 9190TIP3   OH249060   2.793   2.350  10.792 -0.2801  0.2118  0.4082
 9190TIP3    H149061   2.871   2.378  10.743 -0.3343  1.0812  0.8096
 9190TIP3    H249062   2.797   2.255  10.790  0.9871  0.2389  0.7227
 9191TIP3   OH249063   2.581   3.629  15.900  0.2915 -0.2112  0.1349
 9191TIP3    H149064   2.494   3.657  15.926  0.1861 -2.1756  2.1950
 9191TIP3    H249065   2.639   3.699  15.930 -0.4517  0.7186 -0.5280
 9192TIP3   OH249066   6.695   5.549  11.220  0.3673  0.3258 -0.0792
 9192TIP3    H149067   6.669   5.610  11.290 -0.0309 -0.7829  0.7601
 9192TIP3    H249068   6.655   5.585  11.141 -0.2356  0.9061  0.4798
 9193TIP3   OH249069   3.711   4.951   5.496 -0.4697  0.3125  0.0420
 9193TIP3    H149070   3.743   5.031   5.539 -0.6405  0.5769 -0.3156
 9193TIP3    H249071   3.692   4.979   5.406  0.0700 -0.2767 -0.2642
 9194TIP3   OH249072   4.268   3.643  10.145  0.1479  0.4959 -0.6139
 9194TIP3    H149073   4.175   3.653  10.165  0.1346  0.4762 -0.6657
 9194TIP3    H249074   4.276   3.672  10.054  0.1438  0.2359 -0.6973
 9195TIP3   OH249075   4.754   2.732  11.636 -0.3980  0.4006  0.2501
 9195TIP3    H149076   4.767   2.658  11.696 -1.0968 -0.3992 -0.5606
 9195TIP3    H249077   4.753   2.692  11.549  1.4181  1.6292 -0.4068
 9196TIP3   OH249078   4.295   4.531   2.336 -0.4491  0.2985 -0.3411
 9196TIP3    H149079   4.319   4.451   2.383  0.1774  0.4884 -0.3345
 9196TIP3    H249080   4.238   4.501   2.265  0.3137 -0.2336 -0.7407
 9197TIP3   OH249081   2.564   2.309   2.364  0.1259  0.1650  0.5121
 9197TIP3    H149082   2.476   2.345   2.379  0.5285  0.7621  1.5839
 9197TIP3    H249083   2.579   2.253   2.440  0.3230 -0.6510 -0.1235
 9198TIP3   OH249084   2.101   6.632   0.400  0.2435  0.7864  0.3495
 9198TIP3    H149085   2.107   6.550   0.351  1.5235  1.0009  0.0861
 9198TIP3    H249086   2.082   6.606   0.490  0.3028  0.2169  0.2018
 9199TIP3   OH249087   6.395   5.423  13.821 -0.8648  0.0553 -0.6537
 9199TIP3    H149088   6.326   5.419  13.756 -0.5964  1.2439 -1.0288
 9199TIP3    H249089   6.379   5.503  13.870 -1.3881 -1.0866  1.1519
 9200TIP3   OH249090   3.418   2.355   0.762 -0.1882  0.3194 -0.0653
 9200TIP3    H149091   3.326   2.354   0.789  0.1113 -0.9403  1.0497
 9200TIP3    H249092   3.421   2.298   0.685 -0.2157 -0.4077  0.4576
 9201TIP3   OH249093   4.797   1.841   4.811 -0.0911  0.0058 -0.4332
 9201TIP3    H149094   4.723   1.837   4.749 -0.2544  2.0061 -0.4269
 9201TIP3    H249095   4.763   1.890   4.886  0.7466 -0.5617  0.3414
 9202TIP3   OH249096   6.595   6.200   3.341 -0.7414 -0.0970  0.2088
 9202TIP3    H149097   6.562   6.121   3.298  1.1559 -1.0353  0.3692
 9202TIP3    H249098   6.517   6.243   3.376 -1.9139 -1.4005 -0.6987
 9203TIP3   OH249099   3.682   0.652  10.989 -0.4729  0.1031  0.1972
 9203TIP3    H149100   3.683   0.658  10.894  1.5926  0.7662  0.1878
 9203TIP3    H249101   3.718   0.566  11.009 -1.9660 -0.4988  0.4070
 9204TIP3   OH249102   4.850   0.113  14.775  0.3789 -0.2422  0.3637
 9204TIP3    H149103   4.880   0.163  14.699  0.4005 -2.4950 -1.2036
 9204TIP3    H249104   4.755   0.109  14.765  0.4155 -0.8712  0.2132
 9205TIP3   OH249105   0.175   5.882  14.618  0.0006  0.7536 -0.3595
 9205TIP3    H149106   0.216   5.930  14.546  0.2307  0.2887 -0.5443
 9205TIP3    H249107   0.188   5.790  14.596 -0.3320  0.6036  0.0489
 9206TIP3   OH249108   4.646   6.023  10.870  0.4607  0.3427 -0.3822
 9206TIP3    H149109   4.636   6.098  10.928  1.3011  0.0324  0.1851
 9206TIP3    H249110   4.662   6.061  10.783  1.6152  0.8362  0.0301
 9207TIP3   OH249111   4.471   3.143   3.028  0.5262  0.2012 -0.0139
 9207TIP3    H149112   4.419   3.065   3.048  0.2316  0.2190 -0.6654
 9207TIP3    H249113   4.498   3.131   2.937 -1.7195  2.0359 -1.0459
 9208TIP3   OH249114   6.819   3.815   1.974  0.2916 -0.0449 -0.2022
 9208TIP3    H149115   6.766   3.880   1.928  1.7372  0.0728 -1.8028
 9208TIP3    H249116   6.900   3.861   1.998  0.9803 -1.0031 -0.5875
 9209TIP3   OH249117   2.333   3.298   0.792  0.1308 -0.1675 -0.0320
 9209TIP3    H149118   2.319   3.301   0.887  1.3097 -0.9552  0.1798
 9209TIP3    H249119   2.327   3.205   0.770 -0.6508  0.0569 -0.8292
 9210TIP3   OH249120   5.107   0.895  14.209  0.3976 -0.6689  0.1877
 9210TIP3    H149121   5.084   0.900  14.116 -0.7862 -1.5934  0.4065
 9210TIP3    H249122   5.122   0.986  14.234  1.9664 -0.4981 -1.1732
 9211TIP3   OH249123   4.577   3.532   1.919 -0.4971  0.6455 -0.2869
 9211TIP3    H149124   4.517   3.499   1.852 -1.0307  0.5992  0.2125
 9211TIP3    H249125   4.626   3.602   1.875  0.3474 -0.4871 -1.2345
 9212TIP3   OH249126   5.915   3.895   4.466  0.4377 -0.6498  0.3264
 9212TIP3    H149127   5.910   3.829   4.535  1.4572  1.6070  2.7633
 9212TIP3    H249128   5.928   3.977   4.514  1.4966  1.0283 -2.6280
 9213TIP3   OH249129   5.288   6.652   1.977  0.2299 -0.0864  0.3357
 9213TIP3    H149130   5.327   6.572   1.942 -0.6857  0.1239 -1.2485
 9213TIP3    H249131   5.353   6.720   1.959  1.0483 -0.4364  1.7641
 9214TIP3   OH249132   2.785   4.150   3.819  0.0698 -0.3046 -0.1185
 9214TIP3    H149133   2.782   4.243   3.843 -1.3008 -0.5809  0.9257
 9214TIP3    H249134   2.715   4.139   3.755 -0.5113 -0.8029  0.5765
 9215TIP3   OH249135   3.314   2.009   5.523  0.1724  0.5905 -0.8407
 9215TIP3    H149136   3.234   2.007   5.471 -0.8695  1.4712  0.6536
 9215TIP3    H249137   3.316   1.924   5.566 -0.0851  0.6532 -0.7027
 9216TIP3   OH249138   6.401   3.190  11.149  0.6048  0.4802  0.2040
 9216TIP3    H149139   6.485   3.234  11.131  0.3561  0.9376  0.1415
 9216TIP3    H249140   6.335   3.257  11.131  0.2812  0.5222  1.4871
 9217TIP3   OH249141   1.245   4.036   6.097  0.3187 -0.2877 -0.2720
 9217TIP3    H149142   1.187   4.086   6.041 -1.3940 -0.3818  1.3195
 9217TIP3    H249143   1.223   4.064   6.186 -0.5743 -3.6329  0.7151
 9218TIP3   OH249144   5.472   3.252  16.504 -0.1552 -0.2012  0.1774
 9218TIP3    H149145   5.560   3.227  16.476  0.8395  0.5500  2.4131
 9218TIP3    H249146   5.466   3.346  16.484 -0.0869 -0.0438  0.8863
 9219TIP3   OH249147   2.274   4.834   2.208 -0.3509  0.1649 -0.4973
 9219TIP3    H149148   2.302   4.787   2.287  0.7067  2.4321  0.5511
 9219TIP3    H249149   2.350   4.832   2.150  1.0253  3.3894  0.9670
 9220TIP3   OH249150   3.269   4.759   5.964  0.1297 -0.0987  0.4969
 9220TIP3    H149151   3.331   4.803   5.906  0.7249 -2.0010 -0.4052
 9220TIP3    H249152   3.214   4.829   5.998  1.6657  1.4502 -0.0273
 9221TIP3   OH249153   3.839   0.777  16.389  0.5127  0.3994  0.8626
 9221TIP3    H149154   3.809   0.722  16.462 -0.6639  2.4750  2.0397
 9221TIP3    H249155   3.762   0.784  16.332  1.0357 -0.1572  0.0740
 9222TIP3   OH249156   5.814   2.358  13.980 -0.2699  0.2395 -0.6322
 9222TIP3    H149157   5.721   2.372  13.994 -0.8884 -3.6057 -0.0454
 9222TIP3    H249158   5.826   2.264  13.985  3.4383  0.4452 -2.2530
 9223TIP3   OH249159   5.410   0.054  13.540  0.1065  0.2489  0.0247
 9223TIP3    H149160   5.369   0.133  13.504 -0.8610 -1.2969 -2.5711
 9223TIP3    H249161   5.497   0.052  13.500 -0.2557 -0.4805 -0.7686
 9224TIP3   OH249162   1.494   2.816  12.754  0.4834 -0.8912  0.0668
 9224TIP3    H149163   1.559   2.771  12.701  0.5817  0.1868 -0.7526
 9224TIP3    H249164   1.530   2.903  12.769 -0.9051 -0.1308 -0.7430
 9225TIP3   OH249165   6.192   3.734  15.414  0.0012  0.3999  0.2507
 9225TIP3    H149166   6.124   3.802  15.414  1.2249  1.6743 -0.6086
 9225TIP3    H249167   6.268   3.777  15.375  0.6100 -1.6861 -0.9818
 9226TIP3   OH249168   6.706   2.685   2.689  0.3854  0.6604  0.0577
 9226TIP3    H149169   6.664   2.702   2.605 -1.5634  2.0690  1.2242
 9226TIP3    H249170   6.744   2.769   2.714 -1.4498  1.0638  1.7653
 9227TIP3   OH249171   3.455   2.133  14.836 -0.2589 -0.2632 -0.4588
 9227TIP3    H149172   3.428   2.140  14.928  1.0372  0.5319 -0.0929
 9227TIP3    H249173   3.481   2.042  14.826 -1.6278 -0.6763 -0.4205
 9228TIP3   OH249174   6.006   6.009   4.183  0.1549 -0.2274 -0.1075
 9228TIP3    H149175   5.918   5.972   4.183  0.6093 -1.3965 -1.6110
 9228TIP3    H249176   6.043   5.984   4.267 -0.7555 -0.1610  0.3230
 9229TIP3   OH249177   5.323   0.040  11.933 -0.0562 -0.0439 -0.2077
 9229TIP3    H149178   5.296   0.130  11.952  0.8843  0.1917  0.0919
 9229TIP3    H249179   5.419   0.046  11.925  0.1066 -1.1665  0.6692
 9230TIP3   OH249180   4.134   4.256   0.339 -0.4045 -0.5585  0.1429
 9230TIP3    H149181   4.090   4.182   0.381  0.7048 -0.4169  1.6792
 9230TIP3    H249182   4.141   4.322   0.409  0.9128 -0.0323 -0.4533
 9231TIP3   OH249183   0.743   1.503  16.134  0.3568  0.3804 -0.6103
 9231TIP3    H149184   0.834   1.486  16.159 -0.0508 -0.3029  0.4714
 9231TIP3    H249185   0.750   1.562  16.059  1.7199 -0.4804 -1.2163
 9232TIP3   OH249186   6.028   6.605   5.213  0.5511 -0.0907 -0.0422
 9232TIP3    H149187   6.014   6.699   5.226 -1.3147 -0.2982 -0.2859
 9232TIP3    H249188   6.031   6.569   5.302  0.1688  0.0759  0.0440
 9233TIP3   OH249189   0.201   5.949  11.481  0.0837 -0.1309  0.2376
 9233TIP3    H149190   0.164   6.032  11.451 -1.0344 -0.3392  0.9595
 9233TIP3    H249191   0.130   5.885  11.470 -0.6313 -0.1142  3.7235
 9234TIP3   OH249192   2.134   3.166  11.090  0.5034 -0.7493 -0.5394
 9234TIP3    H149193   2.048   3.128  11.073  1.0346 -2.2691 -0.0058
 9234TIP3    H249194   2.175   3.172  11.004 -0.2609  0.3620 -0.8478
 9235TIP3   OH249195   2.597   3.243  13.054  0.0459 -0.0471  0.4420
 9235TIP3    H149196   2.550   3.178  13.105 -0.1021  0.7679  1.3837
 9235TIP3    H249197   2.631   3.305  13.120 -0.8273  1.4749 -0.4844
 9236TIP3   OH249198   2.341   4.077   0.383  0.1662 -0.2053  0.1329
 9236TIP3    H149199   2.409   4.018   0.417  1.1289 -0.0339 -1.4259
 9236TIP3    H249200   2.359   4.084   0.290  0.5583  3.1427  0.3447
 9237TIP3   OH249201   6.419   1.132  11.910  0.3622 -0.3000 -0.4392
 9237TIP3    H149202   6.339   1.157  11.865  1.9974  2.5288 -2.0693
 9237TIP3    H249203   6.427   1.195  11.982  0.3639 -1.5826  0.7346
 9238TIP3   OH249204   0.644   3.466   5.859  0.2099  0.3761 -0.0761
 9238TIP3    H149205   0.631   3.558   5.835  0.0566  0.0368 -1.3931
 9238TIP3    H249206   0.563   3.422   5.832 -0.3942  0.1001  2.0433
 9239TIP3   OH249207   0.029   4.208   4.962  0.5226 -0.2502  0.1590
 9239TIP3    H149208   0.107   4.256   4.989  0.9486 -0.5130 -0.5675
 9239TIP3    H249209   0.034   4.125   5.010  0.6424 -0.2292  0.1844
 9240TIP3   OH249210   0.134   4.814   2.711 -0.2403  0.6096 -0.8034
 9240TIP3    H149211   0.110   4.870   2.785 -1.3210  0.8179 -1.2942
 9240TIP3    H249212   0.221   4.845   2.686  2.4776 -2.5737  3.3441
 9241TIP3   OH249213   3.755   4.819  15.500 -0.3890 -0.1526 -0.4727
 9241TIP3    H149214   3.803   4.804  15.419 -0.2961  1.1930 -0.6934
 9241TIP3    H249215   3.749   4.733  15.542  2.5462 -0.3274 -0.2287
 9242TIP3   OH249216   1.943   4.060  16.007 -0.2967  0.5231  0.1620
 9242TIP3    H149217   1.871   4.119  16.030 -0.0018  1.0205 -0.1575
 9242TIP3    H249218   2.018   4.119  15.992  0.4918 -0.0639  1.6370
 9243TIP3   OH249219   0.704   1.229  13.990 -0.1143  0.3150 -0.2338
 9243TIP3    H149220   0.747   1.185  14.064 -0.2680  1.6783  0.7122
 9243TIP3    H249221   0.621   1.182  13.980 -1.7003  2.1376  2.7746
 9244TIP3   OH249222   1.404   3.661   4.318 -0.1344 -0.6411 -0.0585
 9244TIP3    H149223   1.470   3.592   4.316  0.7798  0.1993 -2.0434
 9244TIP3    H249224   1.448   3.737   4.279 -1.3651  0.8476  1.2716
 9245TIP3   OH249225   5.859   2.176   1.842 -0.3312  0.2123 -0.1084
 9245TIP3    H149226   5.860   2.270   1.825 -0.8839  0.2951  0.2608
 9245TIP3    H249227   5.829   2.168   1.933  1.4133 -0.2555  0.4563
 9246TIP3   OH249228   0.772   4.603   3.483  0.1861  0.6481  0.0061
 9246TIP3    H149229   0.862   4.577   3.461  0.2767  0.3381  0.7171
 9246TIP3    H249230   0.722   4.522   3.475 -0.0303  0.8223 -0.3915
 9247TIP3   OH249231   3.232   2.199  15.281  0.4036  0.1428  0.0690
 9247TIP3    H149232   3.268   2.112  15.299  0.9506  0.4951  0.7110
 9247TIP3    H249233   3.237   2.245  15.365 -0.2635  0.6605 -0.1635
 9248TIP3   OH249234   4.851   5.285  16.444  0.0354  0.0700 -0.1896
 9248TIP3    H149235   4.759   5.261  16.453 -0.1421  0.4134 -1.0135
 9248TIP3    H249236   4.870   5.272  16.351  0.8052  0.0458 -0.0302
 9249TIP3   OH249237   2.448   1.792  15.139 -0.2134 -0.7428 -0.2483
 9249TIP3    H149238   2.469   1.699  15.152 -2.0772 -1.2505 -0.6164
 9249TIP3    H249239   2.510   1.821  15.073  0.1307 -1.8412 -0.4272
 9250TIP3   OH249240   0.478   4.317   2.580 -0.1599  0.5782 -0.2231
 9250TIP3    H149241   0.449   4.352   2.664  0.2852 -2.0792  1.1272
 9250TIP3    H249242   0.405   4.337   2.520 -0.4727  2.5332  0.7381
 9251TIP3   OH249243   4.822   4.959  11.998  0.0589  0.2890  0.1474
 9251TIP3    H149244   4.753   5.025  11.991  0.4342  0.5421 -4.3167
 9251TIP3    H249245   4.790   4.897  12.063 -2.6324  2.2946  0.9061
 9252TIP3   OH249246   5.131   1.334  13.324 -0.3259  0.4892  0.0793
 9252TIP3    H149247   5.200   1.374  13.271 -0.5448  1.1584  0.2835
 9252TIP3    H249248   5.153   1.241  13.327  0.0054  0.5402 -0.6950
 9253TIP3   OH249249   5.692   3.670   4.454  0.3192 -0.1498 -0.1843
 9253TIP3    H149250   5.725   3.692   4.541 -3.8549 -0.0629  1.6007
 9253TIP3    H249251   5.693   3.753   4.407 -0.2335  0.4769  0.8713
 9254TIP3   OH249252   6.307   3.097  17.100  0.5895  0.5498  0.1029
 9254TIP3    H149253   6.321   3.013  17.144  1.5864 -0.2506 -1.6677
 9254TIP3    H249254   6.392   3.141  17.105  0.4876  0.7999 -0.3193
 9255TIP3   OH249255   2.478   0.580  10.756 -0.5061  0.1886 -0.0471
 9255TIP3    H149256   2.458   0.641  10.685 -1.1558  2.1331  1.7000
 9255TIP3    H249257   2.559   0.537  10.729 -1.6854 -0.5096 -2.7612
 9256TIP3   OH249258   1.028   2.589  12.773  0.0573  0.1254  0.6629
 9256TIP3    H149259   1.104   2.611  12.720 -1.2506 -0.7150 -1.6890
 9256TIP3    H249260   0.963   2.655  12.751 -1.3318 -1.5988 -0.7686
 9257TIP3   OH249261   1.785   0.277   6.400 -0.9384 -0.4600 -1.1437
 9257TIP3    H149262   1.855   0.222   6.365 -1.3784 -1.2301 -0.8254
 9257TIP3    H249263   1.706   0.245   6.357 -1.0307  0.8462 -2.0135
 9258TIP3   OH249264   2.059   0.908   4.909 -0.6882  0.0380  0.4251
 9258TIP3    H149265   1.978   0.941   4.946 -0.6069  0.4811  0.2065
 9258TIP3    H249266   2.043   0.815   4.895 -1.0166  0.0436  0.7580
 9259TIP3   OH249267   0.540   2.561  15.209 -0.2638 -0.4775 -0.1138
 9259TIP3    H149268   0.605   2.582  15.276  1.2583  0.0584 -1.6883
 9259TIP3    H249269   0.486   2.493  15.249  0.1862  0.2426  1.8657
 9260TIP3   OH249270   6.046   2.089   5.013  0.1846  0.4459  0.1539
 9260TIP3    H149271   5.966   2.111   5.061 -1.4860  1.7230 -2.9021
 9260TIP3    H249272   6.026   2.006   4.971  0.2181  0.9936 -0.9924
 9261TIP3   OH249273   0.153   0.402  14.576 -0.3059  0.0848 -0.0334
 9261TIP3    H149274   0.077   0.426  14.523  0.3057 -0.8298 -1.3700
 9261TIP3    H249275   0.125   0.419  14.666 -1.6983  0.8068 -0.5660
 9262TIP3   OH249276   2.659   3.056   5.224 -0.1034  0.2517  0.2750
 9262TIP3    H149277   2.572   3.027   5.252  0.0139 -0.1295  0.2397
 9262TIP3    H249278   2.695   3.100   5.302  0.8203 -2.1080  1.2646
 9263TIP3   OH249279   0.127   3.107   3.595 -0.0288 -0.3848 -0.0026
 9263TIP3    H149280   0.160   3.074   3.678 -1.4311 -1.5655  0.1331
 9263TIP3    H249281   0.183   3.066   3.529 -0.9821 -2.1804  0.2296
 9264TIP3   OH249282   6.411   6.245  11.837  0.0464  0.4093 -0.4933
 9264TIP3    H149283   6.486   6.303  11.823 -0.7563  1.8902  0.9269
 9264TIP3    H249284   6.445   6.176  11.895  0.1061  1.6746  1.0564
 9265TIP3   OH249285   5.874   4.018  13.885 -0.4077 -0.5336  0.5498
 9265TIP3    H149286   5.919   3.934  13.896 -0.5593 -0.7341 -0.3051
 9265TIP3    H249287   5.934   4.072  13.834  0.1036  0.2347  1.9184
 9266TIP3   OH249288   2.221   0.152  10.741  0.1868  0.0315  0.0369
 9266TIP3    H149289   2.133   0.147  10.703  0.0216  1.6006  0.1419
 9266TIP3    H249290   2.248   0.243  10.727  1.6918 -0.3579  0.2488
 9267TIP3   OH249291   2.498   2.273   4.805 -0.9133 -0.1883 -0.2571
 9267TIP3    H149292   2.510   2.366   4.788  0.2293 -0.1031  0.8967
 9267TIP3    H249293   2.586   2.236   4.804 -1.2533 -1.0532  0.4005
 9268TIP3   OH249294   3.252   4.344  14.398 -0.4093  0.6145  0.0212
 9268TIP3    H149295   3.282   4.416  14.343 -0.1308 -0.6610 -1.5685
 9268TIP3    H249296   3.290   4.362  14.484  0.0159  2.1122 -0.4484
 9269TIP3   OH249297   0.100   0.468   0.494 -0.4285 -0.0074 -0.1175
 9269TIP3    H149298   0.193   0.450   0.482 -0.8654 -2.3481 -0.4360
 9269TIP3    H249299   0.098   0.553   0.539  1.8170  0.3590 -0.5867
 9270TIP3   OH249300   3.257   3.212  11.910 -0.4068  0.3611 -0.2305
 9270TIP3    H149301   3.332   3.154  11.898 -1.1674 -0.6125 -0.3120
 9270TIP3    H249302   3.237   3.244  11.822 -0.2316  0.4657 -0.2346
 9271TIP3   OH249303   3.300   6.484  14.140  0.3925  0.1473 -0.1269
 9271TIP3    H149304   3.242   6.483  14.064 -0.7051  0.0301  0.6925
 9271TIP3    H249305   3.351   6.403  14.133 -0.3292 -0.2975 -0.2587
 9272TIP3   OH249306   6.265   2.098  15.038  0.2975  0.3269  0.7508
 9272TIP3    H149307   6.215   2.065  14.964  0.5598  1.3661  0.0906
 9272TIP3    H249308   6.344   2.135  14.999  1.2134 -0.5593  1.7015
 9273TIP3   OH249309   6.784   3.469  15.662  0.4278 -0.2163  0.2579
 9273TIP3    H149310   6.828   3.552  15.684  0.2018  0.2499 -1.0007
 9273TIP3    H249311   6.714   3.461  15.727  0.5447  0.4991  0.4817
 9274TIP3   OH249312   5.304   3.120   5.498  0.2632  0.4745 -0.4565
 9274TIP3    H149313   5.285   3.197   5.444  1.3880  1.4577  0.4904
 9274TIP3    H249314   5.223   3.104   5.546 -0.1436  0.7447 -1.0352
 9275TIP3   OH249315   6.118   1.827  16.130 -0.3244  0.8402 -0.3025
 9275TIP3    H149316   6.065   1.875  16.194 -0.8892  0.2739 -0.3345
 9275TIP3    H249317   6.177   1.772  16.183 -2.2959 -1.3140 -0.1853
 9276TIP3   OH249318   2.337   1.567   4.783  0.2898  0.0032  0.4033
 9276TIP3    H149319   2.340   1.636   4.849  1.2855  0.2898  0.0867
 9276TIP3    H249320   2.386   1.494   4.821  1.0558  0.2480 -0.0843
 9277TIP3   OH249321   6.158   0.403   3.727  0.2653 -0.4184 -0.3669
 9277TIP3    H149322   6.142   0.495   3.751  1.3395 -0.2858 -0.1048
 9277TIP3    H249323   6.148   0.355   3.809 -0.5387 -0.5880 -0.5488
 9278TIP3   OH249324   6.789   6.330   3.212 -0.1911 -0.1337 -0.2182
 9278TIP3    H149325   6.740   6.273   3.271 -0.8779  1.0240  0.3822
 9278TIP3    H249326   6.788   6.415   3.256  1.0680  0.2692 -0.9340
 9279TIP3   OH249327   5.897   4.015   3.574  0.2501  0.1772  0.1133
 9279TIP3    H149328   5.936   4.084   3.627  0.8615 -0.1079  0.0399
 9279TIP3    H249329   5.878   4.056   3.490  2.4274 -0.2073 -0.6275
 9280TIP3   OH249330   6.052   5.493  12.467  0.0401 -0.1895  0.6379
 9280TIP3    H149331   5.997   5.420  12.496 -1.8592  1.5692  1.6883
 9280TIP3    H249332   6.084   5.532  12.549 -0.2803  1.1121  0.1566
 9281TIP3   OH249333   6.539   0.643   4.365 -0.0430  0.0224 -0.7312
 9281TIP3    H149334   6.615   0.694   4.393  0.0639 -1.2691  1.4666
 9281TIP3    H249335   6.569   0.552   4.365 -1.5562 -0.5047  0.0959
 9282TIP3   OH249336   6.784   5.372  10.126  0.2997  0.6121  0.1948
 9282TIP3    H149337   6.831   5.446  10.163  1.6704 -0.8217  1.4948
 9282TIP3    H249338   6.739   5.333  10.202 -0.5491  0.2223 -0.4926
 9283TIP3   OH249339   2.879   4.777  16.680 -0.0557 -0.0713 -0.2100
 9283TIP3    H149340   2.910   4.744  16.765  0.0275 -0.4046 -0.3708
 9283TIP3    H249341   2.814   4.843  16.703 -0.0786 -0.2037  0.1150
 9284TIP3   OH249342   0.459   1.045  14.211  0.0674  0.1463 -0.0229
 9284TIP3    H149343   0.484   0.978  14.148 -0.4442  1.1390 -1.3333
 9284TIP3    H249344   0.451   1.125  14.159  1.5422  1.4414  1.6362
 9285TIP3   OH249345   1.412   5.489   6.072  0.0050 -0.0614  0.7716
 9285TIP3    H149346   1.504   5.516   6.071  0.1774 -0.6342  0.4370
 9285TIP3    H249347   1.374   5.535   6.146  0.5083  0.3635  0.7706
 9286TIP3   OH249348   0.581   6.670   2.975 -0.3502  0.2607 -0.2058
 9286TIP3    H149349   0.640   6.744   2.992 -0.2201 -0.1435  1.2686
 9286TIP3    H249350   0.505   6.709   2.932  0.8588  0.8291 -1.9395
 9287TIP3   OH249351   0.701   3.665  15.750 -0.1285  0.0558  0.0071
 9287TIP3    H149352   0.615   3.707  15.740 -0.7754 -1.2282 -0.1252
 9287TIP3    H249353   0.748   3.689  15.670  0.2880  2.1362  0.8165
 9288TIP3   OH249354   4.074   0.881  10.817 -0.5280 -0.1213 -0.0311
 9288TIP3    H149355   3.999   0.883  10.757 -1.1888 -1.0014  0.7325
 9288TIP3    H249356   4.084   0.789  10.840  1.3264 -0.1384 -0.7500
 9289TIP3   OH249357   2.839   2.205   4.236  0.6761 -0.0882  0.2542
 9289TIP3    H149358   2.925   2.205   4.277  0.7902 -0.6907  0.0287
 9289TIP3    H249359   2.853   2.252   4.153  1.2801 -1.9232 -0.7383
 9290TIP3   OH249360   1.128   4.203   5.174 -0.0292 -0.5893  0.1848
 9290TIP3    H149361   1.043   4.224   5.136 -0.5822 -1.5248  0.8697
 9290TIP3    H249362   1.115   4.211   5.268  1.1525  1.0464  0.2620
 9291TIP3   OH249363   3.260   0.497  15.123  0.0081 -0.3255 -0.5973
 9291TIP3    H149364   3.237   0.487  15.031  1.0602 -0.2870 -0.8790
 9291TIP3    H249365   3.307   0.417  15.145 -3.1255 -1.9295  0.8842
 9292TIP3   OH249366   1.369   5.130  15.267  0.2440  0.0465 -0.4971
 9292TIP3    H149367   1.390   5.223  15.274 -1.3393  0.3618  0.4789
 9292TIP3    H249368   1.338   5.105  15.354  0.5147 -1.3789 -0.7724
 9293TIP3   OH249369   4.609   3.328  16.076  0.0389  0.3153  0.0891
 9293TIP3    H149370   4.674   3.378  16.025  0.5182  0.4097  0.7847
 9293TIP3    H249371   4.590   3.251  16.022 -0.0997  0.8346 -0.6213
 9294TIP3   OH249372   2.513   3.867  13.190  0.5400 -0.0315  0.1436
 9294TIP3    H149373   2.564   3.943  13.162  2.2162 -1.6748 -1.6191
 9294TIP3    H249374   2.505   3.813  13.111 -1.8863 -1.0237  0.9683
 9295TIP3   OH249375   4.334   3.989  13.470  0.3013 -0.0798 -0.2326
 9295TIP3    H149376   4.351   4.054  13.538 -1.5328 -1.9285  2.1791
 9295TIP3    H249377   4.363   3.906  13.509  0.4005 -1.0642 -2.2717
 9296TIP3   OH249378   1.932   2.632  16.983 -0.5220 -0.1066 -0.0882
 9296TIP3    H149379   1.985   2.711  16.973  0.7427 -1.0897 -1.7950
 9296TIP3    H249380   1.906   2.610  16.893 -1.6937 -1.0740  0.4676
 9297TIP3   OH249381   2.102   0.180   2.421 -0.1007 -0.2417 -0.0403
 9297TIP3    H149382   2.102   0.088   2.396  0.0371 -0.3906  0.5097
 9297TIP3    H249383   2.122   0.227   2.339 -1.3418 -0.6165 -0.5903
 9298TIP3   OH249384   6.038   1.493  15.528  0.1017 -0.1145  1.0741
 9298TIP3    H149385   6.027   1.460  15.439  1.2369 -0.9113  1.2052
 9298TIP3    H249386   5.966   1.555  15.540 -0.7707 -0.8909  0.0303
 9299TIP3   OH249387   5.046   1.059   6.288  0.3458  0.1447  0.8503
 9299TIP3    H149388   5.055   1.000   6.363 -1.3841 -2.1598 -0.5941
 9299TIP3    H249389   4.966   1.108   6.306  1.1059  1.1951  1.4668
 9300TIP3   OH249390   1.793   4.345  11.033 -0.4327  0.3192 -0.1950
 9300TIP3    H149391   1.783   4.260  10.989  1.5842  0.7573 -1.6387
 9300TIP3    H249392   1.884   4.347  11.060 -0.2927  2.2719 -0.7011
 9301TIP3   OH249393   6.723   1.688   1.364  0.1752 -0.0315 -0.1941
 9301TIP3    H149394   6.801   1.655   1.409  0.4580  0.9572  0.0607
 9301TIP3    H249395   6.651   1.670   1.424  0.0280 -1.8010 -0.8187
 9302TIP3   OH249396   2.916   5.021  13.001 -0.7466 -0.2934 -0.5747
 9302TIP3    H149397   2.898   5.105  12.960 -0.2145 -0.6124 -1.5120
 9302TIP3    H249398   2.894   4.957  12.933  0.9903 -0.8049 -0.7131
 9303TIP3   OH249399   0.624   5.889   5.851 -0.3213 -0.3621 -0.1694
 9303TIP3    H149400   0.557   5.823   5.866 -1.5085  0.9475  0.6078
 9303TIP3    H249401   0.693   5.869   5.915 -0.6725 -0.8215  0.0659
 9304TIP3   OH249402   1.642   3.344   2.409 -0.2905  0.1462 -0.2183
 9304TIP3    H149403   1.582   3.353   2.482 -1.4006 -1.0139 -0.9496
 9304TIP3    H249404   1.679   3.256   2.419  0.3491  0.3728 -0.4853
 9305TIP3   OH249405   1.037   4.609   1.657  0.5016  0.1506 -0.3896
 9305TIP3    H149406   0.992   4.657   1.588  1.1968  1.2039 -0.1276
 9305TIP3    H249407   1.118   4.579   1.615 -0.0901 -1.1458 -0.6605
 9306TIP3   OH249408   3.013   0.827   3.301  0.0858  0.0350  0.2258
 9306TIP3    H149409   2.977   0.887   3.367  1.5856  0.3052  0.8335
 9306TIP3    H249410   3.048   0.885   3.234  1.8169 -0.1117  0.9584
 9307TIP3   OH249411   4.307   0.749   0.282  0.0611  0.0522 -0.4452
 9307TIP3    H149412   4.295   0.790   0.368  2.4309 -2.4986  1.2753
 9307TIP3    H249413   4.402   0.748   0.270 -0.1359 -1.3711 -2.2278
 9308TIP3   OH249414   2.818   4.596   2.719 -0.1092 -0.3839 -0.2956
 9308TIP3    H149415   2.830   4.549   2.801  0.5634  0.4912  0.1330
 9308TIP3    H249416   2.882   4.557   2.660  0.4353 -0.0429  0.0530
 9309TIP3   OH249417   3.433   5.711   2.137 -0.7055 -0.0085  0.1495
 9309TIP3    H149418   3.515   5.719   2.088 -1.0465 -0.8326 -0.5869
 9309TIP3    H249419   3.373   5.667   2.076 -1.2199 -0.8683  1.2364
 9310TIP3   OH249420   3.575   3.445  15.350  0.3075 -0.0309 -0.6123
 9310TIP3    H149421   3.645   3.475  15.408 -0.6688  2.3680 -0.5842
 9310TIP3    H249422   3.496   3.448  15.404 -0.3429  0.5814 -1.5604
 9311TIP3   OH249423   4.733   2.382  14.834  0.2083 -0.6350  0.3771
 9311TIP3    H149424   4.803   2.341  14.784  1.3126 -0.4402  1.6943
 9311TIP3    H249425   4.683   2.309  14.871  0.7094 -0.7995  0.7423
 9312TIP3   OH249426   4.631   5.771   4.682  0.5937  0.6301 -0.1175
 9312TIP3    H149427   4.662   5.853   4.644  2.4858  0.1565  0.3082
 9312TIP3    H249428   4.687   5.704   4.643 -1.0294 -0.5138 -0.5856
 9313TIP3   OH249429   6.021   4.901   2.350  0.3003 -0.2318  0.2111
 9313TIP3    H149430   6.089   4.848   2.391 -0.3294 -1.1662  0.0673
 9313TIP3    H249431   6.040   4.896   2.256  1.1386  1.0696  0.2905
 9314TIP3   OH249432   0.900   4.761   1.477 -0.3031  0.5519 -0.1287
 9314TIP3    H149433   0.900   4.734   1.385 -0.0210  2.0226 -0.5861
 9314TIP3    H249434   0.816   4.804   1.490 -0.0023  1.0830  0.0719
 9315TIP3   OH249435   6.566   2.221   4.524 -0.8206 -0.6612  0.2744
 9315TIP3    H149436   6.517   2.157   4.473 -2.3342  0.0996  0.7060
 9315TIP3    H249437   6.601   2.172   4.598 -1.2107 -1.1661  0.1257
 9316TIP3   OH249438   2.158   2.846  10.748  0.4491  0.0171  0.1283
 9316TIP3    H149439   2.063   2.842  10.739  0.3462  1.4144  0.3885
 9316TIP3    H249440   2.183   2.758  10.777 -1.0604  0.2589  2.4806
 9317TIP3   OH249441   5.332   2.009  15.482 -0.1934 -0.2518 -0.0151
 9317TIP3    H149442   5.242   1.977  15.488  0.0314 -0.9885 -0.4799
 9317TIP3    H249443   5.322   2.104  15.472 -0.9898 -0.4355 -1.3317
 9318TIP3   OH249444   3.215   5.504   4.643  0.1708 -0.2627 -0.4892
 9318TIP3    H149445   3.176   5.590   4.631  3.0061  1.3983  1.0486
 9318TIP3    H249446   3.152   5.456   4.697  0.2995  2.4516  2.3509
 9319TIP3   OH249447   2.210   1.393   1.465  0.9672  0.5494 -0.2424
 9319TIP3    H149448   2.256   1.451   1.525 -0.1672  1.9027 -0.6250
 9319TIP3    H249449   2.216   1.436   1.380  0.6034 -0.1851 -0.6511
 9320TIP3   OH249450   4.623   6.083   5.016  0.0713 -0.0609  0.2108
 9320TIP3    H149451   4.658   6.002   4.980  0.7095  0.4840 -0.4347
 9320TIP3    H249452   4.631   6.073   5.111  0.4677 -0.6087  0.1198
 9321TIP3   OH249453   6.654   5.461  13.546 -0.7625 -0.3263  0.3443
 9321TIP3    H149454   6.639   5.393  13.611 -0.6739 -1.7601 -1.0616
 9321TIP3    H249455   6.567   5.481  13.512 -0.8273  0.5310  0.9850
 9322TIP3   OH249456   2.857   4.056   5.486 -0.4310  0.4135  0.0529
 9322TIP3    H149457   2.844   3.991   5.555 -1.4047  1.0859  0.5321
 9322TIP3    H249458   2.831   4.139   5.526 -0.0402  0.9685 -0.8105
 9323TIP3   OH249459   3.836   2.291  16.656  0.4103  0.2496 -0.3372
 9323TIP3    H149460   3.834   2.274  16.562  1.6070 -1.9673 -0.0010
 9323TIP3    H249461   3.874   2.379  16.664 -0.3040  0.7319 -1.9077
 9324TIP3   OH249462   1.667   5.687  15.293  0.3441  0.2259  0.0712
 9324TIP3    H149463   1.725   5.764  15.297  0.3296  0.2655 -0.3929
 9324TIP3    H249464   1.626   5.684  15.379  0.0536  0.9713 -0.0300
 9325TIP3   OH249465   3.544   3.536  10.968 -0.4805 -0.0856  0.7879
 9325TIP3    H149466   3.490   3.459  10.955 -2.2138  0.7899  2.3156
 9325TIP3    H249467   3.482   3.609  10.966  0.8256  1.0822  1.3591
 9326TIP3   OH249468   2.316   6.595  13.393  0.2105 -0.0396  0.3332
 9326TIP3    H149469   2.293   6.524  13.333 -1.4059 -1.2727  2.2889
 9326TIP3    H249470   2.395   6.634  13.355  1.1557 -2.8612 -0.8738
 9327TIP3   OH249471   4.942   1.169   5.488 -0.5639 -0.2361 -0.1949
 9327TIP3    H149472   4.920   1.104   5.555 -0.9588 -0.1942 -0.2767
 9327TIP3    H249473   5.020   1.213   5.521 -2.0308  1.3601  1.3584
 9328TIP3   OH249474   0.451   2.956  11.886  0.6908 -0.0882 -0.2305
 9328TIP3    H149475   0.431   2.867  11.914  3.5500 -0.3256  1.4401
 9328TIP3    H249476   0.413   3.012  11.953  0.2157 -0.1286 -0.4623
 9329TIP3   OH249477   4.697   1.821   1.955 -0.2489 -0.1328  0.2265
 9329TIP3    H149478   4.672   1.773   2.034  0.5921  0.2280  0.7245
 9329TIP3    H249479   4.779   1.780   1.927  0.4654  0.9569  0.6367
 9330TIP3   OH249480   1.930   3.295  14.135  0.5242  0.6340  0.1636
 9330TIP3    H149481   1.866   3.363  14.116 -0.3402  0.1602  1.2491
 9330TIP3    H249482   1.880   3.226  14.178  0.7457 -2.0373 -3.4094
 9331TIP3   OH249483   3.423   3.226  14.394  0.1945 -0.2194  0.3892
 9331TIP3    H149484   3.347   3.265  14.351 -0.1743 -1.7511 -0.4427
 9331TIP3    H249485   3.387   3.181  14.470  0.0386 -1.8468 -0.5806
 9332TIP3   OH249486   2.132   6.039   1.412 -0.5448 -0.6563 -0.3821
 9332TIP3    H149487   2.111   6.111   1.352 -0.7907  0.8836  1.4447
 9332TIP3    H249488   2.199   5.989   1.367  0.6923  1.5588 -1.1733
 9333TIP3   OH249489   0.549   4.860   3.503  0.2138 -0.5599 -0.0777
 9333TIP3    H149490   0.484   4.811   3.452 -0.6765  1.5068 -1.0642
 9333TIP3    H249491   0.496   4.919   3.557  1.2403  1.1814 -0.9033
 9334TIP3   OH249492   3.758   4.128   5.907  0.0971  0.1540  0.3069
 9334TIP3    H149493   3.732   4.217   5.929  0.5146  0.2830  0.2915
 9334TIP3    H249494   3.693   4.072   5.950  0.0643  0.4531  0.6508
 9335TIP3   OH249495   6.066   0.936  15.731 -0.1154 -0.5667 -0.1409
 9335TIP3    H149496   6.116   0.859  15.704 -0.3973 -0.8730  0.1914
 9335TIP3    H249497   6.002   0.949  15.661 -0.2626 -0.8159 -0.0518
 9336TIP3   OH249498   6.826   3.407  15.212 -0.1829 -0.3764 -0.3726
 9336TIP3    H149499   6.893   3.404  15.280 -0.5256  0.5883  0.0230
 9336TIP3    H249500   6.835   3.493  15.172 -0.3462 -0.7273 -1.1835
 9337TIP3   OH249501   2.507   4.361   0.626  0.5336  0.0395 -0.0666
 9337TIP3    H149502   2.558   4.285   0.598  0.0494 -0.4758  0.4300
 9337TIP3    H249503   2.423   4.325   0.655 -0.0086  0.8509 -0.5899
 9338TIP3   OH249504   3.786   1.417   4.230 -0.0669  0.2491 -0.6147
 9338TIP3    H149505   3.791   1.439   4.323 -0.9844  0.5833 -0.6304
 9338TIP3    H249506   3.869   1.375   4.211  0.5975  1.2028  0.0887
 9339TIP3   OH249507   3.711   2.026  16.050 -0.1885 -0.0980  0.4389
 9339TIP3    H149508   3.805   2.035  16.064 -0.0971  1.7764 -0.9642
 9339TIP3    H249509   3.672   2.047  16.135  0.6251 -2.6427  1.5580
 9340TIP3   OH249510   1.393   2.901   4.335  0.2967 -0.2991 -0.2904
 9340TIP3    H149511   1.431   2.859   4.412  1.4039 -0.0766 -0.6936
 9340TIP3    H249512   1.311   2.855   4.320 -0.7999  0.7663  2.0273
 9341TIP3   OH249513   2.400   1.036  11.193 -0.2569 -0.6849  0.3732
 9341TIP3    H149514   2.349   1.035  11.112 -1.3047  0.1535  0.9916
 9341TIP3    H249515   2.392   0.947  11.228  2.1926 -1.8111 -1.5774
 9342TIP3   OH249516   0.479   1.128  12.186  0.1838 -0.1882 -0.1831
 9342TIP3    H149517   0.483   1.044  12.139  2.2404 -0.0752 -0.3340
 9342TIP3    H249518   0.396   1.125  12.234  0.6989 -2.8345  0.7409
 9343TIP3   OH249519   4.898   2.347  14.583  0.2597 -0.6221 -0.1251
 9343TIP3    H149520   4.967   2.353  14.517 -1.2679 -0.1974 -1.7530
 9343TIP3    H249521   4.863   2.435  14.589  0.0622 -0.7639  0.9334
 9344TIP3   OH249522   0.521   0.439  11.034  0.0511  0.0158 -0.3653
 9344TIP3    H149523   0.460   0.372  11.001 -0.7356  0.4616  0.1475
 9344TIP3    H249524   0.601   0.390  11.055 -0.9710 -1.0382  1.3457
 9345TIP3   OH249525   5.009   4.740  14.080 -0.4777  0.5000  0.1879
 9345TIP3    H149526   5.025   4.656  14.036  1.2945  0.7874  0.1858
 9345TIP3    H249527   4.971   4.716  14.165  0.3550 -0.3467  0.3411
 9346TIP3   OH249528   0.992   0.854   2.097  0.2900 -0.5462 -0.0529
 9346TIP3    H149529   1.074   0.805   2.086 -0.3231 -1.2395 -1.8746
 9346TIP3    H249530   0.925   0.787   2.106 -0.0764  0.0193  1.9665
 9347TIP3   OH249531   5.103   0.352  16.990 -0.3309 -0.0761 -0.1895
 9347TIP3    H149532   5.199   0.360  16.994 -0.4389  0.7506  0.9081
 9347TIP3    H249533   5.077   0.415  16.923 -0.2707  1.2747  1.0192
 9348TIP3   OH249534   5.753   5.233  12.830 -0.0258 -0.0066  0.9573
 9348TIP3    H149535   5.670   5.203  12.793  0.2803 -0.1444  0.3826
 9348TIP3    H249536   5.770   5.174  12.903  0.8365 -1.5999 -0.4754
 9349TIP3   OH249537   5.961   6.028   5.339  0.4675 -0.3159 -0.1681
 9349TIP3    H149538   6.035   5.981   5.300 -0.4735 -0.7099 -1.5652
 9349TIP3    H249539   5.974   6.119   5.312  1.3310 -0.0573  1.0356
 9350TIP3   OH249540   4.655   2.566   1.974 -0.4512 -0.4154 -0.1486
 9350TIP3    H149541   4.669   2.556   2.068 -0.0961 -0.5715 -0.2200
 9350TIP3    H249542   4.644   2.661   1.962 -1.5219 -0.4800  0.1912
 9351TIP3   OH249543   0.447   2.083   3.440  0.6392 -0.3824  0.2722
 9351TIP3    H149544   0.514   2.102   3.506  0.9024 -2.0085  0.5041
 9351TIP3    H249545   0.494   2.087   3.357  0.5669  0.4658  0.2603
 9352TIP3   OH249546   5.777   2.684   1.193  0.1889  0.3561 -0.2778
 9352TIP3    H149547   5.709   2.752   1.191 -0.8525 -0.6673 -1.8043
 9352TIP3    H249548   5.840   2.711   1.125  0.3277  0.3307 -0.1599
 9353TIP3   OH249549   6.020   6.636  10.830  0.0704  0.2575  0.2791
 9353TIP3    H149550   6.014   6.676  10.744 -0.5359 -0.2943  0.0587
 9353TIP3    H249551   6.110   6.604  10.835 -0.2465 -0.8530 -0.6789
 9354TIP3   OH249552   6.503   6.782  13.732  0.3721 -0.1067  0.0840
 9354TIP3    H149553   6.566   6.851  13.755  0.3815  0.7006 -2.1086
 9354TIP3    H249554   6.445   6.777  13.808  0.5170  2.1863  0.4354
 9355TIP3   OH249555   3.657   0.626   6.068  0.8764 -0.3776  0.5959
 9355TIP3    H149556   3.710   0.648   6.144 -0.3964  1.7514  0.9549
 9355TIP3    H249557   3.622   0.539   6.087 -0.9060  0.8088  3.4373
 9356TIP3   OH249558   5.567   5.064   5.355  0.3355 -0.3555  0.3807
 9356TIP3    H149559   5.561   5.155   5.383  0.9489 -0.4843  0.9578
 9356TIP3    H249560   5.525   5.062   5.269  0.3812  0.4812  0.3361
 9357TIP3   OH249561   4.781   1.900   3.657 -0.4332 -0.0311  0.4840
 9357TIP3    H149562   4.720   1.848   3.606  1.2011 -1.1739 -0.3747
 9357TIP3    H249563   4.798   1.977   3.604 -2.4096  1.1981  1.5042
 9358TIP3   OH249564   2.038   4.080  12.039 -0.1966  0.5793  0.0032
 9358TIP3    H149565   1.994   3.996  12.022  2.9020 -0.9174 -1.4472
 9358TIP3    H249566   2.060   4.078  12.132 -0.9608  0.2228  0.1847
 9359TIP3   OH249567   1.573   1.665   3.780 -0.0343  0.0404  0.5668
 9359TIP3    H149568   1.524   1.610   3.719  1.0452 -1.6606  1.1369
 9359TIP3    H249569   1.654   1.686   3.733  0.6986 -1.0830  1.2715
 9360TIP3   OH249570   6.474   2.254   6.009  0.5218  0.1395 -0.2148
 9360TIP3    H149571   6.530   2.201   6.066  0.9348 -0.7913 -1.4551
 9360TIP3    H249572   6.400   2.278   6.064  1.2844 -0.0780  0.9444
 9361TIP3   OH249573   4.541   1.756  13.467 -0.3414 -0.2534 -0.0665
 9361TIP3    H149574   4.487   1.793  13.398  0.4079 -1.0310 -1.0910
 9361TIP3    H249575   4.621   1.809  13.467  0.4252 -1.3431 -1.0495
 9362TIP3   OH249576   1.303   1.553  10.116  0.6244  1.0296  0.5127
 9362TIP3    H149577   1.324   1.468  10.153 -0.2351  0.1075 -1.0155
 9362TIP3    H249578   1.213   1.545  10.085 -0.5779  3.4455  2.8961
 9363TIP3   OH249579   2.925   5.976   3.680 -0.2408 -0.0304 -0.6535
 9363TIP3    H149580   3.003   6.015   3.719 -0.3689 -0.3079 -0.1020
 9363TIP3    H249581   2.922   6.012   3.591 -1.2733  2.5931  0.3196
 9364TIP3   OH249582   4.874   0.699  14.038 -0.0722  0.4250 -0.5488
 9364TIP3    H149583   4.917   0.635  13.982 -1.3987 -0.1499 -0.9413
 9364TIP3    H249584   4.896   0.784  13.999 -1.7024  0.0095 -2.5396
 9365TIP3   OH249585   1.948   3.494   5.469  0.0165 -0.2782 -0.7543
 9365TIP3    H149586   1.855   3.475   5.486 -0.6044  1.8749 -1.3692
 9365TIP3    H249587   1.971   3.559   5.535  0.6244  0.3827 -1.6001
 9366TIP3   OH249588   3.711   2.948   2.319 -0.0038  0.3873 -0.0968
 9366TIP3    H149589   3.777   3.017   2.317  0.5449 -0.1264 -0.0487
 9366TIP3    H249590   3.723   2.905   2.403  0.6792 -0.7213 -0.7316
 9367TIP3   OH249591   1.313   0.843   1.825 -0.5032 -0.4285 -0.3528
 9367TIP3    H149592   1.360   0.889   1.895 -0.9831 -0.1452 -0.2139
 9367TIP3    H249593   1.338   0.888   1.745 -0.3081 -0.4642 -0.3112
 9368TIP3   OH249594   0.362   1.264   4.517  0.5050  0.1169  0.1663
 9368TIP3    H149595   0.271   1.293   4.524  0.1438 -1.1890  1.4647
 9368TIP3    H249596   0.398   1.313   4.444 -1.0605  1.1444  0.0497
 9369TIP3   OH249597   5.185   3.958   0.485 -0.3406  0.3467  0.3665
 9369TIP3    H149598   5.277   3.967   0.507  0.3827 -1.8062 -1.3301
 9369TIP3    H249599   5.172   4.017   0.411 -0.8303  1.9441  1.6713
 9370TIP3   OH249600   1.688   0.677  13.334  0.1372  0.4413  0.0988
 9370TIP3    H149601   1.598   0.666  13.304  0.0189 -0.0369  0.6074
 9370TIP3    H249602   1.706   0.770  13.323 -1.1776  0.9875  2.0428
 9371TIP3   OH249603   6.762   3.629   3.099  0.1780 -0.2501  0.1424
 9371TIP3    H149604   6.736   3.539   3.116  1.3656 -0.4105  1.2321
 9371TIP3    H249605   6.773   3.668   3.186  0.4403  0.7236 -0.3072
 9372TIP3   OH249606   1.608   2.091  10.936  0.0346  0.5043 -0.7111
 9372TIP3    H149607   1.535   2.039  10.901  0.2883 -0.7767  0.5727
 9372TIP3    H249608   1.647   2.133  10.860  1.1743 -2.9222 -2.1953
 9373TIP3   OH249609   1.207   3.793   3.207  0.1804 -0.7223 -0.1755
 9373TIP3    H149610   1.172   3.706   3.190 -0.9139 -0.4515  0.5803
 9373TIP3    H249611   1.279   3.803   3.144 -0.8418 -1.4674 -1.5168
 9374TIP3   OH249612   5.003   3.644   4.642 -0.0722 -0.1624  0.1281
 9374TIP3    H149613   4.952   3.722   4.620  1.1651  1.1142  1.5580
 9374TIP3    H249614   4.942   3.571   4.629 -1.1241  0.9674 -1.7006
 9375TIP3   OH249615   0.542   3.044  13.362 -0.0215  0.4963  0.2611
 9375TIP3    H149616   0.549   2.973  13.298  0.3711  1.0006 -0.2565
 9375TIP3    H249617   0.631   3.076  13.373 -0.5002  2.6297 -1.4831
 9376TIP3   OH249618   5.589   2.847  12.055  0.2737  0.0686  0.5410
 9376TIP3    H149619   5.494   2.845  12.058  0.2729  0.6767  1.1302
 9376TIP3    H249620   5.610   2.853  11.962 -0.2311 -1.0928  0.3423
 9377TIP3   OH249621   0.706   1.058   4.316 -0.1913  0.5461  0.1716
 9377TIP3    H149622   0.702   1.037   4.222 -0.5327 -2.0067  0.6726
 9377TIP3    H249623   0.615   1.051   4.345  0.0283  0.5067  0.8487
 9378TIP3   OH249624   0.219   1.114   3.967  0.2076 -0.6927 -0.1015
 9378TIP3    H149625   0.139   1.080   4.008 -0.6879 -0.9797 -1.9913
 9378TIP3    H249626   0.261   1.166   4.036 -1.5301 -0.6530  0.9863
 9379TIP3   OH249627   2.340   0.012   3.664  0.0869 -0.2006  0.5426
 9379TIP3    H149628   2.420   0.061   3.646  0.4465 -0.7681  0.5592
 9379TIP3    H249629   2.309   0.046   3.748 -0.0458  0.4773  0.2218
 9380TIP3   OH249630   4.048   3.494   0.027 -1.6177  0.1270  0.1318
 9380TIP3    H149631   4.012   3.566  -0.026 -1.5386 -0.1436 -0.2916
 9380TIP3    H249632   4.004   3.503   0.112 -1.2893  0.9400  0.2229
 9381TIP3   OH249633   3.615   1.175   0.476 -0.6541  0.1996  0.3387
 9381TIP3    H149634   3.677   1.200   0.407 -0.0262  3.5502  1.8986
 9381TIP3    H249635   3.670   1.157   0.552 -1.4508 -1.0460  0.6482
 9382TIP3   OH249636   4.764   2.407  13.382 -0.5619 -0.0781  0.3902
 9382TIP3    H149637   4.693   2.423  13.321  0.3851  1.3277 -0.3929
 9382TIP3    H249638   4.770   2.487  13.434 -0.2056 -0.5795  1.1499
 9383TIP3   OH249639   1.802   6.220   4.262  0.5785  0.4294 -0.3298
 9383TIP3    H149640   1.735   6.153   4.252  1.5823 -0.3268 -2.9835
 9383TIP3    H249641   1.760   6.301   4.234  0.1660  0.3795  0.1408
 9384TIP3   OH249642   1.560   4.370  14.555 -0.0889  0.4518 -0.0572
 9384TIP3    H149643   1.609   4.303  14.602 -1.7681 -1.0741 -0.3770
 9384TIP3    H249644   1.603   4.377  14.470  1.3076  1.2613  0.6889
 9385TIP3   OH249645   0.642   4.010  16.609 -0.1735  0.2689  0.0013
 9385TIP3    H149646   0.654   4.045  16.521 -1.0292  1.8329  0.4784
 9385TIP3    H249647   0.553   3.975  16.610  0.6215 -1.9669 -0.4337
 9386TIP3   OH249648   5.200   2.628   5.559 -0.4015 -0.1573 -0.1604
 9386TIP3    H149649   5.203   2.618   5.464  0.7610 -0.8691 -0.0785
 9386TIP3    H249650   5.286   2.665   5.581 -0.0650 -1.3775  0.7289
 9387TIP3   OH249651   5.567   4.545  13.418 -0.2728 -0.2456  0.2488
 9387TIP3    H149652   5.659   4.530  13.395  0.2266 -2.4765  3.0395
 9387TIP3    H249653   5.518   4.497  13.352  0.6372 -0.1199 -0.5426
 9388TIP3   OH249654   3.934   2.612   3.533  0.1773 -0.2915 -0.0597
 9388TIP3    H149655   3.954   2.675   3.601  0.3833 -0.3027 -0.1102
 9388TIP3    H249656   3.875   2.549   3.575  0.1899 -0.2193  0.0666
 9389TIP3   OH249657   1.173   2.776  11.257 -0.2483 -0.3031 -0.0241
 9389TIP3    H149658   1.122   2.695  11.251 -0.3557 -0.1486 -1.4387
 9389TIP3    H249659   1.264   2.746  11.265 -0.3232 -0.5638 -0.1405
 9390TIP3   OH249660   6.308   4.576   0.940 -0.2498 -0.1685 -0.2657
 9390TIP3    H149661   6.253   4.623   0.878 -0.1210  0.9068  0.4121
 9390TIP3    H249662   6.383   4.546   0.889 -0.8830 -0.6234 -0.9466
 9391TIP3   OH249663   4.564   3.214   3.979 -0.0805  0.4128 -0.6117
 9391TIP3    H149664   4.524   3.196   4.064  1.0154 -2.5966 -0.6224
 9391TIP3    H249665   4.624   3.287   3.996  1.1080 -0.9693  1.5692
 9392TIP3   OH249666   4.911   3.014   1.921 -0.1770  0.1435 -0.2480
 9392TIP3    H149667   4.953   3.050   1.999  0.7558 -2.0789  0.3448
 9392TIP3    H249668   4.886   3.091   1.870 -1.1334  1.6928  2.3643
 9393TIP3   OH249669   5.352   5.142   4.026  0.3416 -0.2268  0.0171
 9393TIP3    H149670   5.310   5.105   3.948 -1.0517 -1.4677  1.2954
 9393TIP3    H249671   5.347   5.072   4.091 -1.5712  1.8561  2.2904
 9394TIP3   OH249672   5.399   1.458  14.674  0.3775 -0.2335 -0.3235
 9394TIP3    H149673   5.401   1.544  14.716 -0.7086 -0.5888  0.5140
 9394TIP3    H249674   5.373   1.476  14.584 -1.3163  0.2254  0.2180
 9395TIP3   OH249675   1.427   3.536  16.935 -0.4615 -0.3351  0.5829
 9395TIP3    H149676   1.508   3.586  16.930 -0.2913 -0.5253  1.2828
 9395TIP3    H249677   1.455   3.444  16.934 -0.7765 -0.4300 -0.7981
 9396TIP3   OH249678   4.965   5.323   2.036  0.2318  0.4778  0.1483
 9396TIP3    H149679   4.962   5.385   2.109  1.7949 -0.5838  1.1828
 9396TIP3    H249680   5.006   5.245   2.072  0.2597 -0.4058 -1.6600
 9397TIP3   OH249681   4.267   5.776  13.432  0.0151  0.6244 -0.1366
 9397TIP3    H149682   4.257   5.864  13.467 -2.1236  0.7050 -0.7931
 9397TIP3    H249683   4.267   5.787  13.337 -0.9179 -0.1022 -0.2421
 9398TIP3   OH249684   0.569   6.624  15.769  0.1010 -0.2690  0.2548
 9398TIP3    H149685   0.581   6.702  15.714 -3.3006 -0.4493 -1.0073
 9398TIP3    H249686   0.622   6.557  15.726  0.7051  0.6066 -0.4200
 9399TIP3   OH249687   3.979   6.689   4.350  0.5871  0.3891  0.3480
 9399TIP3    H149688   3.884   6.683   4.366  0.5919  0.7683  0.5107
 9399TIP3    H249689   4.015   6.724   4.431  0.6211  2.2722 -0.4420
 9400TIP3   OH249690   5.195   0.891  13.712 -0.0484 -0.0071  0.0963
 9400TIP3    H149691   5.162   0.801  13.715 -2.0184  0.6568 -0.0079
 9400TIP3    H249692   5.215   0.905  13.619 -2.0649  0.3912 -0.3236
 9401TIP3   OH249693   3.108   5.770   3.115  0.2271  0.0908 -0.2807
 9401TIP3    H149694   3.141   5.860   3.119 -0.6277  0.4041 -0.0996
 9401TIP3    H249695   3.128   5.734   3.201  0.9928 -0.0562 -0.5086
 9402TIP3   OH249696   1.865   1.493   1.971  0.2196  0.3347  0.1145
 9402TIP3    H149697   1.899   1.498   2.061  0.5842 -1.3664  0.0990
 9402TIP3    H249698   1.780   1.537   1.975 -0.6426 -1.3537  1.7610
 9403TIP3   OH249699   5.929   6.681   6.043 -0.0587 -0.2284  0.4378
 9403TIP3    H149700   5.918   6.683   6.138 -3.5125  0.0529  0.1603
 9403TIP3    H249701   6.008   6.733   6.027  0.1194  0.4545  3.0872
 9404TIP3   OH249702   1.839   2.220  11.516  0.1419  0.3564  0.3846
 9404TIP3    H149703   1.765   2.255  11.466 -0.6019 -0.6107  0.7674
 9404TIP3    H249704   1.826   2.125  11.515 -0.2583  0.3182  2.8846
 9405TIP3   OH249705   5.985   1.886  13.358  0.5167  0.0194  0.2442
 9405TIP3    H149706   5.958   1.946  13.288  0.7238  0.4008  0.4898
 9405TIP3    H249707   6.009   1.943  13.430 -1.3980 -0.3869  1.2726
 9406TIP3   OH249708   0.514   3.624  13.416 -0.3746  0.2453 -0.2866
 9406TIP3    H149709   0.448   3.684  13.452 -0.2916  0.5432 -0.6365
 9406TIP3    H249710   0.490   3.538  13.452 -1.3263  0.2393 -0.9083
 9407TIP3   OH249711   4.253   5.296   0.869  0.2662  0.5663  0.3451
 9407TIP3    H149712   4.224   5.377   0.827  1.5588  0.1483 -1.4285
 9407TIP3    H249713   4.329   5.321   0.920 -0.5284  0.8168  1.4543
 9408TIP3   OH249714   4.744   5.929   0.224  0.2025 -0.3737 -0.1038
 9408TIP3    H149715   4.734   5.883   0.141 -0.7191 -0.9355  0.3052
 9408TIP3    H249716   4.734   5.861   0.291  0.4883  0.1420  0.4737
 9409TIP3   OH249717   6.158   6.196   6.071 -0.1191  0.0583 -0.3085
 9409TIP3    H149718   6.179   6.242   6.152 -0.9177  0.6026 -0.3992
 9409TIP3    H249719   6.096   6.129   6.097  0.7080 -0.6988 -0.2492
 9410TIP3   OH249720   1.890   2.520  11.866 -0.3215 -0.1412 -1.1498
 9410TIP3    H149721   1.911   2.449  11.926  1.8716  0.1314 -1.4996
 9410TIP3    H249722   1.907   2.600  11.916  0.7432  0.0866 -1.8279
 9411TIP3   OH249723   6.201   0.505   2.809 -0.1338 -0.3056 -0.0641
 9411TIP3    H149724   6.110   0.515   2.837  0.9089  0.6290  3.5210
 9411TIP3    H249725   6.232   0.594   2.795  0.7628 -0.4670  0.7953
 9412TIP3   OH249726   6.661   1.130   5.232  0.0692 -0.2711 -0.3106
 9412TIP3    H149727   6.577   1.086   5.248  0.2042 -0.7684 -0.9105
 9412TIP3    H249728   6.712   1.066   5.183 -0.1415  0.9509 -2.2303
 9413TIP3   OH249729   5.184   1.837  12.575  0.3527 -0.1973  0.0270
 9413TIP3    H149730   5.174   1.784  12.495  2.2530 -1.2825  0.4249
 9413TIP3    H249731   5.099   1.830  12.619 -0.1934 -0.9821 -1.0817
 9414TIP3   OH249732   5.300   5.490  15.138 -0.1644 -0.0292  0.4238
 9414TIP3    H149733   5.287   5.484  15.044 -1.7211 -0.0552  0.6232
 9414TIP3    H249734   5.395   5.500  15.148  0.0006  0.2641 -1.1481
 9415TIP3   OH249735   1.370   0.491   2.510  0.0710 -0.4137  0.1443
 9415TIP3    H149736   1.462   0.466   2.503  0.0488 -0.5870  0.4621
 9415TIP3    H249737   1.326   0.412   2.542  0.1814  0.3411  2.2871
 9416TIP3   OH249738   3.005   1.793  15.502 -0.2384  0.0969  0.4247
 9416TIP3    H149739   3.057   1.777  15.423  0.2839  0.1913  0.7416
 9416TIP3    H249740   3.062   1.764  15.574 -1.1444 -1.0375  0.7041
 9417TIP3   OH249741   5.718   3.393  13.320 -0.1235  0.0504 -0.1817
 9417TIP3    H149742   5.688   3.306  13.347 -1.5455 -0.1451 -2.1654
 9417TIP3    H249743   5.639   3.438  13.293  0.8512  1.2094 -1.2170
 9418TIP3   OH249744   5.364   6.108   1.740 -0.0758 -0.2456  0.5210
 9418TIP3    H149745   5.403   6.020   1.736 -1.3627 -0.8120 -0.0807
 9418TIP3    H249746   5.282   6.096   1.787 -2.2160 -0.2012 -2.8587
 9419TIP3   OH249747   1.912   4.347   4.740  0.1699  0.1564 -0.0242
 9419TIP3    H149748   1.908   4.431   4.695 -0.7582 -0.3757 -0.9818
 9419TIP3    H249749   1.820   4.322   4.753  0.4252 -0.9551 -0.2384
 9420TIP3   OH249750   0.674   1.090   0.356 -0.2610 -0.3205  0.6612
 9420TIP3    H149751   0.705   1.014   0.307  0.7672  0.4578  0.0708
 9420TIP3    H249752   0.730   1.162   0.327 -1.6409  0.8124  0.7252
 9421TIP3   OH249753   6.147   3.718   0.507 -0.1052  0.7113 -0.2655
 9421TIP3    H149754   6.058   3.697   0.535  0.1212 -1.1059 -0.7882
 9421TIP3    H249755   6.193   3.634   0.508  1.4935  1.5486 -0.4173
 9422TIP3   OH249756   2.219   3.992   1.164 -0.5948 -0.1092  0.7487
 9422TIP3    H149757   2.294   3.934   1.176 -1.4547 -1.2344  0.8507
 9422TIP3    H249758   2.199   4.024   1.252  0.7456  1.5279  0.5255
 9423TIP3   OH249759   4.404   1.496  13.521  0.0235 -0.6894  0.5939
 9423TIP3    H149760   4.458   1.574  13.506 -3.3569  1.6738 -0.4485
 9423TIP3    H249761   4.383   1.500  13.614 -0.1788 -0.3168  0.5345
 9424TIP3   OH249762   2.036   0.909   0.063 -0.3862 -0.1088  0.2972
 9424TIP3    H149763   1.999   0.967   0.129 -4.2320 -0.9008 -0.8779
 9424TIP3    H249764   2.092   0.966   0.010 -0.7261  1.5318  1.6148
 9425TIP3   OH249765   3.939   3.850   2.871 -0.2225 -0.4792 -0.6557
 9425TIP3    H149766   4.007   3.874   2.808 -1.6618 -1.0069 -2.4834
 9425TIP3    H249767   3.958   3.903   2.948  1.8420 -0.1099 -1.3597
 9426TIP3   OH249768   4.107   2.905   4.318 -0.1992 -0.3458 -0.3488
 9426TIP3    H149769   4.128   2.965   4.389  1.4069 -2.4054  1.0377
 9426TIP3    H249770   4.137   2.949   4.239  0.5920  0.8158  0.5655
 9427TIP3   OH249771   0.344   1.217  14.747  0.3929  0.1315 -0.6288
 9427TIP3    H149772   0.297   1.196  14.667  2.2059 -0.5939 -1.5541
 9427TIP3    H249773   0.291   1.178  14.817 -0.5919 -0.2656 -1.5679
 9428TIP3   OH249774   2.647   2.737   5.124  0.7158 -0.1431 -0.6869
 9428TIP3    H149775   2.560   2.746   5.086 -0.7933  2.6980  2.8232
 9428TIP3    H249776   2.634   2.680   5.200  1.8170  0.5839  0.0859
 9429TIP3   OH249777   6.002   2.309  16.830 -0.4321 -0.6766  0.0841
 9429TIP3    H149778   6.055   2.264  16.764 -0.9654  1.2341 -1.7834
 9429TIP3    H249779   5.969   2.239  16.886  0.5763 -2.3463 -1.2982
 9430TIP3   OH249780   6.716   2.002  15.911  0.5576  0.2333  0.5421
 9430TIP3    H149781   6.621   2.017  15.906  0.5316  0.2986  1.1003
 9430TIP3    H249782   6.739   1.964  15.827 -0.1058 -0.5180  0.6845
 9431TIP3   OH249783   0.797   4.059   2.113 -0.2360 -0.3884 -0.6365
 9431TIP3    H149784   0.821   3.969   2.137 -0.5896 -0.1562  0.6659
 9431TIP3    H249785   0.820   4.111   2.190 -0.3531  0.5881 -1.2508
 9432TIP3   OH249786   2.130   1.921  13.310 -0.4892 -0.4117  0.5068
 9432TIP3    H149787   2.127   1.904  13.215 -0.2682  1.3344  0.1624
 9432TIP3    H249788   2.146   1.835  13.349  1.3052 -0.8930 -1.1498
 9433TIP3   OH249789   0.068   4.937  17.069 -0.6246  0.2874  0.4589
 9433TIP3    H149790   0.053   4.949  16.975  0.2981 -0.0484  0.2599
 9433TIP3    H249791   0.002   4.993  17.111 -0.7714  0.7717 -0.3914
 9434TIP3   OH249792   4.066   4.214  15.626 -0.1115 -0.3491  0.5699
 9434TIP3    H149793   4.045   4.302  15.658  1.0977  0.2686 -0.2861
 9434TIP3    H249794   4.041   4.216  15.534  0.5014 -0.7026  0.3963
 9435TIP3   OH249795   5.413   3.289   1.161 -0.1254 -0.0451 -1.2937
 9435TIP3    H149796   5.347   3.255   1.101 -0.9891  0.2724 -0.5378
 9435TIP3    H249797   5.496   3.255   1.126 -0.9674 -3.8203 -0.0536
 9436TIP3   OH249798   4.207   6.456  11.352  0.1733  0.3715  0.2135
 9436TIP3    H149799   4.231   6.378  11.302 -0.9298 -0.6204  1.1703
 9436TIP3    H249800   4.288   6.505  11.360  0.6135  0.0151 -1.5775
 9437TIP3   OH249801   6.447   3.420   3.151 -0.7375  0.0318 -0.4391
 9437TIP3    H149802   6.539   3.447   3.156 -0.5343 -0.4887 -1.2620
 9437TIP3    H249803   6.438   3.353   3.219 -0.7260  0.6783  0.2103
 9438TIP3   OH249804   5.287   1.463   1.780 -0.3339  0.3455 -0.1560
 9438TIP3    H149805   5.201   1.478   1.822  0.7782  0.8462  2.1259
 9438TIP3    H249806   5.332   1.547   1.789  0.3563  0.1401 -1.4963
 9439TIP3   OH249807   4.453   0.127  12.323 -0.5388  0.6856  0.3469
 9439TIP3    H149808   4.412   0.094  12.403 -1.0181 -0.3149 -0.3012
 9439TIP3    H249809   4.382   0.133  12.260  0.3451 -1.7296 -1.0083
 9440TIP3   OH249810   3.295   3.511   1.545 -0.1951 -0.4354 -0.1358
 9440TIP3    H149811   3.365   3.447   1.559 -0.1968 -0.4863 -0.3466
 9440TIP3    H249812   3.248   3.477   1.469  0.5905  0.4984 -1.0717
 9441TIP3   OH249813   0.565   3.192   1.870 -0.2678  0.6367  0.0919
 9441TIP3    H149814   0.527   3.264   1.919 -0.9826  0.8824 -0.7989
 9441TIP3    H249815   0.604   3.233   1.792  0.2504  0.1826  0.1055
 9442TIP3   OH249816   2.084   4.164   2.992  0.1505  0.0338 -0.2134
 9442TIP3    H149817   2.140   4.198   2.922 -0.9865 -0.4910 -1.4251
 9442TIP3    H249818   1.998   4.203   2.976 -0.9515 -2.4701 -1.0853
 9443TIP3   OH249819   6.713   6.063  14.046 -0.1623  0.2801  0.3085
 9443TIP3    H149820   6.636   6.109  14.012 -1.0121 -0.5638  0.9897
 9443TIP3    H249821   6.698   6.060  14.141  0.9253  0.4618  0.4930
 9444TIP3   OH249822   1.267   3.492  15.024  0.2323 -0.0776  0.0445
 9444TIP3    H149823   1.303   3.481  14.937  1.0636 -1.2858  0.5151
 9444TIP3    H249824   1.176   3.520  15.010 -0.4747 -2.7579 -1.2580
 9445TIP3   OH249825   4.499   1.794  10.866 -0.1101  0.5528 -0.7636
 9445TIP3    H149826   4.531   1.731  10.931  0.1227  0.8760 -0.5643
 9445TIP3    H249827   4.559   1.868  10.872 -0.7955  1.1067 -0.4907
 9446TIP3   OH249828   1.648   5.539   1.611  0.4278  0.0890  0.1755
 9446TIP3    H149829   1.685   5.610   1.664 -2.1669  0.2373  1.9541
 9446TIP3    H249830   1.633   5.579   1.525  2.6320  0.4771 -0.1049
 9447TIP3   OH249831   4.866   3.993  11.200 -0.7258  0.3661  0.0102
 9447TIP3    H149832   4.862   4.026  11.110 -1.3724 -1.0598 -0.5298
 9447TIP3    H249833   4.928   4.050  11.244 -0.8370  1.4682 -1.1868
 9448TIP3   OH249834   6.548   3.716  15.229  0.1368 -0.5130  0.2186
 9448TIP3    H149835   6.600   3.676  15.159 -1.5060 -3.0846  0.3261
 9448TIP3    H249836   6.556   3.655  15.302 -2.0237 -0.4163  0.5997
 9449TIP3   OH249837   4.812   6.667   4.375 -0.4910  0.1830 -0.1478
 9449TIP3    H149838   4.896   6.683   4.332 -0.3276 -1.2583 -0.4259
 9449TIP3    H249839   4.766   6.607   4.316 -0.6234 -1.1534  1.2653
 9450TIP3   OH249840   6.813   0.151  11.061 -0.3042 -0.3249  0.3013
 9450TIP3    H149841   6.837   0.240  11.036  0.5346 -0.7779 -0.5539
 9450TIP3    H249842   6.790   0.109  10.978 -1.1616 -0.7809  0.7546
 9451TIP3   OH249843   3.416   3.456  13.778  0.2573  0.7175 -0.2758
 9451TIP3    H149844   3.406   3.361  13.787  1.4889  0.5886 -0.0676
 9451TIP3    H249845   3.382   3.475  13.691  0.8818 -0.0802 -0.7135
 9452TIP3   OH249846   3.403   3.057  15.638  0.6230 -0.2684  0.1315
 9452TIP3    H149847   3.432   2.969  15.614  0.6645 -0.6316  1.4169
 9452TIP3    H249848   3.318   3.044  15.680 -0.8006  0.6387 -2.2482
 9453TIP3   OH249849   6.361   3.019   3.808  0.5788  0.1994  0.6297
 9453TIP3    H149850   6.294   2.970   3.855  1.1951 -0.7835  0.5159
 9453TIP3    H249851   6.440   2.966   3.817  1.3743  1.3893  0.8609
 9454TIP3   OH249852   4.382   0.413   2.575  0.2238  0.3567 -0.1498
 9454TIP3    H149853   4.380   0.325   2.613  3.2859 -0.3764 -1.4323
 9454TIP3    H249854   4.452   0.458   2.622  0.2150  1.3543 -1.0502
 9455TIP3   OH249855   4.234   1.788  12.131 -0.2192 -0.7724 -0.0380
 9455TIP3    H149856   4.284   1.774  12.212 -0.4494 -1.2624  0.0199
 9455TIP3    H249857   4.147   1.815  12.161  0.5515  2.1794 -0.1369
 9456TIP3   OH249858   4.149   6.376   3.320 -0.4642  0.0047  0.4065
 9456TIP3    H149859   4.154   6.283   3.299  0.7030  0.2937 -0.7568
 9456TIP3    H249860   4.162   6.381   3.415  2.9170 -0.8406  0.1087
 9457TIP3   OH249861   1.890   1.834   2.067 -0.0467  0.1357 -0.2538
 9457TIP3    H149862   1.980   1.823   2.097  0.1032  1.8363  0.0432
 9457TIP3    H249863   1.898   1.846   1.973 -0.0998 -0.9392 -0.4061
 9458TIP3   OH249864   6.306   1.373   3.948 -0.8997  0.0227 -0.3749
 9458TIP3    H149865   6.348   1.390   4.033 -0.3603  0.3784 -0.7095
 9458TIP3    H249866   6.376   1.384   3.884 -1.7878  2.0181 -1.0808
 9459TIP3   OH249867   1.876   3.723  11.823 -0.8644  0.0197  0.1336
 9459TIP3    H149868   1.876   3.707  11.917 -1.4047  0.3603  0.1969
 9459TIP3    H249869   1.846   3.641  11.784  1.7838 -0.9992  0.0719
 9460TIP3   OH249870   4.953   4.824   4.087  0.5407 -0.9877  0.4169
 9460TIP3    H149871   4.953   4.881   4.165 -0.7283  0.1177 -0.3441
 9460TIP3    H249872   5.045   4.805   4.072  1.1186  1.4637  0.3333
 9461TIP3   OH249873   5.759   2.152  17.021  0.6000  0.2517 -0.6313
 9461TIP3    H149874   5.806   2.069  17.013 -1.3915 -0.9412 -0.7543
 9461TIP3    H249875   5.703   2.155  16.943  1.8905  2.6180 -1.5754
 9462TIP3   OH249876   3.487   1.250   5.236 -0.3479  0.0076  0.1073
 9462TIP3    H149877   3.493   1.342   5.261  3.0443  0.3687 -1.3475
 9462TIP3    H249878   3.453   1.252   5.147  0.6251  0.0153 -0.2856
 9463TIP3   OH249879   5.027   5.787   1.390 -0.0500  0.1637  0.5945
 9463TIP3    H149880   4.955   5.744   1.435  0.3024 -1.3151 -0.1693
 9463TIP3    H249881   5.102   5.778   1.449  0.0793 -0.5362  0.3407
 9464TIP3   OH249882   1.418   2.692   1.388 -0.0902 -0.3580  0.2847
 9464TIP3    H149883   1.383   2.769   1.432  0.7883  0.5155 -0.5106
 9464TIP3    H249884   1.394   2.704   1.296  2.8944  0.6781 -0.4495
 9465TIP3   OH249885   3.482   0.026  12.061  0.4199 -0.2435 -0.1267
 9465TIP3    H149886   3.543   0.016  11.988 -0.8408 -3.6116 -0.9049
 9465TIP3    H249887   3.403   0.062  12.022  0.7286  0.8086  0.1984
 9466TIP3   OH249888   4.252   4.975   1.712 -0.3691 -0.0595  0.3127
 9466TIP3    H149889   4.326   5.035   1.717 -0.8559  0.5238  0.7103
 9466TIP3    H249890   4.200   5.006   1.637 -1.6385  1.2439  1.6625
 9467TIP3   OH249891   5.769   4.403   1.991 -0.7082  0.3234  0.5337
 9467TIP3    H149892   5.680   4.372   1.981  0.2849 -2.5740 -0.2639
 9467TIP3    H249893   5.771   4.445   2.077 -2.9218  0.9826  0.3144
 9468TIP3   OH249894   0.486   0.600   0.996 -0.2501  0.9247 -0.9049
 9468TIP3    H149895   0.542   0.635   1.065  1.1244  1.1154 -2.0758
 9468TIP3    H249896   0.397   0.618   1.026  0.3434  2.0117  0.2893
 9469TIP3   OH249897   2.616   2.590  11.834  0.4924 -0.1811  0.7691
 9469TIP3    H149898   2.696   2.545  11.809  0.1528 -0.3753 -0.0002
 9469TIP3    H249899   2.574   2.532  11.896 -0.0835 -1.0930 -0.4271
 9470TIP3   OH249900   4.223   3.859   2.237  0.1663  0.7905  0.1850
 9470TIP3    H149901   4.250   3.786   2.181  3.2554  2.6121 -0.8986
 9470TIP3    H249902   4.208   3.931   2.176  1.5554  2.2532  1.5157
 9471TIP3   OH249903   1.373   5.122  11.079 -0.1811 -0.6457 -0.2427
 9471TIP3    H149904   1.368   5.105  11.173  0.8196 -0.2210 -0.0990
 9471TIP3    H249905   1.283   5.144  11.054 -0.2506  0.4622  0.8586
 9472TIP3   OH249906   4.378   6.775   0.907 -0.4722 -0.0089  0.4171
 9472TIP3    H149907   4.401   6.813   0.822 -2.4839 -1.4331 -0.8504
 9472TIP3    H249908   4.318   6.839   0.946 -0.1628  0.2886  0.4053
 9473TIP3   OH249909   4.751   2.579   2.250  0.6014  1.0109  0.0444
 9473TIP3    H149910   4.817   2.608   2.186  1.4136  0.1020  0.4429
 9473TIP3    H249911   4.800   2.567   2.331  0.7641 -3.0139 -0.4315
 9474TIP3   OH249912   6.828   4.507  14.300 -0.0114  0.1548  0.0579
 9474TIP3    H149913   6.909   4.507  14.248 -0.5040 -2.1977 -0.8009
 9474TIP3    H249914   6.812   4.600  14.318  2.9742  0.6994  0.4693
 9475TIP3   OH249915   3.976   1.403   5.932  0.4809  0.2231 -1.0436
 9475TIP3    H149916   4.051   1.346   5.915  0.6140  0.2288 -0.4904
 9475TIP3    H249917   3.905   1.365   5.880  0.4735 -0.6583 -0.4085
 9476TIP3   OH249918   0.096   1.707   2.912 -0.2877 -0.2450  0.1984
 9476TIP3    H149919   0.111   1.734   2.821 -1.8519  3.1794  0.7999
 9476TIP3    H249920   0.174   1.738   2.959  0.2114 -1.4222  0.1958
 9477TIP3   OH249921   0.020   6.758   2.435 -0.5455 -0.3477  0.1228
 9477TIP3    H149922  -0.075   6.763   2.441 -0.5020  0.0725  0.5098
 9477TIP3    H249923   0.052   6.781   2.522 -0.1097 -1.4668  0.2733
 9478TIP3   OH249924   6.234   2.005   3.272 -0.2389  0.0434 -0.3266
 9478TIP3    H149925   6.182   2.080   3.244  0.1965  0.6783  0.5335
 9478TIP3    H249926   6.281   1.978   3.192 -0.3508  0.7249 -0.6326
 9479TIP3   OH249927   3.785   4.391   1.318 -0.1032  0.1077  0.0651
 9479TIP3    H149928   3.712   4.424   1.265 -0.8937 -1.3265  0.1878
 9479TIP3    H249929   3.748   4.314   1.362  2.0762 -2.0742 -1.6168
 9480TIP3   OH249930   6.379   5.122   0.051  0.0635 -0.2279 -0.0080
 9480TIP3    H149931   6.289   5.144   0.025  0.0036  0.0706  0.4334
 9480TIP3    H249932   6.368   5.053   0.116  0.2463 -1.5272 -1.2981
 9481TIP3   OH249933   5.888   2.704  13.372 -0.1153 -0.3550 -0.1383
 9481TIP3    H149934   5.868   2.763  13.300  0.6533 -1.0192 -0.9231
 9481TIP3    H249935   5.912   2.621  13.330  1.5334 -0.4069  0.8087
 9482TIP3   OH249936   4.551   2.965   2.745 -0.2508 -0.2736 -0.0801
 9482TIP3    H149937   4.606   2.920   2.809  0.6346  1.3696  0.3728
 9482TIP3    H249938   4.602   2.962   2.664 -0.4487 -0.5833 -0.1927
 9483TIP3   OH249939   1.729   4.126  12.877 -0.0471  0.0325 -0.8261
 9483TIP3    H149940   1.657   4.145  12.938  0.5098  3.1701 -0.9912
 9483TIP3    H249941   1.803   4.103  12.933 -0.0675  0.9461 -0.4158
 9484TIP3   OH249942   5.032   6.838   2.131 -0.3430 -0.3113 -0.1513
 9484TIP3    H149943   5.086   6.899   2.082 -0.1691 -1.1485 -1.0457
 9484TIP3    H249944   4.943   6.870   2.121 -0.0458  1.2457  1.5785
 9485TIP3   OH249945   5.509   3.746  16.210 -0.5600 -0.6299 -0.6944
 9485TIP3    H149946   5.603   3.740  16.228 -0.4596 -2.3291 -1.5558
 9485TIP3    H249947   5.494   3.838  16.191  0.9458 -0.3447 -0.6441
 9486TIP3   OH249948   1.227   3.368   2.497  0.2283 -0.1929  0.1624
 9486TIP3    H149949   1.286   3.416   2.438 -0.4404 -0.2283 -0.5593
 9486TIP3    H249950   1.257   3.277   2.490 -1.9993 -0.8612 -2.9743
 9487TIP3   OH249951   0.068   0.132   6.341 -0.2969  0.2824  0.2003
 9487TIP3    H149952   0.022   0.067   6.287  0.4141  0.3391 -0.4905
 9487TIP3    H249953   0.125   0.178   6.280  2.5949 -1.4518  1.3631
 9488TIP3   OH249954   4.629   1.006   2.745  0.2750 -0.7317 -0.1566
 9488TIP3    H149955   4.659   0.970   2.828 -0.3095 -0.5451  0.1400
 9488TIP3    H249956   4.709   1.027   2.697  0.6413  0.4985  0.9331
 9489TIP3   OH249957   2.609   0.075   4.163  0.0873 -0.4820  0.1090
 9489TIP3    H149958   2.565   0.110   4.240 -0.1475 -0.9728  0.2026
 9489TIP3    H249959   2.674   0.013   4.198  1.1144  0.4928 -0.0031
 9490TIP3   OH249960   0.736   4.238  14.612 -0.0126 -0.0683 -0.0093
 9490TIP3    H149961   0.666   4.252  14.549 -1.3224 -1.2096  1.1001
 9490TIP3    H249962   0.704   4.165  14.667  2.8862 -2.0118 -0.6732
 9491TIP3   OH249963   5.086   1.177  13.586  0.0549 -0.4539  0.2768
 9491TIP3    H149964   5.040   1.259  13.601 -0.2268 -0.1930 -1.7345
 9491TIP3    H249965   5.141   1.165  13.664 -1.9370  0.2022  1.8821
 9492TIP3   OH249966   5.968   2.960  16.209 -0.5797  0.2459 -0.0175
 9492TIP3    H149967   6.017   3.037  16.238 -1.2217  0.9176 -0.6543
 9492TIP3    H249968   5.977   2.960  16.114  0.9362 -1.5397  0.0779
 9493TIP3   OH249969   0.915   3.300   3.395 -0.3236 -0.1625  0.3475
 9493TIP3    H149970   0.876   3.225   3.440 -0.4980  0.7139  1.7242
 9493TIP3    H249971   0.999   3.268   3.364 -0.2002 -0.8170  1.3067
 9494TIP3   OH249972   6.638   0.191   4.004 -0.3610  0.3097 -0.0727
 9494TIP3    H149973   6.561   0.246   3.986 -0.2619  1.0391  1.5093
 9494TIP3    H249974   6.689   0.194   3.923 -1.0479  1.4251 -0.4925
 9495TIP3   OH249975   0.214   3.485   2.917  0.5589  0.1611  0.3028
 9495TIP3    H149976   0.120   3.486   2.894  0.1959 -1.4399  1.5379
 9495TIP3    H249977   0.257   3.453   2.837 -0.2292 -1.3390  0.4363
 9496TIP3   OH249978   3.550   4.253   5.056 -0.3172  0.1146 -0.1199
 9496TIP3    H149979   3.471   4.201   5.042  1.9230 -4.1300  1.1596
 9496TIP3    H249980   3.584   4.270   4.968  0.6795 -4.0943 -0.7651
 9497TIP3   OH249981   2.494   6.364  14.940  0.3550 -0.1362  0.3303
 9497TIP3    H149982   2.455   6.329  14.860  0.9091 -0.1145  0.0480
 9497TIP3    H249983   2.515   6.455  14.918  0.0726  0.0088  0.6544
 9498TIP3   OH249984   1.523   3.067   3.815  0.3584  0.9203  0.3318
 9498TIP3    H149985   1.481   2.994   3.768 -2.7765  0.9072  2.8152
 9498TIP3    H249986   1.561   3.027   3.893  2.0036  1.4824 -0.1477
 9499TIP3   OH249987   4.227   0.679  13.389 -0.1925 -0.0870  0.0055
 9499TIP3    H149988   4.318   0.699  13.410 -0.0153  1.9290 -2.2477
 9499TIP3    H249989   4.177   0.719  13.460  0.6477 -2.0817  1.8017
 9500TIP3   OH249990   3.532   5.305  15.683  0.4289  0.1781  0.1846
 9500TIP3    H149991   3.564   5.355  15.608 -1.8528  0.2249 -0.8523
 9500TIP3    H249992   3.564   5.216  15.668  1.3999  0.5324  0.0744
 9501TIP3   OH249993   5.994   1.798  11.021 -0.1121 -0.1438  0.2588
 9501TIP3    H149994   6.067   1.859  11.030  0.5612 -0.6252 -1.6249
 9501TIP3    H249995   6.026   1.716  11.059  0.4400 -0.4344 -0.8241
 9502TIP3   OH249996   3.043   3.189   1.975 -0.0883  0.4101 -0.0974
 9502TIP3    H149997   3.123   3.137   1.964  0.6250  1.2211  1.0471
 9502TIP3    H249998   3.027   3.226   1.888  0.5429 -0.0930 -0.4386
 9503TIP3   OH249999   5.001   5.481   4.145  0.0534 -0.0577 -0.7561
 9503TIP3    H150000   5.035   5.535   4.216  1.4931  0.0715 -1.5098
 9503TIP3    H250001   4.948   5.540   4.092  3.6410  1.4348 -3.0325
 9504TIP3   OH250002   2.210   1.096  17.101 -0.1370  0.8302  0.0031
 9504TIP3    H150003   2.301   1.100  17.073 -0.4059 -1.0680 -1.3268
 9504TIP3    H250004   2.164   1.153  17.041 -0.6293 -2.8079 -3.5199
 9505TIP3   OH250005   4.081   6.338   1.159 -0.2017 -0.3359  0.0868
 9505TIP3    H150006   4.176   6.332   1.167  0.1557  2.3792 -1.2201
 9505TIP3    H250007   4.050   6.340   1.250  0.9661 -1.0508  0.5324
 9506TIP3   OH250008   2.695   2.722   2.447 -0.0433  0.2281  0.4518
 9506TIP3    H150009   2.698   2.698   2.355 -0.7325 -0.1814  0.5252
 9506TIP3    H250010   2.684   2.817   2.447  0.1502  0.2494  0.1126
 9507TIP3   OH250011   1.496   2.928   4.065 -0.2308 -0.0977  0.3500
 9507TIP3    H150012   1.466   2.921   4.155 -0.5012 -0.2584  0.2495
 9507TIP3    H250013   1.509   2.837   4.036  3.2308 -0.0528  1.3181
 9508TIP3   OH250014   3.450   1.686   4.569  0.0883 -0.0976  0.3080
 9508TIP3    H150015   3.462   1.599   4.606  0.6785 -0.5271 -0.8537
 9508TIP3    H250016   3.499   1.744   4.627  1.4373 -0.8261 -0.0478
 9509TIP3   OH250017   5.024   5.514  13.971 -0.0836  0.0267 -0.6711
 9509TIP3    H150018   5.017   5.490  14.064  1.5544  1.5428 -0.0958
 9509TIP3    H250019   5.012   5.431  13.924 -4.4831 -0.3061  0.6250
 9510TIP3   OH250020   6.632   6.544  13.639  0.5687 -0.7568 -0.2258
 9510TIP3    H150021   6.569   6.616  13.646 -0.0347 -1.0859 -1.9239
 9510TIP3    H250022   6.711   6.577  13.684  0.4697  1.1500 -1.3424
 9511TIP3   OH250023   5.676   2.924  10.134 -0.2967  0.4040 -0.5703
 9511TIP3    H150024   5.648   2.958  10.219 -3.2112 -1.2920 -0.6978
 9511TIP3    H250025   5.614   2.962  10.072  1.2845  0.9800 -1.8645
 9512TIP3   OH250026   4.996   1.852  13.758  0.0701  0.3811 -0.4940
 9512TIP3    H150027   4.989   1.816  13.846 -0.2185 -0.6368 -0.9224
 9512TIP3    H250028   4.906   1.856  13.726  0.0419  1.9912 -0.2692
 9513TIP3   OH250029   4.860   6.813  15.912 -0.2479 -0.1887 -0.1331
 9513TIP3    H150030   4.848   6.763  15.831  2.3559  2.3861 -2.3103
 9513TIP3    H250031   4.804   6.890  15.902  1.5332  1.1117 -0.4451
 9514TIP3   OH250032   5.657   5.341   6.017 -0.4880 -0.1653  0.4865
 9514TIP3    H150033   5.733   5.282   6.026 -1.3862 -1.2598  1.2538
 9514TIP3    H250034   5.651   5.384   6.102 -0.2095  0.5902  0.1294
 9515TIP3   OH250035   3.836   4.562  15.212 -0.2237 -0.5879 -0.1996
 9515TIP3    H150036   3.750   4.603  15.203 -0.1901  0.1005  1.9503
 9515TIP3    H250037   3.899   4.634  15.204  0.0495 -0.7997  0.0185
 9516TIP3   OH250038   2.057   1.887  12.685 -0.4930  0.1485 -0.0107
 9516TIP3    H150039   2.024   1.974  12.664 -0.9745  0.5883  2.3135
 9516TIP3    H250040   1.981   1.839  12.717  0.0625 -0.6515  0.1401
 9517TIP3   OH250041   3.942   5.419   4.864 -0.3324 -0.0178 -0.5847
 9517TIP3    H150042   3.979   5.399   4.950  0.8108  0.1850 -1.0023
 9517TIP3    H250043   3.875   5.485   4.881  0.3166  0.4900  0.0962
 9518TIP3   OH250044   2.203   5.147  11.333 -0.9625 -0.1344 -0.3596
 9518TIP3    H150045   2.193   5.056  11.304 -3.2795 -0.0227 -0.1133
 9518TIP3    H250046   2.117   5.186  11.319 -0.5291  1.5297  1.2555
 9519TIP3   OH250047   1.078   5.731  14.506 -0.6332  0.6908  0.3951
 9519TIP3    H150048   0.983   5.727  14.514 -0.5284 -0.8298  1.2297
 9519TIP3    H250049   1.110   5.710  14.594  0.5010 -1.2687 -0.4384
 9520TIP3   OH250050   6.433   2.396   0.265 -0.1950 -0.0182  0.4314
 9520TIP3    H150051   6.448   2.410   0.171 -2.1531  1.4879  0.2946
 9520TIP3    H250052   6.340   2.414   0.278  0.0408 -0.1612  2.6875
 9521TIP3   OH250053   1.691   3.680  10.795 -0.3796 -0.0600 -0.3968
 9521TIP3    H150054   1.610   3.640  10.763 -0.3279  0.4070 -1.1166
 9521TIP3    H250055   1.702   3.644  10.884  0.6269 -3.1376 -1.6186
 9522TIP3   OH250056   5.390   4.364   3.051  0.0935 -0.5238 -0.3983
 9522TIP3    H150057   5.409   4.347   2.959 -0.0497 -0.7776 -0.3801
 9522TIP3    H250058   5.460   4.423   3.079 -0.6888  0.7527 -1.0559
 9523TIP3   OH250059   3.437   2.007   4.736  0.1130  0.0127  0.6574
 9523TIP3    H150060   3.477   2.007   4.649  2.7176 -2.1741  1.7083
 9523TIP3    H250061   3.478   2.080   4.782  0.3575 -0.1508  0.7000
 9524TIP3   OH250062   3.263   1.165  16.439  0.8974 -0.2433 -1.1189
 9524TIP3    H150063   3.264   1.081  16.485 -2.6283 -0.1272 -0.5639
 9524TIP3    H250064   3.296   1.228  16.504  0.2129 -0.7157 -0.2943
 9525TIP3   OH250065   4.925   2.335  16.884  0.2251  0.2966 -0.3109
 9525TIP3    H150066   4.951   2.296  16.801 -0.2014  0.6133 -0.5982
 9525TIP3    H250067   4.872   2.267  16.926  1.5504 -0.3901  0.3218
 9526TIP3   OH250068   4.528   2.181  12.221 -0.0530 -0.0250  0.3941
 9526TIP3    H150069   4.565   2.216  12.139  0.4542 -2.6693 -0.6191
 9526TIP3    H250070   4.434   2.176  12.204 -0.0679  0.3904  0.3550
 9527TIP3   OH250071   3.927   6.751  15.184  0.2108 -0.0465  0.2449
 9527TIP3    H150072   3.882   6.835  15.176 -0.1043 -0.0992  1.2930
 9527TIP3    H250073   4.016   6.773  15.212  0.5509  0.0022 -0.8372
 9528TIP3   OH250074   3.123   4.931   4.927  0.2915 -0.3490  0.0638
 9528TIP3    H150075   3.196   4.950   4.986  0.8747 -0.8308 -0.4831
 9528TIP3    H250076   3.111   4.836   4.933 -0.1601 -0.2986  0.0033
 9529TIP3   OH250077   2.701   0.686   1.175 -0.3461  0.0287 -0.3346
 9529TIP3    H150078   2.764   0.712   1.107 -0.7026  2.5482  0.1931
 9529TIP3    H250079   2.754   0.640   1.240  0.6095  0.4932 -0.7609
 9530TIP3   OH250080   3.373   0.481   1.104  0.0573 -0.0720  0.3610
 9530TIP3    H150081   3.400   0.394   1.074  0.8431  0.5145 -0.6789
 9530TIP3    H250082   3.278   0.474   1.114 -0.3135 -0.2983 -2.4389
 9531TIP3   OH250083   0.197   1.204  15.622 -0.1350  0.0184 -0.9750
 9531TIP3    H150084   0.158   1.266  15.684 -0.7312  0.3799 -1.6979
 9531TIP3    H250085   0.252   1.148  15.677 -0.3763  0.5457 -0.1646
 9532TIP3   OH250086   6.099   2.305   3.619 -0.3420 -0.5531 -0.6848
 9532TIP3    H150087   6.034   2.235   3.626 -0.0671 -0.6635  1.5827
 9532TIP3    H250088   6.078   2.365   3.691  1.5493 -0.1893 -0.3715
 9533TIP3   OH250089   1.746   3.563  10.099  0.1386 -0.0807  0.1756
 9533TIP3    H150090   1.652   3.552  10.088  0.1068  1.2804 -1.2328
 9533TIP3    H250091   1.781   3.474  10.096 -0.9269 -0.4883 -1.2217
 9534TIP3   OH250092   1.825   5.288  10.792 -0.0057  0.2323 -0.0274
 9534TIP3    H150093   1.778   5.320  10.715 -0.8444  0.2218  0.4716
 9534TIP3    H250094   1.899   5.348  10.802 -0.7269  1.1303  0.0210
 9535TIP3   OH250095   5.893   5.849   4.469  0.5806  0.5516  0.0959
 9535TIP3    H150096   5.853   5.829   4.385  0.3363 -2.0086  0.7366
 9535TIP3    H250097   5.820   5.877   4.525  0.4830  0.5956 -0.0535
 9536TIP3   OH250098   2.641   1.898  13.262 -0.2970  0.4194  0.6883
 9536TIP3    H150099   2.612   1.881  13.172 -1.6443  0.6581  1.0551
 9536TIP3    H250100   2.560   1.912  13.311  0.2991 -1.1268  2.2407
 9537TIP3   OH250101   2.205   0.883  12.795  0.7230 -0.1569  0.5363
 9537TIP3    H150102   2.260   0.898  12.719  1.3963 -1.6456  0.6985
 9537TIP3    H250103   2.162   0.800  12.778 -2.7533  1.6220 -0.2993
 9538TIP3   OH250104   6.209   0.951   6.413 -0.5832 -0.5047 -0.2975
 9538TIP3    H150105   6.152   0.950   6.490 -1.4016  2.8573 -0.7043
 9538TIP3    H250106   6.156   0.915   6.342 -1.7721  1.2366 -0.3542
 9539TIP3   OH250107   0.010   0.063   1.122 -0.3690  0.0689  0.3931
 9539TIP3    H150108   0.061   0.126   1.172 -0.4456  0.4144  0.0441
 9539TIP3    H250109  -0.032   0.008   1.188  3.1632 -2.5131  0.7676
 9540TIP3   OH250110   3.834   6.229  15.993  1.1937 -0.0323  0.7875
 9540TIP3    H150111   3.829   6.300  15.929  1.5095 -0.7515 -0.0529
 9540TIP3    H250112   3.759   6.244  16.051  1.1104  0.8324  0.4759
 9541TIP3   OH250113   6.252   4.922  11.324  0.0874  0.8437 -0.3831
 9541TIP3    H150114   6.201   4.875  11.258  0.2414  0.3772 -0.1755
 9541TIP3    H250115   6.240   4.871  11.404  2.5816 -0.5298 -0.7793
 9542TIP3   OH250116   4.645   4.464   3.113  0.3062  0.3704  0.0861
 9542TIP3    H150117   4.651   4.551   3.152  2.1263  0.5159 -0.4254
 9542TIP3    H250118   4.690   4.472   3.029 -0.3813 -0.8277 -0.4324
 9543TIP3   OH250119   2.055   6.440  15.156 -0.5469  0.3962  0.2618
 9543TIP3    H150120   2.043   6.534  15.147 -0.1127  0.4173 -0.1561
 9543TIP3    H250121   2.048   6.424  15.250  0.1155  0.9568  0.4153
 9544TIP3   OH250122   3.253   1.947  16.144  0.1232  0.1041 -0.3172
 9544TIP3    H150123   3.276   1.928  16.053  1.3100  1.3381 -0.3118
 9544TIP3    H250124   3.315   1.895  16.196 -1.6907 -2.0070 -0.1215
 9545TIP3   OH250125   0.660   3.024   2.527 -0.0781 -0.6421  0.2586
 9545TIP3    H150126   0.652   3.067   2.442 -2.1567  0.9861  1.1677
 9545TIP3    H250127   0.570   3.023   2.562  0.6667 -1.4509  2.3379
 9546TIP3   OH250128   5.818   1.897  11.809  0.2155 -0.1389 -0.2769
 9546TIP3    H150129   5.909   1.868  11.817  0.6996  1.1609 -0.7773
 9546TIP3    H250130   5.818   1.986  11.844 -0.5713  0.3662 -1.4984
 9547TIP3   OH250131   3.547   5.975  12.156 -0.1795  0.0068  0.5802
 9547TIP3    H150132   3.587   5.890  12.142  1.3528  0.4698  1.7421
 9547TIP3    H250133   3.614   6.038  12.130 -1.4770  0.8993 -0.7759
 9548TIP3   OH250134   2.076   4.986  13.934 -0.1430 -0.2062  0.0770
 9548TIP3    H150135   2.114   5.044  13.867 -1.0818 -0.2794 -0.5437
 9548TIP3    H250136   2.055   5.045  14.007 -0.9612  0.2328 -0.4942
 9549TIP3   OH250137   2.365   2.922  11.039 -0.1439 -0.0377 -0.1993
 9549TIP3    H150138   2.443   2.870  11.061  1.8541  2.7093 -0.2033
 9549TIP3    H250139   2.334   2.885  10.957  1.0916 -1.2942 -0.1487
 9550TIP3   OH250140   1.232   6.428  11.669  0.7242 -0.8948  0.0728
 9550TIP3    H150141   1.294   6.482  11.620  1.0251 -1.2184  0.0874
 9550TIP3    H250142   1.285   6.389  11.739  0.4933 -1.1363  0.1140
 9551TIP3   OH250143   6.704   2.878   2.103 -0.1926 -0.1206 -0.5774
 9551TIP3    H150144   6.609   2.874   2.100 -0.1285 -0.6638 -2.6054
 9551TIP3    H250145   6.734   2.817   2.036  1.6227 -0.6285  0.6110
 9552TIP3   OH250146   4.707   2.037  15.395 -0.4651 -0.1170 -0.4301
 9552TIP3    H150147   4.726   2.103  15.461  2.2179  1.0050 -2.1437
 9552TIP3    H250148   4.629   2.069  15.351 -0.6706  0.5590  0.4022
 9553TIP3   OH250149   5.493   3.493  12.414  0.3579 -0.5002  0.2294
 9553TIP3    H150150   5.521   3.579  12.447 -1.3913  0.8386 -1.4813
 9553TIP3    H250151   5.401   3.487  12.440 -0.0516 -0.9863 -1.2190
 9554TIP3   OH250152   6.115   6.704   0.336 -0.9050  0.3444  0.0404
 9554TIP3    H150153   6.082   6.634   0.393 -0.6486 -1.7747 -2.2397
 9554TIP3    H250154   6.051   6.708   0.265  1.1724 -0.4288 -1.9567
 9555TIP3   OH250155   0.794   3.677  15.489 -0.1959 -0.5852  0.2445
 9555TIP3    H150156   0.778   3.606  15.426 -0.6956  0.2926 -0.6522
 9555TIP3    H250157   0.849   3.739  15.441 -2.5265  1.2716 -0.2392
 9556TIP3   OH250158   6.566   1.387   3.796 -0.9082  0.0767 -0.0551
 9556TIP3    H150159   6.536   1.318   3.737 -1.3441 -0.0396  0.2970
 9556TIP3    H250160   6.635   1.346   3.848  0.8372  0.6994 -1.7368
 9557TIP3   OH250161   5.524   1.186  14.334 -0.4000 -0.1825  0.7001
 9557TIP3    H150162   5.547   1.269  14.375  0.4280  0.0618 -0.2110
 9557TIP3    H250163   5.576   1.120  14.380  1.2436  0.2056 -0.5144
 9558TIP3   OH250164   6.219   4.194   1.255 -0.1654 -1.0813  0.3183
 9558TIP3    H150165   6.230   4.175   1.162 -0.3059 -0.2825  0.1305
 9558TIP3    H250166   6.226   4.290   1.261 -0.9315 -1.0562  1.0152
 9559TIP3   OH250167   4.168   5.143  16.029 -0.3507  0.2655 -0.2460
 9559TIP3    H150168   4.106   5.149  15.956 -1.7111 -2.2208  0.5766
 9559TIP3    H250169   4.129   5.078  16.087  1.1831  1.4385  2.2285
 9560TIP3   OH250170   5.665   6.094   0.027 -0.1367  0.1301  0.2818
 9560TIP3    H150171   5.693   6.034  -0.042 -2.8808  0.5927 -1.3880
 9560TIP3    H250172   5.702   6.179   0.001 -0.8952  0.2377 -0.4925
 9561TIP3   OH250173   3.649   4.921   5.185 -0.1300  0.4316  0.1848
 9561TIP3    H150174   3.628   5.011   5.160  0.7217 -0.0882 -2.8514
 9561TIP3    H250175   3.581   4.896   5.247 -1.3917  2.6089 -0.2374
 9562TIP3   OH250176   5.693   1.603   5.683  0.2267 -0.2348  0.1602
 9562TIP3    H150177   5.598   1.618   5.678  0.2249  0.3940  1.6620
 9562TIP3    H250178   5.708   1.530   5.623 -1.2250 -0.4212 -0.0327
 9563TIP3   OH250179   6.688   2.157   0.559 -0.0595 -0.1015  0.2192
 9563TIP3    H150180   6.704   2.114   0.643 -0.3536 -2.1782 -0.7283
 9563TIP3    H250181   6.744   2.110   0.497  0.0590  1.3069 -0.8101
 9564TIP3   OH250182   3.381   4.343   1.260 -0.3653  0.5735 -0.2387
 9564TIP3    H150183   3.338   4.416   1.305 -1.5173  0.2884 -0.8348
 9564TIP3    H250184   3.312   4.304   1.206  0.3641 -0.6353 -0.3365
 9565TIP3   OH250185   0.558   0.174   5.213  0.0755  0.2216  0.0606
 9565TIP3    H150186   0.632   0.205   5.266  0.4230 -0.5127  0.0232
 9565TIP3    H250187   0.482   0.219   5.248  0.7285  2.0710 -0.8075
 9566TIP3   OH250188   4.900   0.590   5.735  0.2765  0.2663  0.1322
 9566TIP3    H150189   4.950   0.509   5.725  0.0844  0.0618  0.7827
 9566TIP3    H250190   4.813   0.561   5.762 -0.4649  0.5608 -1.7688
 9567TIP3   OH250191   2.438   1.482  13.480 -0.5572 -0.0882  0.0892
 9567TIP3    H150192   2.513   1.504  13.425  0.1331 -0.0077  1.0291
 9567TIP3    H250193   2.476   1.466  13.567 -1.4272 -1.6593  0.2304
 9568TIP3   OH250194   0.376   3.190   5.478  0.1566  0.9277  0.1450
 9568TIP3    H150195   0.425   3.268   5.450  3.4217 -0.4224  1.6129
 9568TIP3    H250196   0.414   3.167   5.563 -1.3324 -1.7584  0.1920
 9569TIP3   OH250197   1.082   4.616  10.151  0.8355 -0.1992  0.1757
 9569TIP3    H150198   1.104   4.523  10.162  1.1196 -0.3582 -1.4925
 9569TIP3    H250199   0.999   4.616  10.104  1.1708  0.3858 -0.4255
 9570TIP3   OH250200   4.585   4.494   2.384 -0.5831 -0.9377  0.2993
 9570TIP3    H150201   4.635   4.414   2.401 -0.1073 -0.6399  0.3486
 9570TIP3    H250202   4.520   4.469   2.319  0.2821 -1.1125 -0.5343
 9571TIP3   OH250203   5.956   6.841   3.719 -0.2310  0.4738 -0.0321
 9571TIP3    H150204   5.907   6.759   3.711 -2.3261  1.7974 -1.6349
 9571TIP3    H250205   6.007   6.846   3.639 -0.8108  1.1539 -0.3660
 9572TIP3   OH250206   5.749   0.936   4.371 -0.0172  0.1053  0.1776
 9572TIP3    H150207   5.703   1.018   4.391  0.2897  0.4302 -0.4505
 9572TIP3    H250208   5.680   0.878   4.337  0.0948  0.7441 -1.2029
 9573TIP3   OH250209   1.685   2.333   3.220  0.9854  0.2506 -0.0528
 9573TIP3    H150210   1.775   2.327   3.186  0.8979 -0.3683 -0.1890
 9573TIP3    H250211   1.681   2.265   3.287  0.2876 -0.5070 -0.8275
 9574TIP3   OH250212   4.562   1.777   5.409  0.0537 -0.0675 -0.3841
 9574TIP3    H150213   4.587   1.869   5.412 -0.3927  0.0423  0.0176
 9574TIP3    H250214   4.467   1.777   5.398 -0.2435 -0.4451  1.7364
 9575TIP3   OH250215   5.619   5.351   4.800  0.3459 -0.0259 -0.5839
 9575TIP3    H150216   5.603   5.265   4.839 -0.3158 -1.1513 -3.0971
 9575TIP3    H250217   5.703   5.341   4.755 -0.0583  0.3756 -1.4600
 9576TIP3   OH250218   0.720   6.657   3.600  0.2121 -0.1768  0.2396
 9576TIP3    H150219   0.690   6.726   3.659  0.4163  0.7631 -0.7356
 9576TIP3    H250220   0.808   6.635   3.632  1.2776  1.9283 -1.0191
 9577TIP3   OH250221   1.475   3.614   3.114  0.8796 -0.2208  0.4671
 9577TIP3    H150222   1.539   3.567   3.168  0.1690 -0.0480  1.4841
 9577TIP3    H250223   1.443   3.547   3.053  1.2840 -0.5658  0.6241
 9578TIP3   OH250224   5.746   2.884   2.133  0.2041 -0.0333 -0.1492
 9578TIP3    H150225   5.742   2.962   2.189  2.5357  1.3745 -1.7803
 9578TIP3    H250226   5.763   2.918   2.045  1.0269 -2.3536 -0.9584
 9579TIP3   OH250227   4.470   6.753   5.043 -0.4378  0.1828  0.7948
 9579TIP3    H150228   4.467   6.672   4.992  1.7083  0.4670  0.1127
 9579TIP3    H250229   4.476   6.724   5.134  1.0980 -0.5157  0.5195
 9580TIP3   OH250230   1.174   4.859  13.268  0.3303  0.3784  0.3604
 9580TIP3    H150231   1.170   4.951  13.296  1.6547  0.3032  0.8966
 9580TIP3    H250232   1.114   4.813  13.325  0.7164  0.7124  1.0467
 9581TIP3   OH250233   0.659   4.250   3.889 -0.2111 -0.6334 -0.0910
 9581TIP3    H150234   0.690   4.217   3.805  0.6744  0.1635 -0.1053
 9581TIP3    H250235   0.738   4.278   3.934 -0.9016  2.1627 -0.4172
 9582TIP3   OH250236   2.056   0.339   6.204 -0.3568 -0.3105 -1.0998
 9582TIP3    H150237   2.055   0.247   6.231 -1.1345 -0.1844 -0.6583
 9582TIP3    H250238   2.146   0.368   6.220 -0.7793 -0.2179  1.5750
 9583TIP3   OH250239   1.189   5.167  15.507  0.4497  0.0068 -0.7527
 9583TIP3    H150240   1.149   5.246  15.470  0.3655 -0.3666 -1.4923
 9583TIP3    H250241   1.118   5.103  15.508  0.0662  0.3805  1.3883
 9584TIP3   OH250242   0.563   3.845   4.627  0.5058 -0.1627  0.3893
 9584TIP3    H150243   0.516   3.787   4.568  0.9712 -0.1487  0.0059
 9584TIP3    H250244   0.530   3.933   4.607  0.3131 -0.2112  0.4888
 9585TIP3   OH250245   3.608   4.235  11.363 -0.5611 -0.1416  0.2876
 9585TIP3    H150246   3.628   4.323  11.395  0.0068 -0.5678  1.1579
 9585TIP3    H250247   3.675   4.179  11.404 -0.4337 -0.8685 -0.8714
 9586TIP3   OH250248   5.806   5.100  14.897 -0.0065  0.2054 -0.5212
 9586TIP3    H150249   5.866   5.045  14.948 -0.2830  0.0500 -0.3645
 9586TIP3    H250250   5.766   5.041  14.834 -0.7265  0.1069  0.0209
 9587TIP3   OH250251   5.278   1.631   0.044 -0.3506  0.1399 -0.2081
 9587TIP3    H150252   5.218   1.677  -0.015 -2.1844  0.0583  1.4917
 9587TIP3    H250253   5.301   1.551  -0.004  0.8086  1.5242 -2.1042
 9588TIP3   OH250254   6.464   0.863   4.092 -0.3623 -0.2567 -0.0357
 9588TIP3    H150255   6.422   0.796   4.038 -1.3573  0.1536  0.2201
 9588TIP3    H250256   6.398   0.932   4.101  0.9379  1.2080 -1.0624
 9589TIP3   OH250257   0.902   5.435   0.106  0.2267 -0.3053  0.1702
 9589TIP3    H150258   0.965   5.362   0.103  1.9421  1.1414 -1.4370
 9589TIP3    H250259   0.902   5.463   0.197  0.6155 -1.4170  0.5268
 9590TIP3   OH250260   1.168   0.882  14.113 -0.3582 -0.7562  0.3202
 9590TIP3    H150261   1.176   0.795  14.151 -0.5056 -0.9311 -0.0449
 9590TIP3    H250262   1.243   0.930  14.147 -0.9449 -0.6379  1.5219
 9591TIP3   OH250263   3.191   4.339   4.551  0.9623  0.1871 -0.1128
 9591TIP3    H150264   3.203   4.344   4.646  2.9025  2.8385 -0.3703
 9591TIP3    H250265   3.273   4.300   4.519  0.9501  0.6769 -0.7673
 9592TIP3   OH250266   3.183   3.387  10.403 -0.0086  0.2285  0.0695
 9592TIP3    H150267   3.230   3.365  10.484  0.2663  2.0550  0.4559
 9592TIP3    H250268   3.143   3.472  10.421 -0.2173  0.5195 -1.5991
 9593TIP3   OH250269   6.417   3.938  13.076  0.1399  0.4924 -0.3669
 9593TIP3    H150270   6.383   4.024  13.103 -1.6184 -0.2258 -0.1979
 9593TIP3    H250271   6.379   3.923  12.989  1.0595  0.1921 -0.7393
 9594TIP3   OH250272   4.807   0.836  12.525  0.1072  0.4893  0.1071
 9594TIP3    H150273   4.809   0.931  12.539  0.3831  0.4713  0.1974
 9594TIP3    H250274   4.814   0.826  12.430 -1.4025  0.6008 -0.0413
 9595TIP3   OH250275   4.527   1.137  16.793 -0.5051 -0.7918 -0.0085
 9595TIP3    H150276   4.469   1.206  16.762 -2.2929 -2.0176  0.4755
 9595TIP3    H250277   4.472   1.059  16.799  1.2614 -2.1007  0.1963
 9596TIP3   OH250278   0.330   0.568   1.744  0.7783 -0.1277 -0.5279
 9596TIP3    H150279   0.326   0.514   1.823  1.2741  0.7738  0.1231
 9596TIP3    H250280   0.387   0.519   1.684  2.1186  0.1669  0.4613
 9597TIP3   OH250281   1.686   6.473   0.287  0.2717 -0.0630  0.3088
 9597TIP3    H150282   1.689   6.382   0.317 -0.0803 -1.3293 -3.0419
 9597TIP3    H250283   1.616   6.474   0.223  0.5983  2.4974 -0.0917
 9598TIP3   OH250284   1.951   4.094  16.436  0.0283  0.2024 -0.2442
 9598TIP3    H150285   1.988   4.082  16.349  0.5133  3.1300 -0.5449
 9598TIP3    H250286   2.009   4.157  16.479 -2.0112  1.3495  0.9922
 9599TIP3   OH250287   3.883   1.808  14.437 -0.3140 -0.4036 -0.1570
 9599TIP3    H150288   3.946   1.880  14.431 -0.9245  0.0322 -2.6053
 9599TIP3    H250289   3.878   1.787  14.530 -0.4829  3.0484  0.7242
 9600TIP3   OH250290   5.100   0.451   0.540 -0.0473  0.5191  0.1451
 9600TIP3    H150291   5.083   0.427   0.449  2.4773 -0.2184 -0.2132
 9600TIP3    H250292   5.103   0.368   0.586 -0.5511  0.8409  0.7711
 9601TIP3   OH250293   5.531   0.219  14.356  0.0256 -0.1764  0.3467
 9601TIP3    H150294   5.541   0.171  14.438  0.1371 -0.1840  0.3292
 9601TIP3    H250295   5.520   0.152  14.289  0.1797 -0.1779  0.3223
 9602TIP3   OH250296   5.470   5.118  14.844 -0.7404 -0.1829  0.2462
 9602TIP3    H150297   5.512   5.037  14.872 -1.5120 -1.0701 -1.0940
 9602TIP3    H250298   5.485   5.178  14.917 -1.1963 -1.8829  1.8318
 9603TIP3   OH250299   3.160   3.494   0.111  0.2330  0.7330  0.1606
 9603TIP3    H150300   3.119   3.410   0.093 -2.4043  1.7802  0.7756
 9603TIP3    H250301   3.248   3.472   0.141 -0.6485 -1.8587  1.1121
 9604TIP3   OH250302   4.869   0.910  13.611  0.6026 -0.1960 -0.6620
 9604TIP3    H150303   4.911   0.965  13.678 -1.0739 -0.5040  0.7293
 9604TIP3    H250304   4.800   0.965  13.575  0.0374 -0.7836 -0.5030
 9605TIP3   OH250305   4.178   3.390  10.805 -0.3920 -0.6032  0.1144
 9605TIP3    H150306   4.169   3.295  10.809  2.9404 -1.0172  0.0583
 9605TIP3    H250307   4.240   3.405  10.733  0.5002  1.4692  1.2423
 9606TIP3   OH250308   5.142   3.701  10.890 -0.2009  0.4494 -0.3053
 9606TIP3    H150309   5.096   3.618  10.878  0.1079  0.4270 -1.4567
 9606TIP3    H250310   5.234   3.678  10.885 -0.1186  0.9177 -1.1203
 9607TIP3   OH250311   5.124   4.550   1.950  0.0915 -0.0498 -0.2055
 9607TIP3    H150312   5.189   4.611   1.914  1.4942 -0.4139  1.5904
 9607TIP3    H250313   5.167   4.465   1.947 -0.9730 -0.5857 -0.5532
 9608TIP3   OH250314   6.600   3.837   0.272 -0.1166  0.0944  0.3390
 9608TIP3    H150315   6.573   3.894   0.200  2.6565  0.4292 -0.5903
 9608TIP3    H250316   6.642   3.896   0.335  0.8635 -0.6437  0.4024
 9609TIP3   OH250317   2.815   1.522  15.612  0.0196  0.5944 -0.3492
 9609TIP3    H150318   2.833   1.602  15.662  2.4208  0.9167 -1.5774
 9609TIP3    H250319   2.879   1.523  15.541 -0.8062 -1.7474 -1.2364
 9610TIP3   OH250320   1.227   1.414  11.931  0.7527  1.2993 -0.6202
 9610TIP3    H150321   1.206   1.437  12.022  0.2345 -1.4410  0.0393
 9610TIP3    H250322   1.199   1.490  11.880  0.1508  2.5156  1.4187
 9611TIP3   OH250323   2.008   2.680   4.500 -0.4914 -0.1095  0.2978
 9611TIP3    H150324   1.939   2.737   4.534 -0.6667  0.3798 -0.8056
 9611TIP3    H250325   2.087   2.709   4.544 -0.7314  0.4023  0.4047
 9612TIP3   OH250326   0.085   5.512  16.664  0.2530  0.1557  0.1820
 9612TIP3    H150327   0.086   5.542  16.573 -0.8333  1.8808  0.6804
 9612TIP3    H250328   0.064   5.419  16.658 -0.0110  0.2859 -1.3260
 9613TIP3   OH250329   4.152   5.876  14.529 -0.1729 -0.5156 -0.1989
 9613TIP3    H150330   4.113   5.947  14.477  1.8778  0.3329 -0.6994
 9613TIP3    H250331   4.246   5.893  14.525  0.1301 -0.7598  3.3681
 9614TIP3   OH250332   0.893   1.582   5.387 -0.6783 -0.4161  0.3957
 9614TIP3    H150333   0.970   1.555   5.338 -0.6329 -0.8714  0.7102
 9614TIP3    H250334   0.915   1.668   5.422 -0.5831 -0.2367 -0.0930
 9615TIP3   OH250335   3.591   5.995   9.948  0.4191  0.3059 -0.0537
 9615TIP3    H150336   3.512   5.941   9.950  1.5538 -1.4460 -0.0235
 9615TIP3    H250337   3.571   6.065   9.886 -0.0950 -1.8987 -2.5436
 9616TIP3   OH250338   0.714   5.310   1.490  0.2131 -0.0111 -0.2555
 9616TIP3    H150339   0.695   5.233   1.437 -2.7273  1.7141 -1.9956
 9616TIP3    H250340   0.663   5.297   1.570  1.0477 -0.5630  0.2050
 9617TIP3   OH250341   2.619   1.211   1.975 -0.6801 -0.2793  0.3496
 9617TIP3    H150342   2.524   1.199   1.970 -0.7975 -0.3108  2.1182
 9617TIP3    H250343   2.637   1.227   2.068  0.8414  1.5196 -0.1828
 9618TIP3   OH250344   5.258   2.020  16.611 -0.1712 -0.4379 -0.5883
 9618TIP3    H150345   5.351   2.023  16.633 -0.1512 -1.9030 -0.3995
 9618TIP3    H250346   5.248   1.942  16.557 -1.3571 -0.4929 -0.3191
 9619TIP3   OH250347   6.365   5.204  15.851 -0.4737  0.5534 -0.4793
 9619TIP3    H150348   6.333   5.126  15.895  0.3701  1.2207  1.4299
 9619TIP3    H250349   6.401   5.172  15.768  1.3976 -1.3828  0.9586
 9620TIP3   OH250350   3.515   1.114   2.924 -0.7592  0.3425  0.1163
 9620TIP3    H150351   3.532   1.198   2.967 -0.7377  0.4846 -0.1680
 9620TIP3    H250352   3.577   1.112   2.851 -0.5298 -0.0676  0.3183
 9621TIP3   OH250353   2.293   4.935  14.716  0.2529 -0.1903 -0.0646
 9621TIP3    H150354   2.246   5.012  14.685  1.1451  0.3329 -0.1567
 9621TIP3    H250355   2.264   4.923  14.806  0.0926  0.2462 -0.0585
 9622TIP3   OH250356   3.365   4.146  10.975  0.1051  0.3989 -0.4883
 9622TIP3    H150357   3.288   4.156  10.918  1.1694 -0.1912 -2.1153
 9622TIP3    H250358   3.392   4.055  10.963  0.6852  0.4228  0.5667
 9623TIP3   OH250359   5.274   0.843  11.436 -0.2493  0.1183 -0.5660
 9623TIP3    H150360   5.367   0.864  11.429  0.2654 -1.6355  0.2802
 9623TIP3    H250361   5.233   0.888  11.363  1.1697  1.3963 -0.6196
 9624TIP3   OH250362   1.984   0.068   5.572  0.4859  0.0024 -0.2886
 9624TIP3    H150363   1.936   0.085   5.491 -1.0383  1.3019  0.8132
 9624TIP3    H250364   2.054   0.133   5.573  2.5407 -2.0537 -2.0187
 9625TIP3   OH250365   6.773   1.670   0.891 -0.1631 -0.0493  0.2241
 9625TIP3    H150366   6.785   1.626   0.807  0.2052  1.5302 -0.5936
 9625TIP3    H250367   6.753   1.600   0.952  0.3315 -1.3284 -1.0237
 9626TIP3   OH250368   1.691   5.435  12.594  0.4174 -0.4033 -0.3129
 9626TIP3    H150369   1.611   5.383  12.582  0.0606 -0.2917  1.3094
 9626TIP3    H250370   1.754   5.374  12.631  0.9704 -0.3892 -1.2061
 9627TIP3   OH250371   2.172   0.615   2.725  0.0405  0.0694  0.2041
 9627TIP3    H150372   2.091   0.657   2.753 -0.5748 -0.7531 -0.2743
 9627TIP3    H250373   2.194   0.555   2.796  0.7892  0.9928  0.7800
 9628TIP3   OH250374   0.509   3.863  15.748 -0.6784 -0.1308  0.6616
 9628TIP3    H150375   0.462   3.945  15.732 -4.0615 -1.7793  1.2825
 9628TIP3    H250376   0.520   3.860  15.843  1.6195  0.6021  0.4811
 9629TIP3   OH250377   3.573   2.531  12.857 -0.3674  0.2390 -0.0488
 9629TIP3    H150378   3.569   2.435  12.851 -0.3446  0.2810 -0.8492
 9629TIP3    H250379   3.633   2.548  12.930  1.8467 -0.3656 -1.6050
 9630TIP3   OH250380   2.112   0.617  10.826  0.0812 -0.4472  0.3499
 9630TIP3    H150381   2.171   0.550  10.792 -0.5379 -0.3856 -0.8840
 9630TIP3    H250382   2.104   0.681  10.755  0.1054  0.5928  1.2440
 9631TIP3   OH250383   5.487   1.731  16.830  0.3711  0.5643 -0.1113
 9631TIP3    H150384   5.482   1.696  16.741 -0.2435  0.6156 -0.0988
 9631TIP3    H250385   5.432   1.673  16.882 -0.2625  1.2463  0.0051
 9632TIP3   OH250386   3.712   6.749   4.736  0.2042  0.2599 -0.2747
 9632TIP3    H150387   3.617   6.759   4.737  0.2311  0.5215  0.4075
 9632TIP3    H250388   3.733   6.706   4.819  0.5252 -1.4952 -1.2034
 9633TIP3   OH250389   5.727   4.308  13.038 -1.0101  0.1824  0.5013
 9633TIP3    H150390   5.702   4.227  13.083 -3.6021  0.7890  0.3329
 9633TIP3    H250391   5.783   4.279  12.965 -0.7180 -1.2835  1.2628
 9634TIP3   OH250392   3.009   1.074  11.112 -0.7057 -0.2823  0.6473
 9634TIP3    H150393   2.987   1.031  11.030 -1.9992  1.2908  0.1041
 9634TIP3    H250394   3.096   1.112  11.097 -0.2265 -1.3775  0.6054
 9635TIP3   OH250395   3.247   6.762  15.321 -0.1230  0.3899  0.0691
 9635TIP3    H150396   3.225   6.671  15.342 -2.0526  0.4461 -1.3637
 9635TIP3    H250397   3.168   6.811  15.345  0.3039  1.4494 -0.6346
 9636TIP3   OH250398   4.861   0.705   0.755  0.5639 -0.0398 -0.1152
 9636TIP3    H150399   4.825   0.713   0.843 -0.3626 -0.2954 -0.4589
 9636TIP3    H250400   4.919   0.781   0.746  0.3906  0.1841  0.5804
 9637TIP3   OH250401   5.426   0.916  12.213  0.5448  0.1416  0.2296
 9637TIP3    H150402   5.342   0.933  12.171  0.9025  1.0373 -0.1476
 9637TIP3    H250403   5.446   0.825  12.191  0.9883  0.7448 -2.0417
 9638TIP3   OH250404   3.582   6.790   5.353  0.1364 -0.0946 -0.3283
 9638TIP3    H150405   3.599   6.880   5.326  0.3095  0.0909  0.3666
 9638TIP3    H250406   3.649   6.739   5.308  0.4027  0.2024 -0.2766
 9639TIP3   OH250407   2.143   0.267   4.043 -0.5190  0.4510 -0.3066
 9639TIP3    H150408   2.052   0.241   4.062  0.3440 -1.1734  2.1478
 9639TIP3    H250409   2.139   0.362   4.033 -2.4092  0.5038  0.4442
 9640TIP3   OH250410   6.359   1.994  15.276  0.0434 -0.0169  0.1339
 9640TIP3    H150411   6.323   2.061  15.335 -1.2840 -0.3448 -0.2686
 9640TIP3    H250412   6.343   2.028  15.188 -2.1887 -1.5156 -0.1530
 9641TIP3   OH250413   5.688   2.613  11.050 -0.0308 -0.4460  0.1303
 9641TIP3    H150414   5.751   2.682  11.067 -0.1520 -0.7899  2.3930
 9641TIP3    H250415   5.603   2.657  11.050 -0.3548 -0.6946  3.8902
 9642TIP3   OH250416   2.356   0.217  16.464 -0.5051  0.3442  0.0228
 9642TIP3    H150417   2.442   0.207  16.506 -0.2040  0.7802 -0.4588
 9642TIP3    H250418   2.293   0.212  16.536 -0.2108 -1.6778  0.1915
 9643TIP3   OH250419   1.040   4.957   0.495  0.0145 -0.5568 -0.0489
 9643TIP3    H150420   0.989   4.903   0.434 -0.4266 -1.0650  0.7512
 9643TIP3    H250421   1.130   4.951   0.463 -0.4176  0.5020 -1.5987
 9644TIP3   OH250422   5.201   2.116  12.992  0.3206  0.0309  0.2332
 9644TIP3    H150423   5.269   2.058  13.026  0.0188 -0.0842  0.6400
 9644TIP3    H250424   5.215   2.116  12.897  0.4407 -0.5653  0.2467
 9645TIP3   OH250425   3.979   4.695   5.052 -0.0298  0.3036 -0.0887
 9645TIP3    H150426   3.968   4.730   4.963  3.4824  2.6967  0.2202
 9645TIP3    H250427   4.050   4.632   5.044 -0.1653  0.0126  0.9347
 9646TIP3   OH250428   5.833   6.152  10.057  0.4434 -0.4353  0.3789
 9646TIP3    H150429   5.925   6.138  10.035  0.8883  2.5201 -0.0452
 9646TIP3    H250430   5.785   6.098   9.995  1.8576 -0.8252 -0.4209
 9647TIP3   OH250431   1.165   1.095  16.102 -0.4567 -0.2646  0.7278
 9647TIP3    H150432   1.188   1.187  16.113 -1.0028  0.1576 -1.2341
 9647TIP3    H250433   1.245   1.048  16.126  1.5705  0.9909 -2.7903
 9648TIP3   OH250434   6.167   2.104   1.718  0.8336 -0.3711  0.6367
 9648TIP3    H150435   6.254   2.142   1.710  1.6063 -2.3329 -1.9741
 9648TIP3    H250436   6.116   2.147   1.650  0.6862 -1.3571  0.1027
 9649TIP3   OH250437   5.076   6.219  13.541  0.7927 -0.4500  0.1004
 9649TIP3    H150438   5.167   6.234  13.567  0.2565  1.0570  1.2341
 9649TIP3    H250439   5.043   6.306  13.519 -0.7241 -0.7996  0.8774
 9650TIP3   OH250440   1.654   2.297   0.547  0.6071 -0.3761  0.0701
 9650TIP3    H150441   1.666   2.310   0.641 -0.5061 -0.0906  0.1901
 9650TIP3    H250442   1.655   2.385   0.510 -2.4613 -0.1479  0.3022
 9651TIP3   OH250443   4.661   5.510  16.409  0.0207  1.0128  0.3939
 9651TIP3    H150444   4.613   5.559  16.475 -1.3484  0.6996 -0.3323
 9651TIP3    H250445   4.611   5.429  16.398 -0.0563  1.2624 -1.3541
 9652TIP3   OH250446   2.487   1.742   5.214  0.3881 -0.3327 -0.6912
 9652TIP3    H150447   2.532   1.727   5.130  2.0313  3.3465 -0.6779
 9652TIP3    H250448   2.554   1.727   5.280  0.7555  1.9095 -0.4633
 9653TIP3   OH250449   1.787   1.246   4.582 -0.5025 -0.5092 -0.0879
 9653TIP3    H150450   1.823   1.335   4.575  1.2956 -1.2746 -1.4726
 9653TIP3    H250451   1.783   1.228   4.676 -1.4908  1.2437  0.2374
 9654TIP3   OH250452   4.795   2.138  13.458  0.3124 -0.4332 -0.1381
 9654TIP3    H150453   4.839   2.110  13.378  0.6618 -1.5172  0.4186
 9654TIP3    H250454   4.797   2.234  13.454  0.7390 -0.4733 -1.1910
 9655TIP3   OH250455   0.901   3.274  11.343  0.4365  0.1386 -0.1257
 9655TIP3    H150456   0.857   3.219  11.279 -0.2181  0.8224 -0.2932
 9655TIP3    H250457   0.991   3.242  11.346  0.2929 -0.3590 -0.8548
 9656TIP3   OH250458   3.727   2.242   4.251 -0.1218 -0.5203 -0.2216
 9656TIP3    H150459   3.736   2.173   4.186  1.1177 -0.3902 -0.2063
 9656TIP3    H250460   3.647   2.219   4.300 -1.7122 -0.0357 -2.4393
 9657TIP3   OH250461   5.037   5.447   3.637 -0.3259 -0.5752  0.3721
 9657TIP3    H150462   4.973   5.379   3.658  0.5663 -1.0006  1.7716
 9657TIP3    H250463   5.033   5.454   3.542 -1.0775 -1.9460  0.2740
 9658TIP3   OH250464   1.721   2.016   4.306 -0.4151 -0.0993 -0.3488
 9658TIP3    H150465   1.684   1.964   4.378 -0.2975 -1.9105 -1.5251
 9658TIP3    H250466   1.650   2.019   4.241 -0.0952  0.4463 -0.6711
 9659TIP3   OH250467   2.145   3.468  14.582  0.1209  0.1442  0.8533
 9659TIP3    H150468   2.099   3.453  14.500 -1.8799  1.4972  1.6363
 9659TIP3    H250469   2.171   3.560  14.579  0.9889 -0.0691  1.3067
 9660TIP3   OH250470   1.180   5.299   1.821  0.2035  0.2952  0.9208
 9660TIP3    H150471   1.099   5.331   1.860  0.1944  0.4369  0.7865
 9660TIP3    H250472   1.167   5.309   1.726  0.4493  0.4949  0.9072
 9661TIP3   OH250473   2.617   1.600   4.983  0.0097  0.1190  0.5488
 9661TIP3    H150474   2.711   1.587   4.988 -0.0024  0.1470  0.8321
 9661TIP3    H250475   2.583   1.517   4.948  0.1048 -0.0108  0.7639
 9662TIP3   OH250476   1.414   0.675  10.960 -0.4273 -0.0404  0.3775
 9662TIP3    H150477   1.498   0.718  10.980  0.2414 -0.3168 -1.6765
 9662TIP3    H250478   1.418   0.656  10.867 -1.8365 -2.1781  0.6888
 9663TIP3   OH250479   4.903   2.463   1.463  0.0619  0.0111 -0.2793
 9663TIP3    H150480   4.878   2.554   1.479 -0.9492 -0.4500  0.9155
 9663TIP3    H250481   4.831   2.411   1.499 -0.1177 -1.2500 -2.2806
 9664TIP3   OH250482   6.133   4.726   1.555 -0.1533  0.2844 -0.5291
 9664TIP3    H150483   6.226   4.734   1.577  0.1297 -1.3142 -1.0125
 9664TIP3    H250484   6.119   4.793   1.488  0.2703  1.5471  0.6049
 9665TIP3   OH250485   0.616   0.029   1.312 -0.6144  0.1867  0.0125
 9665TIP3    H150486   0.669   0.059   1.238 -0.3881  0.1655  0.1672
 9665TIP3    H250487   0.679   0.012   1.382 -0.6537 -1.2571 -0.2723
 9666TIP3   OH250488   3.973   2.131   5.672  0.1913 -0.6779 -0.2269
 9666TIP3    H150489   3.901   2.185   5.638  0.6776  0.2114  0.1061
 9666TIP3    H250490   3.930   2.062   5.722 -0.5107 -1.5698 -1.9740
 9667TIP3   OH250491   0.542   3.958   2.362 -0.4006 -0.1452 -0.0134
 9667TIP3    H150492   0.600   3.886   2.338  1.1386  0.5953  1.3288
 9667TIP3    H250493   0.594   4.012   2.421 -1.0731  2.7156 -1.8380
 9668TIP3   OH250494   4.665   2.505  14.330 -0.0498  0.0052  0.2404
 9668TIP3    H150495   4.687   2.521  14.422  1.3267 -0.4978  0.0208
 9668TIP3    H250496   4.743   2.534  14.282 -0.2146 -0.9893 -0.6572
 9669TIP3   OH250497   5.794   4.080   4.270 -0.5553  0.4365 -0.2586
 9669TIP3    H150498   5.889   4.068   4.279 -0.3226  1.9692 -0.3920
 9669TIP3    H250499   5.756   4.010   4.323  0.6498 -0.1456 -0.1197
 9670TIP3   OH250500   6.765   2.443   2.008  0.1444  0.0252  0.7050
 9670TIP3    H150501   6.769   2.369   2.069 -0.2116 -1.6248 -1.1694
 9670TIP3    H250502   6.671   2.459   1.998  0.1955  0.1767  0.4816
 9671TIP3   OH250503   0.431   6.360  16.811  0.4555 -0.3668 -0.4773
 9671TIP3    H150504   0.436   6.273  16.851  1.1420 -0.4143 -0.6523
 9671TIP3    H250505   0.451   6.346  16.719 -0.7369 -0.1976 -0.7761
 9672TIP3   OH250506   5.454   6.041  14.592  0.5376  0.1208  0.1013
 9672TIP3    H150507   5.462   5.988  14.672  1.5916  1.1388  0.6975
 9672TIP3    H250508   5.380   6.100  14.609  1.6758  1.3465  0.9562
 9673TIP3   OH250509   3.975   3.182   3.593 -0.1875  0.2367  0.5790
 9673TIP3    H150510   4.034   3.168   3.520 -0.9972  1.8008 -0.4330
 9673TIP3    H250511   4.009   3.260   3.637 -0.7665  0.3922  0.7569
 9674TIP3   OH250512   2.559   0.260   1.280  0.1802 -0.0978 -0.1506
 9674TIP3    H150513   2.616   0.257   1.357  1.8792  0.9796 -1.3012
 9674TIP3    H250514   2.608   0.216   1.211 -0.3478  0.8911 -1.1993
 9675TIP3   OH250515   2.092   6.825  15.941  0.1133  0.0059 -0.2396
 9675TIP3    H150516   2.036   6.748  15.930  1.9430 -1.2503 -1.5032
 9675TIP3    H250517   2.084   6.872  15.858  0.5195  0.0763 -0.2421
 9676TIP3   OH250518   0.975   6.518   4.608  0.0680 -0.1644 -0.0682
 9676TIP3    H150519   1.018   6.434   4.624  0.8214  0.2580  0.1726
 9676TIP3    H250520   1.046   6.582   4.608 -0.3208  0.3226 -1.5458
 9677TIP3   OH250521   4.629   4.291   2.192 -0.3329 -0.2574  0.4277
 9677TIP3    H150522   4.719   4.309   2.165 -0.8740 -1.3278 -2.4411
 9677TIP3    H250523   4.629   4.197   2.210 -0.6320 -0.0420  1.6103
 9678TIP3   OH250524   2.333   3.336  12.944  0.2866  0.5642  0.3472
 9678TIP3    H150525   2.282   3.259  12.917 -0.5091  1.3568 -0.4586
 9678TIP3    H250526   2.409   3.299  12.990 -0.4113 -0.6805  0.5503
 9679TIP3   OH250527   0.392   4.719   0.153  0.3370  0.3541  0.0133
 9679TIP3    H150528   0.420   4.775   0.226 -0.9093 -1.1619  1.7582
 9679TIP3    H250529   0.297   4.732   0.148  0.3079 -0.1578 -0.8208
 9680TIP3   OH250530   4.126   3.156   3.906  0.0636 -0.2838 -0.0595
 9680TIP3    H150531   4.184   3.108   3.847  1.6558  0.7654  0.5749
 9680TIP3    H250532   4.054   3.186   3.851 -0.1751 -2.0623 -0.7686
 9681TIP3   OH250533   1.460   1.489   4.126 -0.6712  0.2803 -0.1618
 9681TIP3    H150534   1.404   1.415   4.148 -0.7971  1.1285  2.8319
 9681TIP3    H250535   1.548   1.451   4.120 -1.1282 -0.6158 -2.3022
 9682TIP3   OH250536   3.523   4.499   4.167  0.2755  0.2971 -0.7035
 9682TIP3    H150537   3.550   4.590   4.155 -0.3419  0.5865  0.0282
 9682TIP3    H250538   3.603   4.448   4.154  0.8571  1.0228 -0.0487
 9683TIP3   OH250539   3.384   6.287  12.725  0.2263 -0.1174 -0.3309
 9683TIP3    H150540   3.478   6.278  12.739  0.1150 -0.8841  0.0272
 9683TIP3    H250541   3.347   6.205  12.758 -0.5454  0.0716 -0.6859
 9684TIP3   OH250542   2.481   4.730  10.729 -0.2673  0.1300  0.1461
 9684TIP3    H150543   2.493   4.723  10.634 -0.6608 -0.8713  0.1485
 9684TIP3    H250544   2.569   4.726  10.764 -0.1921 -0.9890 -0.1214
 9685TIP3   OH250545   5.187   2.813   4.731  0.3073  0.4650  0.1682
 9685TIP3    H150546   5.269   2.863   4.729  0.5619  0.0369 -0.1365
 9685TIP3    H250547   5.169   2.801   4.825  1.5818 -1.0290  0.2666
 9686TIP3   OH250548   6.189   1.578  13.388 -0.1827  0.4663 -0.1063
 9686TIP3    H150549   6.106   1.604  13.349 -0.5536 -2.7891 -1.8398
 9686TIP3    H250550   6.166   1.539  13.472 -0.1942  0.9719  0.1309
 9687TIP3   OH250551   1.645   2.537   1.155  0.2454  0.1249  0.2536
 9687TIP3    H150552   1.701   2.546   1.078  1.3576 -1.1867  0.8802
 9687TIP3    H250553   1.556   2.531   1.119  0.6608  0.3858 -0.8669
 9688TIP3   OH250554   0.759   3.360   3.973  0.6431  0.0714  0.0821
 9688TIP3    H150555   0.821   3.321   4.035  0.1038  1.1217  1.3455
 9688TIP3    H250556   0.777   3.454   3.977 -0.1412  0.2541 -0.5346
 9689TIP3   OH250557   0.050   6.426  16.088 -0.2902  0.5335 -0.2185
 9689TIP3    H150558  -0.043   6.403  16.080  0.5325 -2.7462 -1.6229
 9689TIP3    H250559   0.067   6.423  16.182 -0.8317 -2.8856 -0.1059
 9690TIP3   OH250560   0.157   0.209  13.277  1.0557  0.2909 -0.2307
 9690TIP3    H150561   0.081   0.240  13.326  1.6360  0.9421  0.2791
 9690TIP3    H250562   0.123   0.138  13.223  0.6461 -1.3511  2.0355
 9691TIP3   OH250563   5.782   0.935   3.564 -0.0744  0.1895  0.3211
 9691TIP3    H150564   5.758   1.023   3.538 -0.9941 -0.4888 -1.2909
 9691TIP3    H250565   5.837   0.902   3.492  3.0698  0.5052  2.3543
 9692TIP3   OH250566   4.831   3.000  11.774 -0.2401 -0.2856 -0.1617
 9692TIP3    H150567   4.849   3.084  11.816 -0.8860 -0.2213 -0.0028
 9692TIP3    H250568   4.891   2.997  11.700  0.5410 -0.1701  0.4584
 9693TIP3   OH250569   1.608   3.076  12.812 -0.0719 -0.0747 -0.6007
 9693TIP3    H150570   1.583   3.046  12.899 -0.4206 -2.5410 -1.4722
 9693TIP3    H250571   1.693   3.118  12.825 -0.8909  1.1661  1.1489
 9694TIP3   OH250572   3.602   0.008  15.728  0.2199  0.0770  0.0798
 9694TIP3    H150573   3.574   0.098  15.711  0.6028  0.1757 -0.0342
 9694TIP3    H250574   3.698   0.014  15.735  0.1619 -0.1248  1.2369
 9695TIP3   OH250575   2.868   5.988   5.515  0.1410  0.5463 -0.1826
 9695TIP3    H150576   2.943   6.006   5.458  0.0944  0.0255 -0.4187
 9695TIP3    H250577   2.904   5.935   5.586  0.0084  0.3244 -0.2786
 9696TIP3   OH250578   4.461   6.594  10.514  0.3589  0.0524  0.5179
 9696TIP3    H150579   4.472   6.666  10.576 -0.2087  0.6488 -0.0502
 9696TIP3    H250580   4.539   6.598  10.459  0.9298 -0.5641  1.2695
 9697TIP3   OH250581   2.001   2.515  15.563  0.5410  0.2275  0.2459
 9697TIP3    H150582   1.939   2.518  15.636 -0.2008  0.1447 -0.3683
 9697TIP3    H250583   1.946   2.510  15.485  1.3233  0.2974 -0.3225
 9698TIP3   OH250584   6.156   5.209   0.924 -0.1759  0.3864 -0.2068
 9698TIP3    H150585   6.219   5.137   0.914 -1.8326 -1.2489  0.4320
 9698TIP3    H250586   6.077   5.166   0.956 -0.6163  2.7943  2.3185
 9699TIP3   OH250587   1.759   0.801  16.777  0.0862  0.0407 -0.4771
 9699TIP3    H150588   1.828   0.868  16.778  1.0262 -0.9052 -0.6004
 9699TIP3    H250589   1.805   0.719  16.758 -1.0378 -0.6572 -0.2762
 9700TIP3   OH250590   0.704   5.753   2.448 -0.1081  0.0007 -0.3062
 9700TIP3    H150591   0.640   5.688   2.477 -0.1952 -0.7434 -2.0571
 9700TIP3    H250592   0.668   5.836   2.478 -0.4238 -0.6537  1.2226
 9701TIP3   OH250593   6.523   5.317   0.201  0.2427  0.3192 -0.4381
 9701TIP3    H150594   6.508   5.271   0.119  0.1474  0.4069 -0.4697
 9701TIP3    H250595   6.482   5.262   0.268  0.7291  0.0083 -0.3893
 9702TIP3   OH250596   6.445   2.125  15.884 -0.1814 -0.5085 -0.6016
 9702TIP3    H150597   6.384   2.093  15.951  0.7096 -0.7177  0.1300
 9702TIP3    H250598   6.450   2.219  15.900 -0.4960 -0.4499 -0.8286
 9703TIP3   OH250599   5.261   5.889   3.394 -0.0028 -0.0022  0.5316
 9703TIP3    H150600   5.225   5.892   3.484  1.9367 -0.6575  1.3737
 9703TIP3    H250601   5.260   5.796   3.372 -1.3505  0.2340 -0.5546
 9704TIP3   OH250602   1.226   5.826   3.697 -0.1397 -0.1702  0.6683
 9704TIP3    H150603   1.233   5.731   3.706  0.2242 -0.0762  1.4290
 9704TIP3    H250604   1.152   5.851   3.752 -0.4568 -0.0462  0.1940
 9705TIP3   OH250605   0.510   6.378   1.391 -0.0208  0.6106  0.3763
 9705TIP3    H150606   0.560   6.432   1.329 -1.5124  2.4458  0.6799
 9705TIP3    H250607   0.576   6.324   1.433  1.2861  0.6649 -1.4490
 9706TIP3   OH250608   6.144   4.556   4.760 -0.0617 -0.0588  0.0780
 9706TIP3    H150609   6.099   4.531   4.841 -1.5422  2.0172 -0.0368
 9706TIP3    H250610   6.230   4.586   4.789 -0.1213 -0.4792  0.7215
 9707TIP3   OH250611   0.960   5.965   2.450  0.5384  0.1321  0.3249
 9707TIP3    H150612   0.913   6.038   2.490 -1.7820 -1.3264  0.4343
 9707TIP3    H250613   0.902   5.933   2.382  2.5949 -0.0974 -1.4228
 9708TIP3   OH250614   3.835   4.814  13.062 -0.3091 -0.0353 -0.4049
 9708TIP3    H150615   3.898   4.764  13.114 -0.3207  0.2808 -0.0776
 9708TIP3    H250616   3.751   4.799  13.104 -0.1926  0.8903  0.1863
 9709TIP3   OH250617   4.343   5.254  13.502  0.2512  0.0733 -0.0218
 9709TIP3    H150618   4.327   5.346  13.483  0.2201  0.5146  1.9405
 9709TIP3    H250619   4.363   5.215  13.416 -0.2584  1.7700 -0.9597
 9710TIP3   OH250620   4.163   1.619   3.202  0.0244 -0.0511 -0.1264
 9710TIP3    H150621   4.189   1.532   3.169  0.8942 -1.2087  3.1662
 9710TIP3    H250622   4.179   1.614   3.297 -0.8811  3.4052  0.3423
 9711TIP3   OH250623   5.290   5.228   5.300  0.0087  0.0484 -0.2695
 9711TIP3    H150624   5.237   5.252   5.376  0.0673  1.2316 -0.5778
 9711TIP3    H250625   5.381   5.242   5.329  0.0787 -0.3770 -0.2730
 9712TIP3   OH250626   5.098   1.775   0.587  0.6666  0.3220  0.1653
 9712TIP3    H150627   5.147   1.793   0.668 -0.4303 -1.8328  1.3872
 9712TIP3    H250628   5.155   1.715   0.538 -0.3256 -1.5732  1.2368
 9713TIP3   OH250629   1.900   0.635   1.614  0.0401 -0.6869 -0.0680
 9713TIP3    H150630   1.872   0.690   1.540  0.0283 -0.7839 -0.1370
 9713TIP3    H250631   1.834   0.651   1.682 -0.1576 -0.8739 -0.2117
 9714TIP3   OH250632   2.046   2.511   4.778  0.5546  0.0728 -0.0670
 9714TIP3    H150633   2.098   2.509   4.698  1.1109 -0.9658  0.3024
 9714TIP3    H250634   2.109   2.506   4.849  0.0122 -0.1878  0.4105
 9715TIP3   OH250635   0.881   4.424  15.337 -1.1359 -0.7981 -0.4326
 9715TIP3    H150636   0.934   4.362  15.288 -2.4543  0.0881 -3.2066
 9715TIP3    H250637   0.908   4.510  15.304 -2.0567 -0.1606  0.4142
 9716TIP3   OH250638   4.034   0.892  13.821 -0.1086  0.1141  0.1433
 9716TIP3    H150639   4.104   0.915  13.759 -1.4454  0.0275 -1.4846
 9716TIP3    H250640   4.061   0.808  13.858  0.9704  0.4074  0.0619
 9717TIP3   OH250641   6.417   5.692  13.878  0.0639 -0.9118 -0.3497
 9717TIP3    H150642   6.341   5.738  13.913 -0.2386 -0.9435 -0.9465
 9717TIP3    H250643   6.466   5.758  13.829  0.5407 -0.8416  0.2110
 9718TIP3   OH250644   4.883   2.446  16.217  0.1373 -0.0796 -0.3609
 9718TIP3    H150645   4.937   2.521  16.194 -0.5677  0.5489 -0.0047
 9718TIP3    H250646   4.893   2.437  16.312 -0.0368 -0.2217 -0.3542
 9719TIP3   OH250647   1.766   4.440  11.879  0.0969  0.1342  0.1743
 9719TIP3    H150648   1.713   4.371  11.839 -0.4525  0.4709  0.3113
 9719TIP3    H250649   1.842   4.394  11.915  1.5036 -0.0183 -2.6825
 9720TIP3   OH250650   3.782   3.873  11.071  0.3890  0.0532  0.1404
 9720TIP3    H150651   3.807   3.792  11.026 -0.7845  1.1480 -2.7241
 9720TIP3    H250652   3.726   3.843  11.143  1.3132 -1.7625  0.1704
 9721TIP3   OH250653   3.398   3.298  10.972  0.4206  0.2139 -0.2040
 9721TIP3    H150654   3.373   3.273  11.061 -1.6989 -0.0102 -0.7955
 9721TIP3    H250655   3.458   3.230  10.943  1.5571  0.5682  1.2071
 9722TIP3   OH250656   4.561   5.309   0.414  0.1176 -0.0278 -0.1578
 9722TIP3    H150657   4.526   5.315   0.503  0.2321 -1.6359  0.0288
 9722TIP3    H250658   4.649   5.272   0.425  0.2084 -0.0659 -0.9239
 9723TIP3   OH250659   6.104   3.074  11.473 -0.6350 -0.4603  0.0229
 9723TIP3    H150660   6.011   3.059  11.456 -0.0477 -3.1887 -1.2883
 9723TIP3    H250661   6.117   3.167  11.454 -3.5259  0.6993  2.7716
 9724TIP3   OH250662   0.953   1.956   3.246  0.0599  0.0317  0.0406
 9724TIP3    H150663   0.949   1.861   3.259 -1.5706  0.3710  2.5285
 9724TIP3    H250664   0.895   1.971   3.171 -0.9088 -0.8118  0.5883
 9725TIP3   OH250665   5.762   1.069  14.150  0.2730 -0.3664 -0.2173
 9725TIP3    H150666   5.747   0.997  14.089 -0.1880 -1.0406  0.6627
 9725TIP3    H250667   5.728   1.037  14.234  0.0720  0.8686  0.1966
 9726TIP3   OH250668   6.719   5.113   1.179  0.2984  0.2779 -0.2808
 9726TIP3    H150669   6.796   5.057   1.169  0.2213 -0.2522  1.5525
 9726TIP3    H250670   6.654   5.077   1.119  0.7774 -0.6138 -0.2745
 9727TIP3   OH250671   3.393   0.731  16.004  0.1251  0.1898  0.6750
 9727TIP3    H150672   3.392   0.826  16.018 -2.2931  0.6303 -1.7454
 9727TIP3    H250673   3.468   0.716  15.947 -0.7246  0.9932 -0.6889
 9728TIP3   OH250674   2.505   6.051  12.356 -0.2739  0.0922  0.1506
 9728TIP3    H150675   2.568   6.081  12.290  0.0747  3.1477  1.7092
 9728TIP3    H250676   2.423   6.093  12.332 -0.9606 -1.2735 -0.0176
 9729TIP3   OH250677   6.417   0.618   2.142  0.0236 -0.5598  0.8087
 9729TIP3    H150678   6.470   0.599   2.220  1.2039  1.8949  0.6773
 9729TIP3    H250679   6.456   0.564   2.073  2.8582  1.5460  0.5817
 9730TIP3   OH250680   4.772   2.859  15.527 -0.3351 -0.1821 -0.6309
 9730TIP3    H150681   4.774   2.830  15.618 -0.3881  0.4078 -0.4376
 9730TIP3    H250682   4.846   2.815  15.486 -0.7558 -1.0491 -0.4933
 9731TIP3   OH250683   4.554   4.027  13.121  0.8450 -0.5977  0.1236
 9731TIP3    H150684   4.520   3.991  13.039  0.7684 -3.5287  1.3370
 9731TIP3    H250685   4.495   4.100  13.141 -0.4031 -1.1474 -1.3813
 9732TIP3   OH250686   2.358   4.299   3.231 -0.1086 -0.0273  0.3812
 9732TIP3    H150687   2.266   4.296   3.203 -0.9551 -0.2744  2.9045
 9732TIP3    H250688   2.380   4.392   3.230  0.0280 -0.0578 -1.3786
 9733TIP3   OH250689   2.076   0.375  11.493  0.6091  0.1030 -0.4139
 9733TIP3    H150690   2.048   0.462  11.521 -1.9293 -0.1501 -1.8082
 9733TIP3    H250691   2.085   0.382  11.398 -1.3502 -1.4715 -0.7980
 9734TIP3   OH250692   4.215   1.697  11.300 -0.1985  0.4227  0.1060
 9734TIP3    H150693   4.187   1.699  11.208  1.5823  1.2357 -0.4722
 9734TIP3    H250694   4.310   1.694  11.295 -0.0892 -0.0135  1.9518
 9735TIP3   OH250695   1.531   3.958  10.554  0.3698  0.2000  0.5549
 9735TIP3    H150696   1.603   4.003  10.510  1.5967  0.7996  3.0303
 9735TIP3    H250697   1.522   3.875  10.507  0.1021  1.6549 -2.1605
 9736TIP3   OH250698   6.461   3.785  12.536 -0.3549  0.1102 -0.1027
 9736TIP3    H150699   6.408   3.755  12.609 -1.9566  2.0486 -0.4176
 9736TIP3    H250700   6.521   3.849  12.574 -0.0187 -0.1216 -0.2276
 9737TIP3   OH250701   1.883   0.457   2.993 -0.5638 -0.3461 -0.0773
 9737TIP3    H150702   1.866   0.411   3.075 -0.8781 -0.1136 -0.0100
 9737TIP3    H250703   1.876   0.390   2.926 -0.0096 -0.6003  0.1062
 9738TIP3   OH250704   4.169   2.567  13.856 -0.3480  0.2268 -0.4262
 9738TIP3    H150705   4.215   2.519  13.925 -0.9896 -1.5381 -1.1713
 9738TIP3    H250706   4.094   2.606  13.900 -0.7860 -0.9355 -0.1152
 9739TIP3   OH250707   5.124   0.877   2.900  0.3248 -0.4689  0.6579
 9739TIP3    H150708   5.117   0.961   2.946  2.0418 -1.0549  2.1109
 9739TIP3    H250709   5.161   0.900   2.815 -0.6692  0.3881  0.4374
 9740TIP3   OH250710   0.496   4.575  16.005  0.1639  0.6303 -0.2163
 9740TIP3    H150711   0.509   4.485  16.037 -1.4489  0.4832  0.0919
 9740TIP3    H250712   0.570   4.624  16.041  1.8427 -0.8139 -1.4977
 9741TIP3   OH250713   6.139   6.458   1.974 -0.8905  0.4920 -0.3913
 9741TIP3    H150714   6.130   6.535   2.030 -2.4583  0.1148 -0.0816
 9741TIP3    H250715   6.088   6.479   1.896 -0.0619  0.3567 -0.9890
 9742TIP3   OH250716   5.469   0.035   4.816 -0.0468 -0.5668  0.2641
 9742TIP3    H150717   5.420  -0.042   4.845 -1.0083  0.0064  0.2464
 9742TIP3    H250718   5.558   0.004   4.801 -0.7731 -2.0291 -1.3002
 9743TIP3   OH250719   0.516   5.509  10.800  0.3486  0.4100 -0.1271
 9743TIP3    H150720   0.597   5.491  10.752  0.8505  1.4237  0.3027
 9743TIP3    H250721   0.474   5.579  10.749  0.0716  0.3457  0.0128
 9744TIP3   OH250722   4.413   2.741  16.302  0.4348 -0.2450 -0.1152
 9744TIP3    H150723   4.464   2.813  16.338 -0.1552  0.2681 -0.2905
 9744TIP3    H250724   4.416   2.673  16.370  1.3416 -0.2260 -0.1265
 9745TIP3   OH250725   2.544   4.723  13.632 -0.4798  0.5887 -0.1703
 9745TIP3    H150726   2.616   4.729  13.695 -1.3314 -0.0539  0.8971
 9745TIP3    H250727   2.465   4.722  13.685 -1.3515  2.0603 -1.3545
 9746TIP3   OH250728   5.001   3.932   2.300 -0.4856 -0.3970  0.1835
 9746TIP3    H150729   4.980   4.008   2.354 -1.6153 -0.7966  0.3445
 9746TIP3    H250730   5.055   3.877   2.357  0.7457  0.4793 -0.0961
 9747TIP3   OH250731   2.534   0.550   3.708  0.7765  0.2329 -0.4864
 9747TIP3    H150732   2.592   0.478   3.730 -2.5797 -1.8141  3.0346
 9747TIP3    H250733   2.561   0.621   3.765  0.6306 -0.2613  0.2094
 9748TIP3   OH250734   1.593   5.102   5.838 -0.1265 -0.1992 -0.5648
 9748TIP3    H150735   1.555   5.181   5.877 -1.3050  0.0950 -2.1836
 9748TIP3    H250736   1.603   5.041   5.911 -2.2681  0.3071  0.2245
 9749TIP3   OH250737   6.238   2.126  12.938  0.3502 -0.1570 -0.1555
 9749TIP3    H150738   6.226   2.217  12.910 -0.9246 -0.4294 -0.5919
 9749TIP3    H250739   6.180   2.076  12.881 -1.2413 -0.9149  1.9680
 9750TIP3   OH250740   3.686   6.587  16.987 -0.1224  0.2366  0.5114
 9750TIP3    H150741   3.778   6.594  16.963 -0.1033  0.0082  0.5226
 9750TIP3    H250742   3.645   6.662  16.943 -0.4377 -1.2416 -1.9180
 9751TIP3   OH250743   0.706   5.904  13.562 -0.2551 -0.6339  0.0203
 9751TIP3    H150744   0.631   5.923  13.618  0.0332 -0.4353  0.3408
 9751TIP3    H250745   0.697   5.966  13.488  0.5961  0.7075  0.9860
 9752TIP3   OH250746   4.792   1.884  15.674 -0.3085  0.2060 -0.1223
 9752TIP3    H150747   4.836   1.946  15.615  1.4046 -1.5311 -0.7601
 9752TIP3    H250748   4.848   1.881  15.752  0.0882 -1.0925 -0.4271
 9753TIP3   OH250749   5.433   0.743   2.132  0.0944  0.3480  0.5101
 9753TIP3    H150750   5.510   0.736   2.075 -1.0473 -1.7486 -0.8902
 9753TIP3    H250751   5.470   0.750   2.220  1.9513 -2.0815  0.0280
 9754TIP3   OH250752   6.120   4.289  16.978 -0.7496 -0.4485 -0.0908
 9754TIP3    H150753   6.136   4.195  16.981  2.2219 -0.0280  0.0391
 9754TIP3    H250754   6.202   4.327  16.945 -2.4592  1.9859 -1.9522
 9755TIP3   OH250755   1.904   0.783   3.933 -0.5923  0.0929 -0.4508
 9755TIP3    H150756   1.914   0.771   4.028  0.8070  0.4380 -0.5384
 9755TIP3    H250757   1.815   0.753   3.915 -0.9280  0.1177  0.9890
 9756TIP3   OH250758   6.445   1.883  13.888  0.4142 -0.3839 -0.1688
 9756TIP3    H150759   6.379   1.936  13.842  1.1158  0.8374  0.1971
 9756TIP3    H250760   6.425   1.793  13.862  0.9379  0.2525 -3.1190
 9757TIP3   OH250761   5.199   3.956  12.804  0.1938 -0.3337  0.0167
 9757TIP3    H150762   5.239   3.906  12.875  0.8517  0.3983  0.1784
 9757TIP3    H250763   5.150   3.891  12.754 -0.8490 -0.7748  1.5082
 9758TIP3   OH250764   1.145   6.089  12.764  0.3946 -0.3890  0.7939
 9758TIP3    H150765   1.146   6.100  12.668  1.2579 -1.1371  0.7095
 9758TIP3    H250766   1.077   6.150  12.793  0.6388  0.4135 -0.2285
 9759TIP3   OH250767   2.892   3.086   4.003 -0.2268  0.5610  0.0396
 9759TIP3    H150768   2.866   3.051   4.088 -2.6559  1.3503 -0.3131
 9759TIP3    H250769   2.876   3.180   4.009  2.6949  1.1862 -0.2566
 9760TIP3   OH250770   1.265   3.308  16.001  0.0644 -0.1825 -0.2600
 9760TIP3    H150771   1.318   3.372  15.955 -2.0978  0.3802 -2.1760
 9760TIP3    H250772   1.280   3.226  15.954 -2.1777  0.4013 -2.2038
 9761TIP3   OH250773   0.694   2.315   3.432 -0.4446  0.0259 -0.5410
 9761TIP3    H150774   0.701   2.334   3.339  0.2888 -1.1050 -0.7301
 9761TIP3    H250775   0.739   2.231   3.444 -1.8833 -0.6347  0.5750
 9762TIP3   OH250776   4.340   5.669  14.891  0.6602  0.0085  1.3410
 9762TIP3    H150777   4.265   5.614  14.912 -0.4439  1.2219  0.7110
 9762TIP3    H250778   4.415   5.609  14.892 -0.4965 -1.5045  0.6417
 9763TIP3   OH250779   3.223   0.770  15.742 -0.2611 -0.7746 -0.3114
 9763TIP3    H150780   3.247   0.686  15.702 -0.2986 -1.1586  0.4476
 9763TIP3    H250781   3.243   0.759  15.835  0.0879  0.1982 -0.2547
 9764TIP3   OH250782   5.050   5.976  13.743 -0.2093  0.7083  0.2829
 9764TIP3    H150783   5.142   5.989  13.765  0.1537 -0.8572 -0.2194
 9764TIP3    H250784   5.031   6.043  13.678  0.6048  0.9521  0.2829
 9765TIP3   OH250785   5.004   1.197   3.150 -0.2727  0.2964  0.0131
 9765TIP3    H150786   4.972   1.134   3.214 -0.5166  0.9060  0.5084
 9765TIP3    H250787   5.091   1.222   3.182  0.5574 -1.0529 -1.1118
 9766TIP3   OH250788   0.253   0.827   1.725  0.1423  0.4782  0.3047
 9766TIP3    H150789   0.301   0.874   1.658  1.0392  0.0579  0.6386
 9766TIP3    H250790   0.298   0.743   1.733 -1.8631 -0.7915 -0.8160
 9767TIP3   OH250791   6.092   6.290   4.235 -0.9106  0.1647 -0.0755
 9767TIP3    H150792   6.084   6.204   4.195  0.8881  0.5968 -1.4895
 9767TIP3    H250793   6.045   6.283   4.318 -4.2423 -0.9581 -1.9063
 9768TIP3   OH250794   1.194   2.965  11.446 -0.0131 -0.1727  0.1550
 9768TIP3    H150795   1.220   3.054  11.422  0.3022 -0.4621 -0.5915
 9768TIP3    H250796   1.173   2.923  11.363  0.3361 -0.9560  0.4560
 9769TIP3   OH250797   3.260   2.384  12.526 -0.5132  0.4854  0.3804
 9769TIP3    H150798   3.331   2.437  12.562  1.5583 -1.8943  0.0835
 9769TIP3    H250799   3.288   2.293  12.539 -3.0532 -0.5649 -0.6990
 9770TIP3   OH250800   1.284   2.320  13.616 -0.2672  0.0424  0.5728
 9770TIP3    H150801   1.244   2.407  13.619 -1.9562 -0.6693  0.0262
 9770TIP3    H250802   1.328   2.317  13.531 -1.4083 -0.1015 -0.0337
 9771TIP3   OH250803   0.209   1.820  14.840  0.6399 -0.4333  0.0383
 9771TIP3    H150804   0.119   1.851  14.850  1.2758  1.2210  1.0540
 9771TIP3    H250805   0.231   1.782  14.925  1.3176  0.3963  0.2511
 9772TIP3   OH250806   2.520   2.569   4.789 -0.1513  0.2869 -0.2751
 9772TIP3    H150807   2.588   2.608   4.734  0.6579 -0.5511  0.1044
 9772TIP3    H250808   2.450   2.634   4.790 -0.8246 -0.2750 -3.4284
 9773TIP3   OH250809   6.144   2.140   4.640 -0.3898 -0.0468  0.1852
 9773TIP3    H150810   6.068   2.084   4.658  0.7747 -1.5929  0.4677
 9773TIP3    H250811   6.140   2.155   4.545 -1.9721  1.3231  0.4225
 9774TIP3   OH250812   0.269   0.776  11.261 -0.2500  0.1318 -0.0743
 9774TIP3    H150813   0.175   0.795  11.252  0.1636  1.5563 -2.2474
 9774TIP3    H250814   0.307   0.858  11.292  0.3396 -0.3286  0.4476
 9775TIP3   OH250815   1.468   0.636  10.708  0.1906  0.3371 -0.0545
 9775TIP3    H150816   1.487   0.572  10.639  1.1416 -1.6435  1.9032
 9775TIP3    H250817   1.453   0.718  10.662 -0.3281 -1.1176 -2.6645
 9776TIP3   OH250818   3.215   5.088  11.915 -0.8196  0.2256  0.5595
 9776TIP3    H150819   3.201   5.165  11.859  1.1623  1.1987  1.2997
 9776TIP3    H250820   3.293   5.110  11.966  0.6302 -2.8400 -0.1523
 9777TIP3   OH250821   2.905   5.967  13.893  0.2197  0.1693  0.1453
 9777TIP3    H150822   2.850   5.917  13.952  1.0143 -0.3256  0.4799
 9777TIP3    H250823   2.978   5.909  13.873  1.0723  1.1230  0.4040
 9778TIP3   OH250824   4.417   6.677  16.615  0.8617  0.2452  0.3625
 9778TIP3    H150825   4.360   6.738  16.569  0.7631  0.4965  0.8121
 9778TIP3    H250826   4.381   6.591  16.595  1.5128  0.2613 -0.9760
 9779TIP3   OH250827   0.999   1.202   4.738 -0.2589 -0.0510  0.2473
 9779TIP3    H150828   0.948   1.183   4.817 -0.6546  0.8946  0.2360
 9779TIP3    H250829   1.089   1.211   4.770 -0.5827  1.5242  0.8149
 9780TIP3   OH250830   4.343   1.234   2.037  0.4891 -0.6951  0.5367
 9780TIP3    H150831   4.334   1.327   2.057  0.1078 -1.0243  1.9949
 9780TIP3    H250832   4.255   1.199   2.047  0.6283 -1.2147 -0.0191
 9781TIP3   OH250833   5.737   3.651   2.337 -1.0685  0.3485 -0.3220
 9781TIP3    H150834   5.665   3.689   2.387 -1.3549  0.3902 -0.7688
 9781TIP3    H250835   5.788   3.603   2.402 -1.9303 -0.3293 -0.1268
 9782TIP3   OH250836   2.165   3.262   2.057 -0.2538 -0.0003  0.0248
 9782TIP3    H150837   2.244   3.221   2.093 -0.3741  0.4311  0.7903
 9782TIP3    H250838   2.195   3.305   1.977  0.2626  0.0407  0.2352
 9783TIP3   OH250839   2.722   6.783  13.225  0.4639  0.5951  0.3761
 9783TIP3    H150840   2.645   6.735  13.254  0.6582  0.2294  0.2841
 9783TIP3    H250841   2.778   6.718  13.183  0.7180  0.9017  0.2286
 9784TIP3   OH250842   1.581   3.879  10.190  0.4728  0.0599 -0.0647
 9784TIP3    H150843   1.530   3.834  10.257  0.2597  1.1842  0.5516
 9784TIP3    H250844   1.552   3.841  10.108 -1.8901  1.1213  0.1946
 9785TIP3   OH250845   5.735   2.401  15.910  0.0505 -0.6851 -0.0503
 9785TIP3    H150846   5.664   2.459  15.883  1.5238  0.2368 -2.1481
 9785TIP3    H250847   5.772   2.443  15.988 -0.7298 -0.3950  0.1783
 9786TIP3   OH250848   1.555   2.388   2.847 -0.3008  0.3112  0.1251
 9786TIP3    H150849   1.600   2.308   2.819 -0.1081  0.0523  1.1368
 9786TIP3    H250850   1.462   2.363   2.849 -0.2906  0.2586 -0.0367
 9787TIP3   OH250851   3.986   6.105   1.876 -0.3267 -0.2364  0.4339
 9787TIP3    H150852   3.916   6.161   1.843 -2.0052 -2.1334  0.5993
 9787TIP3    H250853   3.955   6.075   1.962  1.2554 -0.1485  1.0679
 9788TIP3   OH250854   5.500   5.867   1.711 -0.2891  0.4366  0.2107
 9788TIP3    H150855   5.552   5.813   1.651  1.6932  2.0171  0.3836
 9788TIP3    H250856   5.547   5.861   1.795 -0.6724  1.5091  0.5200
 9789TIP3   OH250857   4.946   6.218   5.389 -0.1240 -0.8445 -0.1291
 9789TIP3    H150858   5.005   6.143   5.380  0.1409 -0.8200  1.1545
 9789TIP3    H250859   4.999   6.294   5.367  0.3771 -0.8179  1.0666
 9790TIP3   OH250860   4.603   3.722  12.851  0.1461  0.1985 -0.2446
 9790TIP3    H150861   4.525   3.698  12.801 -1.1667  0.7122  1.4654
 9790TIP3    H250862   4.652   3.640  12.860 -0.6923 -0.3390 -0.5319
 9791TIP3   OH250863   0.729   4.339  16.745  0.6672 -0.6445 -0.4016
 9791TIP3    H150864   0.731   4.334  16.649  0.0680  0.7318 -0.5096
 9791TIP3    H250865   0.819   4.318  16.771  1.3662  0.9136 -1.3987
 9792TIP3   OH250866   0.689   6.228  11.319  0.0213 -0.0782 -0.0461
 9792TIP3    H150867   0.721   6.209  11.231  0.6480 -0.9496  0.3496
 9792TIP3    H250868   0.755   6.284  11.358  0.6747 -1.1681  0.4716
 9793TIP3   OH250869   5.791   3.007  13.830 -0.1890 -0.1797 -0.4830
 9793TIP3    H150870   5.884   2.992  13.815  0.1964  1.0753  0.4213
 9793TIP3    H250871   5.750   2.999  13.744  0.3749 -2.9817 -0.5812
 9794TIP3   OH250872   0.954   4.332   4.968 -0.2188 -0.4846  0.1504
 9794TIP3    H150873   0.888   4.343   4.900 -1.7333 -0.0337  1.6336
 9794TIP3    H250874   0.923   4.385   5.042  2.1374  0.2840  0.6996
 9795TIP3   OH250875   5.188   1.938   1.243 -0.1707  0.2989  0.0709
 9795TIP3    H150876   5.181   2.022   1.287  1.2707  0.1596  0.6217
 9795TIP3    H250877   5.172   1.873   1.312  1.4323  0.0920  0.2787
 9796TIP3   OH250878   6.127   4.059  11.124  0.2463 -0.0973  0.1925
 9796TIP3    H150879   6.140   4.081  11.032  1.0804 -2.0057 -0.1873
 9796TIP3    H250880   6.215   4.060  11.161  0.0366 -0.4484  0.7056
 9797TIP3   OH250881   0.827   0.229   3.251 -0.3818 -0.0323 -0.1179
 9797TIP3    H150882   0.861   0.296   3.310 -0.1376  0.0009 -0.2930
 9797TIP3    H250883   0.785   0.166   3.308  1.0289 -0.6987  0.2319
 9798TIP3   OH250884   5.895   1.273   0.035 -0.5999 -0.2944  0.2983
 9798TIP3    H150885   5.904   1.189   0.081 -0.4137  0.5389  1.8685
 9798TIP3    H250886   5.984   1.293   0.005 -0.7409 -0.8952 -0.5728
 9799TIP3   OH250887   2.693   6.096  14.084  0.1438 -0.3278  0.4477
 9799TIP3    H150888   2.751   6.140  14.021 -0.1660  1.1475  1.1558
 9799TIP3    H250889   2.740   6.017  14.109  1.5987  0.5303  0.5514
 9800TIP3   OH250890   3.662   2.593   1.293  0.3441  0.3403 -0.2433
 9800TIP3    H150891   3.644   2.500   1.298  1.5048  0.1134 -0.0012
 9800TIP3    H250892   3.659   2.624   1.383 -0.8459  0.7185 -0.3922
 9801TIP3   OH250893   0.916   0.142   4.847  0.0912  0.1810  0.4960
 9801TIP3    H150894   0.899   0.061   4.895 -1.3911  1.1029  1.6007
 9801TIP3    H250895   1.011   0.152   4.851  0.3368 -1.5977  0.1214
 9802TIP3   OH250896   4.669   0.078  15.104  0.1623  0.2299  0.9745
 9802TIP3    H150897   4.593   0.127  15.072 -0.0309 -0.6374  0.0767
 9802TIP3    H250898   4.738   0.144  15.111  0.4544  0.3708 -2.0197
 9803TIP3   OH250899   6.525   3.521   6.123 -0.4521  0.9222 -0.1093
 9803TIP3    H150900   6.466   3.477   6.185  0.9030 -1.1375 -0.1765
 9803TIP3    H250901   6.560   3.595   6.173 -0.3466  0.0471  1.1723
 9804TIP3   OH250902   6.043   4.168   5.267 -0.1508  0.6800  0.2814
 9804TIP3    H150903   6.117   4.124   5.310  0.9219  0.7257 -1.4183
 9804TIP3    H250904   5.975   4.101   5.264  0.6020 -0.0982 -0.0888
 9805TIP3   OH250905   3.836   2.871  16.501  0.1693  0.1475 -0.7549
 9805TIP3    H150906   3.787   2.920  16.435 -0.5552  1.9816  1.0253
 9805TIP3    H250907   3.873   2.938  16.559  1.6049 -1.3400  0.1603
 9806TIP3   OH250908   5.890   6.047  14.143 -0.0564 -0.6217  0.4008
 9806TIP3    H150909   5.858   5.957  14.149  0.7270 -0.9699 -0.2836
 9806TIP3    H250910   5.843   6.084  14.068 -0.2539 -0.5158  0.5768
 9807TIP3   OH250911   3.904   4.527  13.459 -0.1027 -0.6408  0.6200
 9807TIP3    H150912   3.882   4.563  13.545  0.4456  0.2394  0.4072
 9807TIP3    H250913   3.987   4.483  13.471 -0.2105 -0.8413  0.6260
 9808TIP3   OH250914   6.285   5.859   1.398 -0.6271  0.3581 -0.2682
 9808TIP3    H150915   6.242   5.782   1.360 -0.2769  0.5506 -1.0823
 9808TIP3    H250916   6.338   5.894   1.326  1.3231 -0.1615  0.8371
 9809TIP3   OH250917   2.410   4.235   0.026  0.2736 -0.2273  0.4543
 9809TIP3    H150918   2.412   4.301   0.095  0.1838 -0.8267  1.0387
 9809TIP3    H250919   2.337   4.178   0.049  1.5934 -1.7149  1.0762
 9810TIP3   OH250920   4.890   4.520  13.189  0.4212 -0.4331  0.2617
 9810TIP3    H150921   4.848   4.435  13.180 -0.5924  0.0214  0.4886
 9810TIP3    H250922   4.819   4.580  13.212  0.4838  1.1250 -3.0287
 9811TIP3   OH250923   5.544   5.570  11.348  0.1622 -0.1049 -0.2324
 9811TIP3    H150924   5.591   5.527  11.277 -2.0313  1.1440 -2.5777
 9811TIP3    H250925   5.554   5.664  11.331  0.9517  0.3299  2.1312
 9812TIP3   OH250926   1.050   2.945   5.111  0.2458 -0.3022  0.4307
 9812TIP3    H150927   1.145   2.954   5.102 -0.0659  1.5926 -2.4540
 9812TIP3    H250928   1.021   2.910   5.027 -1.6663 -0.5169  1.1247
 9813TIP3   OH250929   1.246   5.856   4.128 -0.1158 -0.0629 -0.1423
 9813TIP3    H150930   1.178   5.790   4.145  0.3903 -0.1495  1.8170
 9813TIP3    H250931   1.224   5.928   4.187  1.9387 -0.4606  1.2068
 9814TIP3   OH250932   2.607   1.821  14.888 -0.1881 -0.3494 -0.1271
 9814TIP3    H150933   2.594   1.876  14.811  0.7506  0.3497  0.2062
 9814TIP3    H250934   2.662   1.873  14.946 -0.0780 -1.2604  0.6014
 9815TIP3   OH250935   2.072   0.272  13.472  0.3946  0.4628  0.3682
 9815TIP3    H150936   2.127   0.292  13.547  1.4792 -0.0769 -0.2410
 9815TIP3    H250937   2.057   0.356  13.430  1.2382  0.5700  0.2492
 9816TIP3   OH250938   3.562   1.214   2.484  0.7829  0.8977 -0.0529
 9816TIP3    H150939   3.644   1.189   2.442 -0.1370 -0.3005 -1.2253
 9816TIP3    H250940   3.494   1.168   2.434 -0.4526 -0.0174  2.2600
 9817TIP3   OH250941   0.885   0.089   1.241  0.4499  0.1040  0.1674
 9817TIP3    H150942   0.897   0.173   1.285  0.2821  0.5892 -0.6787
 9817TIP3    H250943   0.972   0.066   1.209  0.0508  1.4725 -2.1940
 9818TIP3   OH250944   5.754   5.979  16.961 -0.6271 -0.5758 -0.5635
 9818TIP3    H150945   5.759   6.042  16.889  1.0056 -1.5546 -1.3857
 9818TIP3    H250946   5.838   5.933  16.959 -0.3710 -0.4352  2.1996
 9819TIP3   OH250947   2.412   6.126  14.017 -0.1620 -0.0020  0.0448
 9819TIP3    H150948   2.505   6.106  14.007 -0.0146  0.6044  0.1797
 9819TIP3    H250949   2.410   6.209  14.065 -0.7570  0.5506 -0.9155
 9820TIP3   OH250950   6.088   3.985   3.063  0.3104  0.0585  0.1512
 9820TIP3    H150951   6.069   3.893   3.079  0.6413  0.4120  3.1791
 9820TIP3    H250952   6.006   4.021   3.029 -0.5914 -0.9031  1.2321
 9821TIP3   OH250953   4.359   5.311  15.966  0.4036  0.6230  0.7567
 9821TIP3    H150954   4.319   5.384  16.014  0.7946 -0.4373  2.8040
 9821TIP3    H250955   4.303   5.236  15.986 -0.2816  0.3831 -1.7135
 9822TIP3   OH250956   1.217   4.169   0.607  0.3188  0.3105 -0.5892
 9822TIP3    H150957   1.136   4.163   0.659 -0.0733 -0.5104 -1.2653
 9822TIP3    H250958   1.263   4.087   0.626  0.2502  0.0761 -1.4004
 9823TIP3   OH250959   0.414   5.961  15.582  0.0669 -0.0273 -0.5261
 9823TIP3    H150960   0.319   5.964  15.589  0.1417 -0.2800  0.9868
 9823TIP3    H250961   0.443   6.046  15.616  0.3778 -0.0159 -0.8236
 9824TIP3   OH250962   0.712   6.103  12.642  0.1215 -0.3723 -0.7204
 9824TIP3    H150963   0.638   6.065  12.594  0.1191 -2.0852  0.5541
 9824TIP3    H250964   0.757   6.027  12.680  1.0736  0.8173  0.6176
 9825TIP3   OH250965   5.760   1.513   2.022 -0.6129  0.0147 -0.0522
 9825TIP3    H150966   5.800   1.599   2.009 -0.4338  0.2143  1.6413
 9825TIP3    H250967   5.833   1.457   2.051 -1.1268 -0.1500  0.9587
 9826TIP3   OH250968   6.324   1.429  16.699 -0.4714 -0.1518  0.6040
 9826TIP3    H150969   6.277   1.512  16.711 -1.3235 -0.3397 -1.1282
 9826TIP3    H250970   6.416   1.454  16.691 -0.7341  0.6647 -0.0404
 9827TIP3   OH250971   2.648   4.302  14.600 -0.1593  0.1640 -0.6852
 9827TIP3    H150972   2.681   4.280  14.513  1.6504  2.1536 -0.5901
 9827TIP3    H250973   2.681   4.232  14.656  1.4546  0.5307 -1.1142
 9828TIP3   OH250974   2.657   5.482   1.702  0.8206  0.0745 -0.1587
 9828TIP3    H150975   2.585   5.459   1.644 -0.3729 -0.3272  1.3997
 9828TIP3    H250976   2.679   5.572   1.680 -1.2626  0.7686  0.3954
 9829TIP3   OH250977   5.543   3.177   5.616 -0.1278 -0.1307 -0.4322
 9829TIP3    H150978   5.565   3.134   5.698 -2.0935  0.3808  0.4319
 9829TIP3    H250979   5.469   3.127   5.582  0.6350 -0.3145 -1.9039
 9830TIP3   OH250980   0.653   2.982  11.713  0.4113 -0.0606 -0.0092
 9830TIP3    H150981   0.642   2.893  11.681  0.3464 -0.0999  0.1218
 9830TIP3    H250982   0.576   2.999  11.767  0.7623 -0.1792  0.5450
 9831TIP3   OH250983   2.873   1.822   2.973  0.4341  0.4918 -1.1365
 9831TIP3    H150984   2.820   1.791   2.900 -0.0480  2.0766 -1.4831
 9831TIP3    H250985   2.864   1.917   2.971 -2.3433  0.5543  3.0109
 9832TIP3   OH250986   5.870   0.802  14.607  0.2174 -0.2775 -0.0428
 9832TIP3    H150987   5.943   0.772  14.661 -0.3039 -0.3678  0.6322
 9832TIP3    H250988   5.832   0.875  14.656 -0.2496 -0.3409 -0.3008
 9833TIP3   OH250989   6.125   0.878  15.288  0.1253 -0.8318  0.3263
 9833TIP3    H150990   6.068   0.903  15.216  2.5985  2.4438 -0.7425
 9833TIP3    H250991   6.173   0.802  15.255 -0.1040 -0.5353 -0.7194
 9834TIP3   OH250992   5.591   6.343  14.016 -0.1821  0.4724 -0.3415
 9834TIP3    H150993   5.665   6.397  14.043  0.1646 -0.1161 -0.0935
 9834TIP3    H250994   5.551   6.315  14.098 -1.0132  1.2209 -0.4727
 9835TIP3   OH250995   4.166   4.657   3.213  0.2450  0.2605 -0.4251
 9835TIP3    H150996   4.140   4.669   3.304 -0.0456  0.1477 -0.4919
 9835TIP3    H250997   4.138   4.737   3.169 -1.7545 -0.6317 -0.8829
 9836TIP3   OH250998   0.936   0.724   5.014 -0.3366  0.3468 -0.0480
 9836TIP3    H150999   0.940   0.779   4.935  1.2809 -0.5561 -0.6434
 9836TIP3    H251000   0.925   0.635   4.980 -0.8843  0.0744  0.8151
 9837TIP3   OH251001   4.265   5.660  15.365 -0.2259 -0.2534 -0.0545
 9837TIP3    H151002   4.211   5.581  15.354 -0.4071 -0.1968  0.4092
 9837TIP3    H251003   4.345   5.628  15.406  0.7545 -0.5791 -2.1214
 9838TIP3   OH251004   4.894   1.050   3.755 -0.1746  0.3236 -0.0511
 9838TIP3    H151005   4.876   1.096   3.673  0.3754 -1.1016 -1.0042
 9838TIP3    H251006   4.987   1.065   3.771 -0.2815  0.6053  0.3328
 9839TIP3   OH251007   6.587   0.547  16.607  0.3717 -0.9262  0.3277
 9839TIP3    H151008   6.636   0.617  16.650 -0.3367  0.1650 -0.6171
 9839TIP3    H251009   6.599   0.472  16.666  0.9940  0.0094  1.4576
 9840TIP3   OH251010   0.081   5.603   4.818 -0.3309  0.2959 -0.5837
 9840TIP3    H151011   0.111   5.581   4.730  1.8091 -0.1734  0.2110
 9840TIP3    H251012   0.155   5.649   4.859  0.2381 -2.6939  2.1693
 9841TIP3   OH251013   5.105   6.215   5.022 -0.1054 -0.0873 -0.5753
 9841TIP3    H151014   5.109   6.127   4.984 -0.8700 -0.5867  0.4615
 9841TIP3    H251015   5.012   6.237   5.023 -0.0192  0.2648  0.2073
 9842TIP3   OH251016   2.224   6.413  13.213  0.0008 -0.2521  0.4405
 9842TIP3    H151017   2.236   6.328  13.170 -0.3070 -0.8052  1.4266
 9842TIP3    H251018   2.132   6.435  13.197  0.3682  0.4868 -0.8311
 9843TIP3   OH251019   1.175   5.792  14.766 -0.4178  0.2467  0.6923
 9843TIP3    H151020   1.247   5.832  14.716 -1.4683 -1.1793 -2.1531
 9843TIP3    H251021   1.159   5.854  14.837  0.2364  3.2200 -1.5529
 9844TIP3   OH251022   4.601   4.438   6.386 -0.6593 -0.3458  0.4254
 9844TIP3    H151023   4.514   4.451   6.348 -0.9595 -1.2329  0.7896
 9844TIP3    H251024   4.651   4.514   6.357 -1.1564 -0.4980 -0.9391
 9845TIP3   OH251025   4.202   6.754  14.598 -0.0756 -0.7642  0.1729
 9845TIP3    H151026   4.293   6.785  14.599  0.1435 -1.3539 -0.3792
 9845TIP3    H251027   4.164   6.791  14.519  0.0747 -1.5618 -0.2860
 9846TIP3   OH251028   4.606   0.943  15.925  0.2876 -0.0648 -0.1011
 9846TIP3    H151029   4.631   0.854  15.952 -0.4011  0.2834  1.8499
 9846TIP3    H251030   4.646   1.000  15.990 -0.9089  0.9058 -0.1836
 9847TIP3   OH251031   3.844   1.169  15.074 -0.3420 -0.0930 -0.1539
 9847TIP3    H151032   3.758   1.158  15.116  0.6681  0.8374  2.3395
 9847TIP3    H251033   3.880   1.081  15.070 -1.4773 -0.5388 -1.4924
 9848TIP3   OH251034   0.679   5.962  11.936  0.0575 -0.0582 -0.2232
 9848TIP3    H151035   0.663   5.966  11.841 -2.4190 -0.9187  0.0738
 9848TIP3    H251036   0.768   5.995  11.947  0.9090 -1.1735 -2.9674
 9849TIP3   OH251037   4.252   0.788  14.810  0.5785 -0.6286 -0.2780
 9849TIP3    H151038   4.319   0.723  14.790  0.7248 -1.0951  1.5446
 9849TIP3    H251039   4.170   0.748  14.781  0.8979 -0.7143 -1.0855
 9850TIP3   OH251040   0.022   1.535   0.651  0.2791  0.0112 -0.1331
 9850TIP3    H151041  -0.016   1.449   0.630  0.4934 -0.0500 -0.2720
 9850TIP3    H251042  -0.039   1.598   0.611 -0.4791 -0.0369  0.9244
 9851TIP3   OH251043   2.674   3.204   5.013  0.5490 -0.1598  0.3192
 9851TIP3    H151044   2.617   3.266   5.058  0.3875 -1.0572  1.4089
 9851TIP3    H251045   2.702   3.143   5.082 -0.0068 -1.8130 -0.8603
 9852TIP3   OH251046   0.162   0.223  11.559 -0.1013  0.1290 -0.4381
 9852TIP3    H151047   0.146   0.317  11.559 -1.9601 -0.1512 -1.2025
 9852TIP3    H251048   0.151   0.197  11.467  0.3181 -0.8610 -0.2254
 9853TIP3   OH251049   6.757   5.758  12.256 -0.1823 -0.3755 -0.2965
 9853TIP3    H151050   6.798   5.757  12.342 -1.0924 -1.5026  0.1568
 9853TIP3    H251051   6.706   5.676  12.252 -1.1160  0.2150 -1.4249
 9854TIP3   OH251052   2.359   2.154  16.580  0.3733  0.3802  0.3175
 9854TIP3    H151053   2.433   2.166  16.521 -0.5389  4.4182 -0.3193
 9854TIP3    H251054   2.292   2.113  16.526  1.8263 -2.8799  0.7729
 9855TIP3   OH251055   2.664   3.711   5.331 -0.1770 -0.3524  0.0710
 9855TIP3    H151056   2.723   3.786   5.324 -1.1798  0.4896  0.3847
 9855TIP3    H251057   2.587   3.746   5.376 -0.8784 -1.4444 -0.2551
 9856TIP3   OH251058   6.387   5.709  11.570  0.0516  0.4327 -0.4600
 9856TIP3    H151059   6.380   5.619  11.602 -0.2726  0.6856  0.1857
 9856TIP3    H251060   6.301   5.728  11.533  0.1184  0.4848 -0.5898
 9857TIP3   OH251061   5.144   6.771   1.239  0.1929 -0.4378  0.0753
 9857TIP3    H151062   5.136   6.723   1.321  0.2494  0.1468  0.4291
 9857TIP3    H251063   5.103   6.714   1.174  1.4022 -1.5434  0.2377
 9858TIP3   OH251064   0.960   4.486   0.681  0.0966  0.2202  0.1065
 9858TIP3    H151065   1.029   4.542   0.645 -1.1458  0.7311 -1.6358
 9858TIP3    H251066   1.005   4.407   0.709  1.3227  0.2042 -1.7491
 9859TIP3   OH251067   5.003   2.470   4.230  0.3446  0.1368  0.0408
 9859TIP3    H151068   4.968   2.543   4.179  0.4858  2.5923  3.0816
 9859TIP3    H251069   5.096   2.491   4.240  0.4992 -0.7500  0.5400
 9860TIP3   OH251070   4.558   2.652  11.022  0.3579  0.0270  0.1880
 9860TIP3    H151071   4.473   2.683  10.989  1.6268  0.5382 -2.9037
 9860TIP3    H251072   4.577   2.710  11.096 -1.0028  1.2922 -0.4044
 9861TIP3   OH251073   6.131   1.740   4.223  0.2702  0.1931  0.0038
 9861TIP3    H151074   6.069   1.671   4.248 -0.7363  0.9567 -0.2941
 9861TIP3    H251075   6.134   1.736   4.127  0.1625  0.5768 -0.0213
 9862TIP3   OH251076   5.574   4.266   5.965  0.4904  0.1039  0.3152
 9862TIP3    H151077   5.534   4.265   6.052  0.6408  0.6697  0.3939
 9862TIP3    H251078   5.570   4.357   5.938 -0.1611 -0.1750 -0.5572
 9863TIP3   OH251079   3.606   1.292   3.295 -0.3520  0.2525  0.1166
 9863TIP3    H151080   3.679   1.232   3.315  0.0930  0.9517  0.6522
 9863TIP3    H251081   3.527   1.240   3.313  0.0185 -0.2900  0.2298
 9864TIP3   OH251082   4.370   0.900   0.515 -0.0774  0.5895 -0.0097
 9864TIP3    H151083   4.464   0.906   0.530  0.4217 -0.4646 -2.3249
 9864TIP3    H251084   4.332   0.894   0.603  2.0369  0.4088  0.9498
 9865TIP3   OH251085   4.021   0.893   6.201 -0.0034  0.4382  0.0306
 9865TIP3    H151086   3.985   0.876   6.288  1.0792  0.1083  0.4326
 9865TIP3    H251087   3.972   0.969   6.169 -1.8298 -0.6766  0.0646
 9866TIP3   OH251088   0.387   6.716  14.796  0.7194 -0.6964  0.2857
 9866TIP3    H151089   0.391   6.681  14.885  0.6347  0.9957  0.9913
 9866TIP3    H251090   0.329   6.792  14.802  0.8556 -0.4408 -1.1750
 9867TIP3   OH251091   3.142   4.166   3.260 -0.0155 -0.4472 -0.0704
 9867TIP3    H151092   3.155   4.117   3.341 -0.0802 -0.5569 -0.1266
 9867TIP3    H251093   3.170   4.107   3.191 -0.0098 -0.3723 -0.1325
 9868TIP3   OH251094   6.022   5.193   2.345 -0.1759 -0.5929  0.7169
 9868TIP3    H151095   6.107   5.233   2.359 -0.3005 -0.4331  1.0260
 9868TIP3    H251096   6.037   5.099   2.360 -0.0533 -0.5681  0.7478
 9869TIP3   OH251097   3.613   6.335  15.777 -0.2838 -0.2370  0.0242
 9869TIP3    H151098   3.532   6.292  15.749 -0.5334 -0.5986  1.2673
 9869TIP3    H251099   3.597   6.428  15.761  0.4955 -0.5208 -3.2955
 9870TIP3   OH251100   3.503   2.013   4.243 -0.2017  0.5527  0.1956
 9870TIP3    H151101   3.494   1.919   4.260 -0.0385  0.7206  1.2833
 9870TIP3    H251102   3.414   2.042   4.223 -0.3329  0.2456  0.3226
 9871TIP3   OH251103   1.497   3.590   3.477  0.1059  0.2059 -0.0699
 9871TIP3    H151104   1.566   3.635   3.526  0.4953  0.3602 -0.7495
 9871TIP3    H251105   1.516   3.609   3.385  1.2047 -2.6019 -0.5385
 9872TIP3   OH251106   4.442   4.744  15.788  0.2266 -0.4723 -0.3671
 9872TIP3    H151107   4.530   4.773  15.811  1.1991 -3.7459  0.6948
 9872TIP3    H251108   4.384   4.793  15.846  1.6386 -0.2777  0.9499
 9873TIP3   OH251109   3.160   0.765   5.324 -0.3571  0.2209 -0.1942
 9873TIP3    H151110   3.089   0.774   5.387 -0.8381  2.3207 -0.9940
 9873TIP3    H251111   3.205   0.849   5.326  1.4150 -0.6626 -0.5727
 9874TIP3   OH251112   5.511   2.200   3.704 -0.4945  0.0507  0.0369
 9874TIP3    H151113   5.578   2.242   3.758 -0.2462 -3.0222  2.3746
 9874TIP3    H251114   5.430   2.247   3.724 -0.0300  0.2349  1.5923
 9875TIP3   OH251115   2.492   3.981  13.877  0.4646  0.2094  0.5900
 9875TIP3    H151116   2.413   4.004  13.827  0.5183 -0.6292  0.1136
 9875TIP3    H251117   2.507   4.058  13.933 -0.7247  0.3548  0.7377
 9876TIP3   OH251118   4.031   6.205  12.538  0.0133 -0.3088 -0.0005
 9876TIP3    H151119   3.980   6.143  12.484 -0.3222  0.3993 -0.5134
 9876TIP3    H251120   4.114   6.160  12.553 -0.8445 -1.6245  1.1123
 9877TIP3   OH251121   4.966   3.913  14.621  0.0833  0.0181  0.1083
 9877TIP3    H151122   4.895   3.969  14.589  0.9401  1.2041  0.2447
 9877TIP3    H251123   4.963   3.922  14.716  0.2130 -0.2054  0.1361
 9878TIP3   OH251124   6.356   5.917   1.133 -0.1593 -0.0360 -0.3328
 9878TIP3    H151125   6.388   5.992   1.084  1.4951 -0.2641  0.3353
 9878TIP3    H251126   6.321   5.858   1.067  2.9391 -0.8092 -1.4719
 9879TIP3   OH251127   4.320   2.423  15.057  0.3533 -0.5689 -0.0237
 9879TIP3    H151128   4.399   2.469  15.028  0.0003  1.9771  2.6418
 9879TIP3    H251129   4.249   2.465  15.008  0.4105 -1.1949 -0.6521
 9880TIP3   OH251130   3.552   1.718  10.313 -0.4832 -0.3767 -0.1114
 9880TIP3    H151131   3.546   1.761  10.398  1.5662 -2.3933  1.1829
 9880TIP3    H251132   3.634   1.751  10.275 -1.4387  0.6000 -1.4157
 9881TIP3   OH251133   0.722   1.780  14.218  0.1529  0.1315  0.3583
 9881TIP3    H151134   0.812   1.763  14.245  0.2798 -0.7287 -0.5322
 9881TIP3    H251135   0.703   1.712  14.154 -0.4542  1.4705 -0.9642
 9882TIP3   OH251136   3.174   3.662   1.774  0.2800  0.5244 -0.5520
 9882TIP3    H151137   3.186   3.608   1.696 -0.7799  0.0133 -0.3838
 9882TIP3    H251138   3.209   3.610   1.846  0.4178  0.6031 -0.5619
 9883TIP3   OH251139   0.693   1.806   3.555 -0.3908  0.6750  0.7352
 9883TIP3    H151140   0.746   1.739   3.597 -0.1229  1.0597  1.0188
 9883TIP3    H251141   0.614   1.813   3.610 -0.5553  0.3830  0.5367
 9884TIP3   OH251142   5.586   5.566   1.148  0.0277 -0.2518 -0.5334
 9884TIP3    H151143   5.612   5.547   1.238  1.0319  1.8621 -0.3159
 9884TIP3    H251144   5.506   5.515   1.134 -0.9465  0.4420  2.0263
 9885TIP3   OH251145   2.508   3.246   1.108  0.3548 -0.4336  0.7540
 9885TIP3    H151146   2.416   3.264   1.090  0.6225 -0.5507 -0.7941
 9885TIP3    H251147   2.555   3.325   1.081  0.7358 -0.4305  1.3911
 9886TIP3   OH251148   5.042   5.542  14.284  0.0513  0.2561  0.3147
 9886TIP3    H151149   5.101   5.541  14.359 -0.4186  0.9441  0.7059
 9886TIP3    H251150   4.984   5.617  14.300 -0.3493  0.1337 -0.5053
 9887TIP3   OH251151   2.407   5.251   4.149  0.2755 -0.5374 -0.0182
 9887TIP3    H151152   2.461   5.314   4.101  0.7869 -0.8692  0.1112
 9887TIP3    H251153   2.444   5.251   4.237 -1.3377  0.8867  0.7178
 9888TIP3   OH251154   1.837   0.461   6.105 -0.0043 -0.0343 -0.4300
 9888TIP3    H151155   1.743   0.443   6.113 -0.1519  0.8224 -0.2234
 9888TIP3    H251156   1.875   0.423   6.184 -0.5361  1.9865  0.8643
 9889TIP3   OH251157   4.723   1.159   2.345  0.0599  0.1667 -0.5579
 9889TIP3    H151158   4.808   1.141   2.305  0.0775  2.6233 -1.7842
 9889TIP3    H251159   4.743   1.205   2.426 -0.0684  1.5776 -1.2991
 9890TIP3   OH251160   2.312   1.191   4.113 -0.0465  0.1733 -0.0754
 9890TIP3    H151161   2.286   1.099   4.105  0.7535 -0.0333 -0.4371
 9890TIP3    H251162   2.407   1.189   4.112 -0.0076  0.9558  0.6394
 9891TIP3   OH251163   1.607   3.416  11.459  0.0428 -0.6804  0.2198
 9891TIP3    H151164   1.524   3.449  11.493 -0.1511 -0.2036 -0.7105
 9891TIP3    H251165   1.590   3.397  11.367  1.0450 -0.2919 -0.0536
 9892TIP3   OH251166   0.659   5.428  11.090  0.3710 -0.6562  0.3158
 9892TIP3    H151167   0.608   5.425  11.009 -0.6608  0.2966  0.9070
 9892TIP3    H251168   0.744   5.390  11.066  0.4634  0.5622 -1.4993
 9893TIP3   OH251169   3.429   1.215   1.574 -0.3841  0.2702  0.5688
 9893TIP3    H151170   3.468   1.269   1.643  0.9610 -0.7652  0.6683
 9893TIP3    H251171   3.338   1.245   1.568  0.4210  2.8925  0.2344
 9894TIP3   OH251172   6.385   3.130  13.280  0.8425 -0.2275  0.7637
 9894TIP3    H151173   6.320   3.063  13.301 -0.8331  1.7352  2.1695
 9894TIP3    H251174   6.443   3.132  13.355  1.6959 -0.9503  0.1499
 9895TIP3   OH251175   0.268   1.502   4.242  0.1360 -0.2562  0.5979
 9895TIP3    H151176   0.197   1.540   4.294 -0.8821 -2.5952  1.0294
 9895TIP3    H251177   0.277   1.561   4.167 -1.3091  0.8377  1.2407
 9896TIP3   OH251178   4.801   1.678  14.804  0.3464  0.2937 -0.5164
 9896TIP3    H151179   4.798   1.722  14.889  1.4970 -2.0258  0.8408
 9896TIP3    H251180   4.738   1.725  14.750 -1.8501  0.7605  2.1938
 9897TIP3   OH251181   0.760   0.234   0.521 -0.2884  0.4111  0.2607
 9897TIP3    H151182   0.828   0.168   0.534 -1.5794 -0.9023  0.6788
 9897TIP3    H251183   0.759   0.283   0.604  0.7237  1.0310 -0.0771
 9898TIP3   OH251184   4.490   3.569  10.630  0.1837  0.0952  0.4663
 9898TIP3    H151185   4.406   3.614  10.627  0.4334  0.5396 -0.3005
 9898TIP3    H251186   4.535   3.598  10.550  0.8454 -0.5551  0.5942
 9899TIP3   OH251187   2.759   1.376   4.830 -0.7307 -0.4427 -0.3748
 9899TIP3    H151188   2.716   1.336   4.906 -0.0393  1.1572  0.8944
 9899TIP3    H251189   2.692   1.374   4.761 -2.2968  0.4632  1.0595
 9900TIP3   OH251190   3.202   4.486  13.800  0.2423  0.6971 -0.1026
 9900TIP3    H151191   3.137   4.542  13.759 -1.2244 -0.8904 -0.0330
 9900TIP3    H251192   3.213   4.413  13.739 -0.9767 -1.0216  1.6161
 9901TIP3   OH251193   2.635   1.852   2.456  0.3355 -0.2461 -0.1021
 9901TIP3    H151194   2.583   1.930   2.475  0.5586 -0.0286 -0.3934
 9901TIP3    H251195   2.575   1.795   2.408  0.3051 -0.0763 -0.2677
 9902TIP3   OH251196   0.168   2.377  14.076 -0.5724 -0.1952  0.5806
 9902TIP3    H151197   0.162   2.427  14.158  0.6869 -0.5152  0.8994
 9902TIP3    H251198   0.098   2.313  14.082 -0.6134 -0.0907  1.3263
 9903TIP3   OH251199   6.037   5.770   3.164 -0.2281 -0.3427  0.2843
 9903TIP3    H151200   6.128   5.753   3.141  0.8982  2.4851  2.1503
 9903TIP3    H251201   6.021   5.717   3.242 -0.4433 -1.3535 -0.4286
 9904TIP3   OH251202   5.937   0.920  15.494 -0.0822 -0.3514  0.2589
 9904TIP3    H151203   6.005   0.887  15.436 -0.6755 -1.9120  0.3983
 9904TIP3    H251204   5.892   0.987  15.442  2.0677  1.4042  0.4857
 9905TIP3   OH251205   6.484   0.580  13.063  0.2153  0.0328 -0.3366
 9905TIP3    H151206   6.466   0.652  13.003 -1.1135 -0.8216 -1.0062
 9905TIP3    H251207   6.497   0.623  13.148 -2.1898  1.0131 -0.3727
 9906TIP3   OH251208   4.534   6.262   4.581  0.3603  0.5367  0.7396
 9906TIP3    H151209   4.494   6.241   4.665  1.5297  0.9645  1.4258
 9906TIP3    H251210   4.610   6.317   4.603  1.2835 -0.1809 -0.4987
 9907TIP3   OH251211   5.966   2.180   1.471 -0.0866  0.7172  0.9039
 9907TIP3    H151212   5.887   2.128   1.489 -0.6412  1.9000  2.0143
 9907TIP3    H251213   6.005   2.138   1.394 -1.3283 -0.4131  0.8543
 9908TIP3   OH251214   4.208   0.994  14.976 -0.2818 -0.0701  0.2416
 9908TIP3    H151215   4.231   0.918  14.924 -0.3664 -0.7971  1.2340
 9908TIP3    H251216   4.129   0.969  15.023  0.3420  0.1866  1.4725
 9909TIP3   OH251217   6.325   0.863   2.483  0.2346 -0.6221 -0.1245
 9909TIP3    H151218   6.332   0.768   2.482 -0.8308 -0.7148 -0.3159
 9909TIP3    H251219   6.259   0.881   2.551  0.7142 -0.0003  0.1836
 9910TIP3   OH251220   5.336   2.785  11.942  0.1461 -0.0340  0.3744
 9910TIP3    H151221   5.324   2.759  11.851  2.1355  0.6268 -0.1292
 9910TIP3    H251222   5.263   2.744  11.988 -1.5677  0.5031 -1.6584
 9911TIP3   OH251223   2.246   5.793  13.739 -0.1749 -0.0964 -0.1160
 9911TIP3    H151224   2.313   5.779  13.672  0.6923 -0.6958  0.8410
 9911TIP3    H251225   2.248   5.887  13.756  2.9435 -0.4172  2.3239
 9912TIP3   OH251226   5.651   1.422   3.511 -0.5175 -0.6982  0.5153
 9912TIP3    H151227   5.668   1.460   3.597 -0.7212 -0.1245  0.3072
 9912TIP3    H251228   5.718   1.460   3.454 -0.8996 -0.4172  0.2461
 9913TIP3   OH251229   4.603   5.016   5.896 -0.0162  0.2607 -0.1262
 9913TIP3    H151230   4.694   5.027   5.867 -0.8042  0.4620 -2.7906
 9913TIP3    H251231   4.592   4.922   5.904  0.3059  0.2086 -0.2433
 9914TIP3   OH251232   2.639   4.317   2.178  0.0624  0.3521  0.2271
 9914TIP3    H151233   2.726   4.330   2.215 -1.0849 -1.0168  3.8429
 9914TIP3    H251234   2.601   4.405   2.174  0.6238  0.6646  1.3795
 9915TIP3   OH251235   1.243   5.149  10.050  0.0074  0.4317 -0.1008
 9915TIP3    H151236   1.236   5.087   9.978  0.0553 -1.1754  1.2303
 9915TIP3    H251237   1.184   5.114  10.118  1.0377  1.1059  1.1825
 9916TIP3   OH251238   3.556   0.136  11.262  0.9322  1.1152  0.1800
 9916TIP3    H151239   3.639   0.166  11.224 -0.2092  3.7717 -0.5012
 9916TIP3    H251240   3.506   0.104  11.187  0.6975  1.2280  0.2865
 9917TIP3   OH251241   5.723   2.987   0.182  1.1993 -0.5293 -0.2989
 9917TIP3    H151242   5.698   3.008   0.092 -0.6390  0.3663  0.3734
 9917TIP3    H251243   5.816   3.010   0.188  1.3613 -0.6797 -1.9772
 9918TIP3   OH251244   3.829   5.246   3.762 -0.2494  0.1315  0.4604
 9918TIP3    H151245   3.844   5.338   3.784  0.8059  0.4622 -1.3940
 9918TIP3    H251246   3.848   5.198   3.843  0.4683  1.4368  1.0960
 9919TIP3   OH251247   2.450   4.647  12.743  0.1256  0.0575 -0.0124
 9919TIP3    H151248   2.470   4.726  12.693  0.3124 -0.5638 -0.9402
 9919TIP3    H251249   2.362   4.621  12.714 -0.0428  0.0589  0.4786
 9920TIP3   OH251250   4.666   0.398  14.734 -0.7057  0.2337 -0.3905
 9920TIP3    H151251   4.664   0.337  14.661  0.7361 -0.0673 -0.2088
 9920TIP3    H251252   4.687   0.344  14.810  0.4229  0.9027 -0.2001
 9921TIP3   OH251253   2.996   3.494   4.616  0.2148  0.1994 -0.3111
 9921TIP3    H151254   3.014   3.465   4.527 -0.0281 -0.8518 -0.0257
 9921TIP3    H251255   2.933   3.565   4.605  0.6205  0.4616 -1.0045
 9922TIP3   OH251256   2.174   3.664   2.442 -0.0506  0.3535 -0.5909
 9922TIP3    H151257   2.262   3.702   2.439 -0.4789  1.5737  0.9592
 9922TIP3    H251258   2.117   3.736   2.415 -0.6545 -0.1624 -0.7048
 9923TIP3   OH251259   6.009   3.721   3.007 -0.5120 -0.1687  0.0886
 9923TIP3    H151260   5.990   3.741   2.916 -1.4019 -1.4390 -0.0380
 9923TIP3    H251261   6.077   3.653   3.003  0.8039  1.0572  0.4474
 9924TIP3   OH251262   2.550   6.669   4.450 -0.4711 -0.3063  0.0869
 9924TIP3    H151263   2.500   6.750   4.442  0.5184  0.4014  0.8195
 9924TIP3    H251264   2.521   6.631   4.533  1.1217  0.8039  1.2150
 9925TIP3   OH251265   3.421   0.955   3.125 -0.4970  0.1754  0.3624
 9925TIP3    H151266   3.432   1.020   3.195 -0.9421  2.1629 -1.3074
 9925TIP3    H251267   3.473   0.989   3.052 -0.9555 -1.2266 -0.6639
 9926TIP3   OH251268   6.368   6.664   2.862  0.5888  0.4547 -0.3355
 9926TIP3    H151269   6.274   6.676   2.847  0.1010  0.0872  2.1169
 9926TIP3    H251270   6.403   6.753   2.871  0.6537  0.6251 -1.9825
 9927TIP3   OH251271   5.387   5.761   5.878 -0.1410 -0.1968  0.3863
 9927TIP3    H151272   5.342   5.833   5.923  0.9944  0.3788  0.6427
 9927TIP3    H251273   5.390   5.690   5.942 -1.2456 -0.4722  0.1417
 9928TIP3   OH251274   5.069   4.857  13.074  0.4116 -0.0420  0.2062
 9928TIP3    H151275   4.988   4.812  13.050 -1.5285  2.4013  1.6898
 9928TIP3    H251276   5.100   4.896  12.992 -0.2820 -0.4140 -0.2464
 9929TIP3   OH251277   3.125   5.223  16.231 -0.5548  0.2140 -0.1283
 9929TIP3    H151278   3.038   5.260  16.219 -1.4705 -1.6083  0.5397
 9929TIP3    H251279   3.136   5.162  16.158 -0.8245 -1.2953  1.0640
 9930TIP3   OH251280   2.518   5.927   5.289  0.0315  0.3172 -0.5869
 9930TIP3    H151281   2.487   6.011   5.255 -1.4688 -0.3089 -0.8479
 9930TIP3    H251282   2.477   5.862   5.233  0.7377 -0.6169 -0.0455
 9931TIP3   OH251283   5.141   1.836   4.170  0.6002  0.4898  0.6942
 9931TIP3    H151284   5.123   1.929   4.159 -0.3804  0.1209 -1.3188
 9931TIP3    H251285   5.146   1.802   4.081  2.3749 -1.1557  1.3444
 9932TIP3   OH251286   3.870   2.811  16.147  0.2884 -0.0274  0.1336
 9932TIP3    H151287   3.802   2.809  16.214  1.0857 -0.0926  0.9568
 9932TIP3    H251288   3.822   2.807  16.064 -0.6138 -2.8300  0.6785
 9933TIP3   OH251289   1.773   1.171   4.902 -0.1706 -0.2344  0.1650
 9933TIP3    H151290   1.867   1.171   4.884 -0.1459 -0.9748  0.2649
 9933TIP3    H251291   1.762   1.110   4.975 -0.5336  1.1010  1.2662
 9934TIP3   OH251292   5.600   1.363   4.682 -0.2424 -0.0328 -0.5213
 9934TIP3    H151293   5.553   1.283   4.707 -1.7289 -0.2713 -3.5389
 9934TIP3    H251294   5.667   1.332   4.620  0.6520  0.8413 -0.0032
 9935TIP3   OH251295   3.717   5.173  11.268 -0.3390  0.0132 -0.2248
 9935TIP3    H151296   3.808   5.190  11.243 -0.2212 -0.4167 -0.1010
 9935TIP3    H251297   3.722   5.147  11.360 -0.7071  1.0411  0.1047
 9936TIP3   OH251298   3.410   0.554   3.678 -0.4794  0.1005 -0.0760
 9936TIP3    H151299   3.480   0.602   3.721 -1.0068  2.1921 -1.4029
 9936TIP3    H251300   3.334   0.612   3.684 -1.5601 -1.2207 -0.4761
 9937TIP3   OH251301   1.687   6.342  11.364  0.2571 -0.5103  0.0018
 9937TIP3    H151302   1.614   6.403  11.357  0.4202 -0.1079  1.3539
 9937TIP3    H251303   1.718   6.353  11.454  0.8198 -1.9922  0.0204
 9938TIP3   OH251304   0.746   0.798   2.738 -0.5919 -0.2294 -0.4727
 9938TIP3    H151305   0.738   0.889   2.767  2.4621 -0.5525  2.0502
 9938TIP3    H251306   0.702   0.747   2.806  0.3714 -0.7163 -0.1863
 9939TIP3   OH251307   5.824   2.312  12.821  0.3209 -0.1485 -0.0764
 9939TIP3    H151308   5.853   2.234  12.868  1.7397  0.9883  1.0499
 9939TIP3    H251309   5.881   2.317  12.744  0.4969 -0.0320  0.0587
 9940TIP3   OH251310   3.094   2.686   0.858 -0.1146  0.6696 -0.2639
 9940TIP3    H151311   3.113   2.634   0.937 -0.3755 -0.2661 -0.8023
 9940TIP3    H251312   3.013   2.733   0.880 -1.0407 -0.7592 -0.5044
 9941TIP3   OH251313   5.335   6.615   0.481 -0.0609 -0.1707 -0.2503
 9941TIP3    H151314   5.253   6.571   0.506 -0.1547 -0.9214 -1.8081
 9941TIP3    H251315   5.313   6.709   0.484 -0.4155 -0.2720  1.1898
 9942TIP3   OH251316   5.577   3.648   2.942 -0.4547 -0.1438 -0.0225
 9942TIP3    H151317   5.520   3.640   3.019  0.6981  0.2546  0.8983
 9942TIP3    H251318   5.516   3.653   2.868 -1.5998 -0.2580  0.8753
 9943TIP3   OH251319   1.458   6.811  13.979  0.2262 -0.0989 -0.0375
 9943TIP3    H151320   1.502   6.726  13.973  1.8935  0.7318 -0.3070
 9943TIP3    H251321   1.503   6.856  14.051  1.7925  1.8084 -2.0423
 9944TIP3   OH251322   2.174   3.882  14.204 -0.1076 -0.0490 -0.5033
 9944TIP3    H151323   2.261   3.842  14.200 -0.8290 -1.6946 -0.5646
 9944TIP3    H251324   2.183   3.964  14.156  1.4817 -0.0602 -0.2670
 9945TIP3   OH251325   4.526   1.874   4.784 -0.4774 -0.5083  0.5030
 9945TIP3    H151326   4.478   1.794   4.763 -0.1248 -0.6761  0.3336
 9945TIP3    H251327   4.493   1.899   4.871 -0.9208 -0.5827  0.3600
 9946TIP3   OH251328   2.484   5.804  16.381 -0.0226 -0.0831 -0.6785
 9946TIP3    H151329   2.482   5.893  16.346  1.3453  0.4641  0.5157
 9946TIP3    H251330   2.560   5.803  16.440  1.0783 -2.5361 -1.9650
 9947TIP3   OH251331   4.638   1.312  16.980  0.3472 -0.0336 -0.3427
 9947TIP3    H151332   4.622   1.256  16.905  2.7578  0.0352 -0.9910
 9947TIP3    H251333   4.727   1.344  16.968 -0.4292  2.8517  0.7241
 9948TIP3   OH251334   0.483   1.398  11.956  0.9258  0.4520 -0.1571
 9948TIP3    H151335   0.479   1.454  11.878 -0.3309 -0.8192 -1.0609
 9948TIP3    H251336   0.558   1.431  12.005  0.9835  2.1054 -1.2694
 9949TIP3   OH251337   0.403   4.469   0.023 -0.6043 -0.2132  0.2882
 9949TIP3    H151338   0.319   4.424   0.025 -0.7439  0.0579  0.9313
 9949TIP3    H251339   0.394   4.540   0.087  1.3288 -2.3374  3.1641
 9950TIP3   OH251340   2.991   1.416   3.046  0.0327 -0.0709  0.6675
 9950TIP3    H151341   2.975   1.469   2.967  0.1588  2.0074  1.9641
 9950TIP3    H251342   2.903   1.403   3.083 -0.0560 -1.2966  0.0465
 9951TIP3   OH251343   4.520   4.040  14.763  0.3111  0.2277 -0.0583
 9951TIP3    H151344   4.553   3.950  14.763  0.3455  0.2248 -1.1692
 9951TIP3    H251345   4.434   4.034  14.722  0.4950  0.7557 -0.5300
 9952TIP3   OH251346   2.817   2.477  12.020  0.7058 -0.1066 -0.2924
 9952TIP3    H151347   2.855   2.483  11.932 -1.3164  1.4033 -1.1487
 9952TIP3    H251348   2.774   2.392  12.023 -0.6802  0.5170 -1.4536
 9953TIP3   OH251349   1.679   5.253  13.958 -0.3879 -0.3759 -0.3121
 9953TIP3    H151350   1.654   5.285  14.045 -0.2345  0.0472 -0.4214
 9953TIP3    H251351   1.682   5.332  13.903 -2.3843 -0.8300 -1.1868
 9954TIP3   OH251352   6.160   5.708  10.842 -0.0163 -0.3188 -0.7122
 9954TIP3    H151353   6.200   5.622  10.856  1.9201  0.4551 -1.0805
 9954TIP3    H251354   6.176   5.755  10.924 -1.5410 -0.4596 -0.3165
 9955TIP3   OH251355   4.628   1.319   3.743  0.1708 -0.3244 -0.3987
 9955TIP3    H151356   4.673   1.402   3.759  1.3199 -1.3435  2.1717
 9955TIP3    H251357   4.535   1.342   3.746  0.4243  0.6811  2.0266
 9956TIP3   OH251358   0.587   1.330  13.053 -0.3970 -0.0774 -0.0398
 9956TIP3    H151359   0.666   1.372  13.085 -0.3058 -0.6971  0.5717
 9956TIP3    H251360   0.520   1.399  13.057 -0.2625  0.0178  1.0023
 9957TIP3   OH251361   0.033   1.066  15.458  0.0435  0.1600 -0.0922
 9957TIP3    H151362  -0.013   1.018  15.526 -0.5023  1.1034  0.2201
 9957TIP3    H251363   0.093   1.124  15.505  1.4961 -0.9524 -0.4859
 9958TIP3   OH251364   6.444   0.791  14.668  0.2277 -0.1244 -0.3303
 9958TIP3    H151365   6.491   0.873  14.680 -0.0415  0.0523 -0.4671
 9958TIP3    H251366   6.366   0.815  14.617  0.7475 -0.6549 -1.4197
 9959TIP3   OH251367   4.875   2.661  13.391 -0.2857 -0.0605  0.0254
 9959TIP3    H151368   4.954   2.708  13.416 -0.3691 -0.9261  2.1154
 9959TIP3    H251369   4.904   2.601  13.322 -0.0251  2.3531 -2.1229
 9960TIP3   OH251370   3.896   6.555  15.867 -0.0579 -0.2379 -0.0622
 9960TIP3    H151371   3.910   6.628  15.807 -3.2100  0.0837 -0.5678
 9960TIP3    H251372   3.884   6.597  15.953  0.4479 -0.3867  0.0879
 9961TIP3   OH251373   5.261   0.370  14.557  0.4573 -0.3348 -0.2934
 9961TIP3    H151374   5.353   0.396  14.548  0.0537  1.4174  0.2460
 9961TIP3    H251375   5.256   0.284  14.515  2.8275 -1.5667  1.6827
 9962TIP3   OH251376   4.078   2.848  12.236 -0.0080  0.3426 -0.0600
 9962TIP3    H151377   4.130   2.796  12.175  1.3516 -0.0092  1.3494
 9962TIP3    H251378   4.136   2.862  12.311 -1.8510  0.2220  1.4396
 9963TIP3   OH251379   4.443   1.686  13.977  0.0328  0.2017 -0.0636
 9963TIP3    H151380   4.470   1.740  13.903  2.0807 -0.0594  0.4385
 9963TIP3    H251381   4.450   1.596  13.944  0.9278  0.0861  0.3982
 9964TIP3   OH251382   3.646   4.146  12.655  0.2466  0.3407 -0.2662
 9964TIP3    H151383   3.708   4.219  12.663 -0.9603  1.4010 -0.2293
 9964TIP3    H251384   3.694   4.070  12.689  1.5999  1.0668 -0.4672
 9965TIP3   OH251385   2.351   0.643  15.423  0.3181 -0.1973 -0.0909
 9965TIP3    H151386   2.420   0.693  15.380  0.7619  0.4676  1.3197
 9965TIP3    H251387   2.379   0.638  15.515 -1.4151 -0.0671  0.4755
 9966TIP3   OH251388   6.552   1.906  16.419 -0.4391  0.3450  0.5777
 9966TIP3    H151389   6.544   2.002  16.427  0.2167  0.5351 -0.7617
 9966TIP3    H251390   6.602   1.893  16.338 -2.1274 -1.1887 -0.2932
 9967TIP3   OH251391   5.425   1.806  11.523 -0.1821 -0.7662 -0.0377
 9967TIP3    H151392   5.411   1.713  11.543 -1.1933 -0.7072 -0.3926
 9967TIP3    H251393   5.414   1.811  11.428  0.9476 -0.4502 -0.1687
 9968TIP3   OH251394   4.286   4.247   1.290  0.3159  0.6392 -0.2225
 9968TIP3    H151395   4.198   4.211   1.301  0.3751  1.0791  2.3231
 9968TIP3    H251396   4.331   4.184   1.234 -1.2674 -0.2003 -0.6051
 9969TIP3   OH251397   4.729   0.474  16.119  0.1794 -0.6678  0.9523
 9969TIP3    H151398   4.738   0.540  16.188 -0.0676 -1.4308  1.7233
 9969TIP3    H251399   4.721   0.391  16.166 -1.0939 -1.0843  0.0398
 9970TIP3   OH251400   2.543   4.367  11.501 -0.2281 -0.4504 -1.1448
 9970TIP3    H151401   2.520   4.318  11.422 -2.0373 -1.4967 -0.0158
 9970TIP3    H251402   2.592   4.304  11.555 -0.8770 -0.4318 -0.5210
 9971TIP3   OH251403   2.169   0.243  16.974 -0.2668 -0.5221 -0.3417
 9971TIP3    H151404   2.236   0.179  16.949  1.3965  0.9019  0.2514
 9971TIP3    H251405   2.148   0.289  16.893  0.0626 -0.4659 -0.3968
 9972TIP3   OH251406   4.483   2.387   3.399  0.0455  0.4294  0.3681
 9972TIP3    H151407   4.491   2.477   3.370  0.2107  0.5238  0.7049
 9972TIP3    H251408   4.398   2.358   3.365  0.5882  0.2686 -0.9170
 9973TIP3   OH251409   4.987   0.252  14.988 -0.3047  0.3937  0.1556
 9973TIP3    H151410   4.938   0.332  15.008 -2.1525 -0.2773 -1.3722
 9973TIP3    H251411   4.948   0.220  14.907  2.6204 -0.3002 -1.1059
 9974TIP3   OH251412   4.250   0.907   6.030  0.5833 -0.0375 -0.2567
 9974TIP3    H151413   4.188   0.881   6.099  0.6332 -0.5031 -0.3894
 9974TIP3    H251414   4.323   0.847   6.039  1.1130  0.6309  0.0216
 9975TIP3   OH251415   3.962   0.431  11.973 -0.6148 -0.1523 -0.4570
 9975TIP3    H151416   3.902   0.465  11.908  0.1676  5.7610  1.3610
 9975TIP3    H251417   3.911   0.425  12.053 -0.0317 -0.7140 -0.1109
 9976TIP3   OH251418   2.500   0.496  14.127 -0.1182 -0.2019 -0.1630
 9976TIP3    H151419   2.471   0.437  14.197  4.2876  0.4187  2.5445
 9976TIP3    H251420   2.522   0.578  14.172  0.8854  0.9730 -2.6256
 9977TIP3   OH251421   6.455   2.552   5.235  0.1131 -0.4540 -0.0788
 9977TIP3    H151422   6.447   2.549   5.140  0.6256 -0.8955 -0.1132
 9977TIP3    H251423   6.369   2.524   5.268  0.0527 -0.6594 -0.4116
 9978TIP3   OH251424   6.541   1.541  13.964 -0.0936 -0.5185  0.6564
 9978TIP3    H151425   6.490   1.544  14.045 -0.0953 -0.8136  0.6685
 9978TIP3    H251426   6.479   1.565  13.895  0.7295  3.5865  1.0717
 9979TIP3   OH251427   2.144   1.468  12.566  0.5777  0.2854 -0.2259
 9979TIP3    H151428   2.178   1.547  12.523 -2.1857  1.8278  0.1927
 9979TIP3    H251429   2.185   1.468  12.653  2.3486 -0.0818 -1.0122
 9980TIP3   OH251430   3.245   3.499  11.362  0.1584  0.2707  0.2124
 9980TIP3    H151431   3.173   3.441  11.340 -1.2733  1.1891  2.0835
 9980TIP3    H251432   3.233   3.575  11.305  0.7005 -0.2934 -0.6732
 9981TIP3   OH251433   4.910   5.196   5.633  0.3172 -0.0006 -0.8133
 9981TIP3    H151434   4.844   5.236   5.577  1.3361 -0.2710 -2.2818
 9981TIP3    H251435   4.916   5.106   5.602  1.9530  0.2414 -1.3276
 9982TIP3   OH251436   3.677   0.284   5.637 -0.2067  0.3605 -0.0942
 9982TIP3    H151437   3.620   0.223   5.685  0.4418 -0.1773  0.0171
 9982TIP3    H251438   3.701   0.350   5.702 -0.0391  0.1213  0.0911
 9983TIP3   OH251439   2.016   4.372  11.215 -0.3956  0.3593 -0.3161
 9983TIP3    H151440   2.019   4.335  11.304  0.5272  2.1672  0.4543
 9983TIP3    H251441   2.068   4.311  11.162 -0.6832 -0.5683  0.4337
 9984TIP3   OH251442   3.886   6.400   4.390 -0.1375 -0.4534  0.3431
 9984TIP3    H151443   3.974   6.425   4.361 -1.0302  2.9871  0.2705
 9984TIP3    H251444   3.892   6.400   4.486 -0.2705  0.8300  0.3668
 9985TIP3   OH251445   5.894   3.751   0.280 -0.2178  0.4051 -0.2263
 9985TIP3    H151446   5.915   3.820   0.343  1.3814 -0.1532 -0.1113
 9985TIP3    H251447   5.911   3.790   0.195 -1.8555  0.9797 -0.3293
 9986TIP3   OH251448   3.724   0.807   5.457  0.6061  0.0845  0.2316
 9986TIP3    H151449   3.654   0.872   5.463  0.9652  0.3627  1.9850
 9986TIP3    H251450   3.805   0.859   5.459  0.8810 -0.3500  0.6005
 9987TIP3   OH251451   2.791   1.155  16.924  0.6578 -0.3668  0.1452
 9987TIP3    H151452   2.831   1.233  16.962 -0.4576  1.2433 -1.7790
 9987TIP3    H251453   2.756   1.107  16.999  2.0094  0.5702  1.4397
 9988TIP3   OH251454   4.337   1.344  10.576  0.4589 -0.3890  0.4493
 9988TIP3    H151455   4.319   1.430  10.539 -2.1622 -1.1325 -0.1899
 9988TIP3    H251456   4.338   1.357  10.671 -1.1608  0.1779  0.4120
 9989TIP3   OH251457   6.163   0.777  11.329  0.2607 -0.2316 -0.6196
 9989TIP3    H151458   6.255   0.795  11.312 -0.0790  0.8027 -1.4948
 9989TIP3    H251459   6.127   0.862  11.355 -0.1948 -0.8810  0.9617
 9990TIP3   OH251460   1.889   3.368   3.058  0.3596  0.5757 -0.0945
 9990TIP3    H151461   1.891   3.274   3.077 -3.0904  0.3959  0.0193
 9990TIP3    H251462   1.841   3.375   2.976  0.4769  2.2576 -0.0569
 9991TIP3   OH251463   6.141   4.713  11.481 -0.3566 -0.4122  0.1661
 9991TIP3    H151464   6.206   4.739  11.547 -0.7319 -0.1818  0.4524
 9991TIP3    H251465   6.179   4.636  11.439 -0.3388 -0.8813  1.0111
 9992TIP3   OH251466   2.975   6.566   5.143 -0.0864 -0.0695 -0.2449
 9992TIP3    H151467   2.994   6.533   5.055  0.3913  1.1537 -0.6249
 9992TIP3    H251468   2.880   6.573   5.146 -0.0651  0.6955 -0.9918
 9993TIP3   OH251469   4.314   2.953  12.079 -0.2302 -0.3558 -0.2101
 9993TIP3    H151470   4.277   2.871  12.045 -0.8735  0.3202 -1.1835
 9993TIP3    H251471   4.277   2.962  12.166 -1.0064 -0.5784 -0.5049
 9994TIP3   OH251472   6.505   1.533   1.238 -0.2157 -0.2260 -0.0383
 9994TIP3    H151473   6.577   1.571   1.288 -0.5942  0.5627 -0.0757
 9994TIP3    H251474   6.428   1.581   1.267 -0.7154 -0.9949 -0.0726
 9995TIP3   OH251475   0.115   2.201  12.517  0.5023  0.2720  0.0023
 9995TIP3    H151476   0.054   2.199  12.443  0.0974 -0.2344  0.3448
 9995TIP3    H251477   0.143   2.292  12.522 -1.4787  0.8795  0.8493
 9996TIP3   OH251478   2.596   4.613  15.549  0.2538  0.0113  0.1316
 9996TIP3    H151479   2.576   4.532  15.502 -0.8001  0.6624 -0.5758
 9996TIP3    H251480   2.669   4.589  15.606  0.8950 -1.0698 -1.0850
 9997TIP3   OH251481   6.100   5.558  15.694 -0.2690 -0.0229  0.1643
 9997TIP3    H151482   6.123   5.484  15.639 -1.0430  0.1345 -0.3946
 9997TIP3    H251483   6.081   5.520  15.780 -0.5509 -0.4549 -0.0881
 9998TIP3   OH251484   3.749   3.881  13.697  0.1567 -0.2539  0.4085
 9998TIP3    H151485   3.735   3.906  13.788 -1.0386 -0.8488  0.4084
 9998TIP3    H251486   3.669   3.835  13.672  0.8962 -1.0351 -0.6189
 9999TIP3   OH251487   3.280   0.502   5.259  0.3710  0.5121 -0.8659
 9999TIP3    H151488   3.273   0.596   5.241  1.8234  0.8148 -0.0508
 9999TIP3    H251489   3.362   0.494   5.309 -0.2999 -1.0433  0.0453
10000TIP3   OH251490   2.494   1.579   3.768  0.2908  0.5827 -0.4774
10000TIP3    H151491   2.508   1.569   3.863 -1.8077 -1.5049 -0.2778
10000TIP3    H251492   2.417   1.636   3.761 -0.8358 -0.9061 -0.7685
10001TIP3   OH251493   5.053   2.781   2.290  0.2823 -0.0807 -0.0791
10001TIP3    H151494   5.027   2.708   2.346  1.2686  0.2196  0.8255
10001TIP3    H251495   5.116   2.743   2.228 -0.2550 -0.2698 -0.5091
10002TIP3   OH251496   6.200   6.200   5.601  0.0893  0.0436 -0.0267
10002TIP3    H151497   6.192   6.113   5.563  1.5628  0.5085 -1.5525
10002TIP3    H251498   6.280   6.236   5.561 -0.1928  1.8871  0.9608
10003TIP3   OH251499   4.495   5.854   2.971  0.4255 -0.4641  0.1216
10003TIP3    H151500   4.464   5.820   3.055 -0.5692 -1.8454 -0.7538
10003TIP3    H251501   4.432   5.924   2.950  0.3755 -0.4567  0.2874
10004TIP3   OH251502   0.484   2.586  16.904  0.8371 -0.3080 -0.0033
10004TIP3    H151503   0.418   2.559  16.967 -0.0560 -2.0416 -1.5689
10004TIP3    H251504   0.452   2.552  16.820  0.9815  3.5002 -1.8060
10005TIP3   OH251505   3.980   6.692   2.532  0.4759  0.3051 -0.4036
10005TIP3    H151506   3.898   6.643   2.521  0.0034  1.0449 -0.2544
10005TIP3    H251507   3.999   6.684   2.626  0.1336  0.8116 -0.2876
10006TIP3   OH251508   0.449   5.873  13.290  0.4160 -0.0761  0.2322
10006TIP3    H151509   0.391   5.880  13.215  0.2380 -0.0884  0.3693
10006TIP3    H251510   0.515   5.941  13.275 -0.3619  0.8148  0.7134
10007TIP3   OH251511   6.343   4.059   1.699 -0.0821  0.1387 -0.0723
10007TIP3    H151512   6.377   3.970   1.705 -1.4105 -0.4036 -0.2310
10007TIP3    H251513   6.290   4.070   1.778  0.4975  0.9911  0.2125
10008TIP3   OH251514   6.819   4.543  13.565 -0.8592  0.2744  0.3876
10008TIP3    H151515   6.740   4.593  13.543 -0.2639  1.2987  0.5086
10008TIP3    H251516   6.858   4.522  13.481  0.3747  2.4925  0.3319
10009TIP3   OH251517   5.054   3.675   0.756  0.0055  0.2231  0.6536
10009TIP3    H151518   5.043   3.750   0.814  0.4467 -1.0504  2.4469
10009TIP3    H251519   4.964   3.646   0.738 -0.2742  2.0811 -1.3925
10010TIP3   OH251520   5.981   0.616  14.047  0.1824 -0.3086 -0.3098
10010TIP3    H151521   6.076   0.623  14.039  0.1164  0.9596 -0.2055
10010TIP3    H251522   5.964   0.522  14.056  1.4827 -0.4893  0.4501
10011TIP3   OH251523   2.502   3.734   2.127  0.2920  0.7881  0.2472
10011TIP3    H151524   2.552   3.723   2.207  1.1961 -0.6681 -0.4652
10011TIP3    H251525   2.427   3.675   2.137 -0.7705  2.1704  0.8606
10012TIP3   OH251526   0.741   1.003   2.081  0.1346  0.0554 -0.3586
10012TIP3    H151527   0.698   0.976   2.162  0.2465  2.0860  0.4265
10012TIP3    H251528   0.820   0.949   2.076  0.4598  0.3380  1.2422
10013TIP3   OH251529   3.623   2.191  13.466  0.2692 -0.3101 -0.1291
10013TIP3    H151530   3.711   2.167  13.497 -0.8433 -0.9237  2.9463
10013TIP3    H251531   3.635   2.274  13.420  2.7478 -1.5498 -1.9912
10014TIP3   OH251532   1.541   2.480   5.023 -0.1487  0.1844 -0.2859
10014TIP3    H151533   1.588   2.397   5.035 -0.2143  0.0166 -1.0909
10014TIP3    H251534   1.610   2.547   5.021 -0.0332  0.0648 -0.3242
10015TIP3   OH251535   6.124   2.960   4.766  0.1579  0.0945  0.1725
10015TIP3    H151536   6.052   3.011   4.804  0.6711  0.3998  0.7526
10015TIP3    H251537   6.188   2.953   4.837  1.0036  0.4142 -0.5509
10016TIP3   OH251538   0.219   1.498   6.127 -0.1690 -0.0586  0.0170
10016TIP3    H151539   0.290   1.434   6.138  0.0211 -0.0832 -1.2062
10016TIP3    H251540   0.142   1.446   6.105 -0.6512 -0.0498  1.5658
10017TIP3   OH251541   5.726   1.191  16.112 -0.3469  0.1027 -0.5078
10017TIP3    H151542   5.747   1.260  16.176  0.8464 -1.4768  0.8867
10017TIP3    H251543   5.636   1.168  16.132  0.2555 -0.9596  1.2833
10018TIP3   OH251544   2.231   2.536   3.349 -0.8013 -0.3598  0.5415
10018TIP3    H151545   2.173   2.516   3.275 -0.6147  1.1406 -0.0517
10018TIP3    H251546   2.177   2.591   3.406  0.3754  2.3245 -0.7382
10019TIP3   OH251547   3.901   2.515   3.101  0.7622  0.2720  0.2811
10019TIP3    H151548   3.814   2.506   3.141  1.4909 -0.1060  1.8654
10019TIP3    H251549   3.953   2.562   3.167  2.0317 -0.3848 -0.2106
10020TIP3   OH251550   1.743   5.685   4.429  0.2538 -0.6902 -0.3468
10020TIP3    H151551   1.664   5.700   4.378 -1.1281 -0.9849  1.5951
10020TIP3    H251552   1.756   5.767   4.478  0.0393 -1.2861  0.7372
10021TIP3   OH251553   6.151   3.634  15.080  0.2226  0.0014 -0.4911
10021TIP3    H151554   6.121   3.693  15.149  0.5265  0.4341 -0.7229
10021TIP3    H251555   6.158   3.549  15.123  0.5402  0.2906  0.0446
10022TIP3   OH251556   4.234   4.580   5.637  0.2460  0.0747 -0.7555
10022TIP3    H151557   4.187   4.646   5.586  1.7048  1.7173 -0.0883
10022TIP3    H251558   4.269   4.520   5.571 -0.9818  0.0267 -1.3919
10023TIP3   OH251559   3.228   2.872   2.015 -0.0156  0.2232 -0.3868
10023TIP3    H151560   3.313   2.878   2.059 -0.7482  0.4613  1.0478
10023TIP3    H251561   3.202   2.780   2.025 -1.6417  0.9012  2.6162
10024TIP3   OH251562   4.577   6.250   6.005  0.5393 -0.0402 -0.6522
10024TIP3    H151563   4.547   6.171   5.961  1.5256 -1.9400  1.8817
10024TIP3    H251564   4.513   6.265   6.074  0.9754  0.7276 -0.4006
10025TIP3   OH251565   1.777   4.554   2.475  0.4852 -0.7356  0.2533
10025TIP3    H151566   1.870   4.577   2.468  1.1788 -3.3351  0.1161
10025TIP3    H251567   1.747   4.545   2.385  1.3569 -4.2020  0.1722
10026TIP3   OH251568   2.751   6.188  15.456 -0.4313  0.5337 -0.4814
10026TIP3    H151569   2.708   6.142  15.384  0.7561  0.7055 -1.3213
10026TIP3    H251570   2.697   6.168  15.533  0.0077 -2.2941 -0.7862
10027TIP3   OH251571   3.281   1.721   5.582  0.3418 -0.0982  0.1026
10027TIP3    H151572   3.363   1.681   5.611  1.0112  1.6827  0.8112
10027TIP3    H251573   3.217   1.650   5.586  1.5958 -1.2385  0.6874
10028TIP3   OH251574   3.425   5.285   1.982  0.3605 -0.3409 -0.1549
10028TIP3    H151575   3.444   5.353   1.917 -0.1233  1.3281  1.3464
10028TIP3    H251576   3.336   5.256   1.961 -0.4225  1.3288  0.6306
10029TIP3   OH251577   2.161   1.640   2.698 -0.0386 -0.2029  0.0931
10029TIP3    H151578   2.144   1.609   2.787  0.2278 -0.0577  0.1942
10029TIP3    H251579   2.165   1.735   2.706 -1.5282 -0.0784 -0.3273
10030TIP3   OH251580   2.551   4.812   0.004 -0.9197 -0.0344 -0.1253
10030TIP3    H151581   2.622   4.787  -0.055  0.0733 -2.4434  1.9029
10030TIP3    H251582   2.482   4.844  -0.053  0.4705 -0.9814 -2.4746
10031TIP3   OH251583   0.953   1.543  12.384 -0.1024 -0.0967 -0.0155
10031TIP3    H151584   0.870   1.554  12.336  0.3634 -2.3604 -1.5201
10031TIP3    H251585   0.963   1.624  12.433 -1.5296  1.6997 -2.4246
10032TIP3   OH251586   5.518   3.322  16.057  0.4347  0.4601 -0.2916
10032TIP3    H151587   5.473   3.240  16.037  0.9498 -0.1668  1.0052
10032TIP3    H251588   5.558   3.349  15.974  1.5841 -1.4256 -0.4043
10033TIP3   OH251589   3.435   3.813   2.349  0.6883  0.3963  0.1587
10033TIP3    H151590   3.418   3.853   2.263 -1.0441 -2.2670 -0.8584
10033TIP3    H251591   3.520   3.771   2.339  1.0096  1.0342  0.1479
10034TIP3   OH251592   2.159   5.184  14.221 -0.5563 -0.0601  0.4570
10034TIP3    H151593   2.112   5.102  14.236  0.0932 -0.6407 -0.5372
10034TIP3    H251594   2.099   5.237  14.170 -0.6539 -0.2632  0.3597
10035TIP3   OH251595   4.726   3.483   2.664  0.3804 -0.1096 -0.4251
10035TIP3    H151596   4.804   3.490   2.719 -0.6624 -1.2799  1.2971
10035TIP3    H251597   4.671   3.420   2.709 -1.2308  0.0899 -2.0229
10036TIP3   OH251598   3.413   2.654   0.081  0.3837 -0.8661  0.1412
10036TIP3    H151599   3.429   2.560   0.085 -0.1874 -1.0154 -0.6712
10036TIP3    H251600   3.323   2.665   0.111 -0.8212 -1.0360 -2.9568
10037TIP3   OH251601   6.357   6.774  11.840  0.3374 -0.1607 -0.4275
10037TIP3    H151602   6.321   6.863  11.848  0.2687 -0.1562 -0.7731
10037TIP3    H251603   6.429   6.784  11.777  1.4732 -0.0115  0.8530
10038TIP3   OH251604   0.401   2.497  10.436 -0.7505  0.0925 -0.1339
10038TIP3    H151605   0.394   2.536  10.349  0.3913 -1.3261 -0.8949
10038TIP3    H251606   0.323   2.530  10.483 -0.3493  2.4677 -0.9954
10039TIP3   OH251607   5.832   2.421   1.516 -0.5506 -0.5778 -0.2059
10039TIP3    H151608   5.740   2.411   1.542 -0.7604 -1.7819 -1.3476
10039TIP3    H251609   5.865   2.332   1.512 -0.1819 -0.3938 -2.7620
10040TIP3   OH251610   3.482   1.892   0.290 -0.8962  0.1432  0.5403
10040TIP3    H151611   3.424   1.832   0.336 -1.0269 -1.3866 -1.5049
10040TIP3    H251612   3.532   1.837   0.230  0.3478  1.8455 -0.0795
10041TIP3   OH251613   5.467   5.398  10.048  0.5804 -0.6642  0.3001
10041TIP3    H151614   5.422   5.329  10.096 -1.0248 -0.5040 -0.8571
10041TIP3    H251615   5.502   5.456  10.116  0.5260 -1.7298  1.2647
10042TIP3   OH251616   5.549   4.650   5.393 -0.3639  0.0063 -0.2126
10042TIP3    H151617   5.509   4.727   5.433  1.0984  0.3108  0.7069
10042TIP3    H251618   5.497   4.576   5.426 -3.5901  0.6514 -3.2728
10043TIP3   OH251619   1.554   1.858  12.251  0.3719 -0.1234  0.5337
10043TIP3    H151620   1.591   1.822  12.332  0.7370  0.2737  0.5492
10043TIP3    H251621   1.517   1.783  12.206  0.8719 -0.4724  0.6967
10044TIP3   OH251622   4.060   2.121  14.750 -0.1167  0.3205 -0.2583
10044TIP3    H151623   3.990   2.072  14.793  1.6957 -2.3204 -0.0748
10044TIP3    H251624   4.067   2.083  14.663  1.2132  0.3496 -0.1978
10045TIP3   OH251625   3.989   1.232   1.687 -0.7878 -0.0911  0.3527
10045TIP3    H151626   3.909   1.222   1.636 -1.4656  0.7087  1.2237
10045TIP3    H251627   3.982   1.319   1.727 -0.0275 -0.4620  1.3520
10046TIP3   OH251628   3.030   5.522  12.684 -0.1106  0.6675  0.0664
10046TIP3    H151629   2.970   5.460  12.643  0.4863  1.6805 -2.5236
10046TIP3    H251630   3.064   5.475  12.761  0.2898 -2.2185 -1.7236
10047TIP3   OH251631   2.136   5.769   2.932  0.0038 -0.1160  0.2218
10047TIP3    H151632   2.102   5.792   3.019  1.0794  1.9311  0.1740
10047TIP3    H251633   2.098   5.683   2.913 -0.5816 -0.4326  2.5291
10048TIP3   OH251634   1.961   6.694   3.490  0.6895 -0.0662  0.0371
10048TIP3    H151635   1.958   6.621   3.427 -0.3343 -0.9882  1.1039
10048TIP3    H251636   2.042   6.741   3.468  1.9871 -2.1723  0.0074
10049TIP3   OH251637   4.857   0.322   6.651  0.5746 -0.4228  0.2916
10049TIP3    H151638   4.952   0.329   6.645  0.6341 -1.8691 -1.1887
10049TIP3    H251639   4.841   0.229   6.665 -0.6232 -0.2595  0.0789
10050TIP3   OH251640   6.100   2.909   0.338  0.2585  0.5673 -0.3221
10050TIP3    H151641   6.034   2.855   0.382 -0.4580  0.0793 -1.9144
10050TIP3    H251642   6.170   2.848   0.316  0.0077  0.5301 -1.0297
10051TIP3   OH251643   5.961   2.970   1.894 -0.5531 -0.1793 -0.1654
10051TIP3    H151644   6.001   3.033   1.834 -0.5628  0.2873  0.3095
10051TIP3    H251645   5.894   2.926   1.842  0.4103 -0.8132 -0.9130
10052TIP3   OH251646   4.506   3.430  11.613 -0.1965 -0.0648 -0.3259
10052TIP3    H151647   4.498   3.417  11.707  1.1911 -2.3296 -0.4260
10052TIP3    H251648   4.419   3.412  11.578 -0.4565 -0.3266  0.4379
10053TIP3   OH251649   4.984   3.101  13.024  0.5642  0.2470 -0.0152
10053TIP3    H151650   4.937   3.027  13.062  0.7163  0.3135  0.3014
10053TIP3    H251651   5.040   3.062  12.958 -1.1405  0.3194 -1.5895
10054TIP3   OH251652   0.038   0.129   3.090 -0.3582 -0.4055 -0.1940
10054TIP3    H151653  -0.006   0.209   3.061 -1.1949 -0.7087  0.2038
10054TIP3    H251654  -0.032   0.063   3.095 -0.0137 -0.7008  1.1980
10055TIP3   OH251655   5.009   4.368  11.509  0.0847  0.2808  0.1175
10055TIP3    H151656   4.979   4.458  11.494 -1.4289 -0.0750  0.8129
10055TIP3    H251657   4.941   4.329  11.565  1.6679 -0.7052  1.4678
10056TIP3   OH251658   1.376   4.679   3.535 -0.7121 -0.1012 -0.2410
10056TIP3    H151659   1.299   4.704   3.586  0.5398  0.4677  1.4569
10056TIP3    H251660   1.424   4.620   3.592  0.2394 -0.2596 -1.1826
10057TIP3   OH251661   4.925   0.058  16.726 -0.2305 -0.3835 -0.4147
10057TIP3    H151662   5.019   0.046  16.733  0.5344  2.8405 -2.6913
10057TIP3    H251663   4.904   0.120  16.796 -0.5281 -0.4649 -0.4301
10058TIP3   OH251664   5.490   1.708   2.905 -0.2218  0.3476  0.2626
10058TIP3    H151665   5.428   1.741   2.840 -1.7997  0.4291  1.7376
10058TIP3    H251666   5.517   1.785   2.955  0.7899  0.2512 -0.1023
10059TIP3   OH251667   5.476   5.961  16.957 -0.4651 -0.0918 -0.1348
10059TIP3    H151668   5.557   5.911  16.944  0.9405  2.2123 -0.7448
10059TIP3    H251669   5.427   5.948  16.876 -1.4450 -2.6076  0.7571
10060TIP3   OH251670   1.933   3.500   4.887 -0.5137  0.3186 -0.9905
10060TIP3    H151671   1.932   3.404   4.886  0.7999  0.2602  0.4114
10060TIP3    H251672   2.011   3.523   4.938 -1.9984  2.1220  0.6164
10061TIP3   OH251673   0.810   4.086   2.984 -0.3003  0.5361  0.6089
10061TIP3    H151674   0.904   4.084   2.999 -0.4078  0.4430  1.3196
10061TIP3    H251675   0.800   4.103   2.890  0.4461 -1.9587  0.0206
10062TIP3   OH251676   0.134   5.099  11.855  0.0970  0.0577 -0.3564
10062TIP3    H151677   0.224   5.129  11.862  0.6825 -1.6354 -0.1928
10062TIP3    H251678   0.088   5.171  11.813  1.6295  0.7520 -0.9209
10063TIP3   OH251679   3.200   2.852  15.484 -0.1801 -0.2244 -0.1461
10063TIP3    H151680   3.253   2.909  15.428  0.3548 -0.1855  0.3956
10063TIP3    H251681   3.135   2.911  15.523 -0.7467 -0.3004 -0.9381
10064TIP3   OH251682   5.748   1.503  11.329  0.1071 -0.0869 -0.6289
10064TIP3    H151683   5.698   1.424  11.349 -0.8051  0.1689 -1.8124
10064TIP3    H251684   5.779   1.533  11.415 -2.2862  0.0896  0.2670
10065TIP3   OH251685   4.106   1.480  10.452 -0.4311  0.1870 -0.0107
10065TIP3    H151686   4.014   1.464  10.473  0.0736 -0.0127  2.3280
10065TIP3    H251687   4.150   1.399  10.477  0.2878 -0.1311 -2.1280
10066TIP3   OH251688   4.748   3.917   0.897 -0.2663 -0.4454  0.2622
10066TIP3    H151689   4.831   3.935   0.940 -1.0651  2.5069  0.7977
10066TIP3    H251690   4.739   3.822   0.900  3.1578 -0.8780 -0.0619
10067TIP3   OH251691   1.580   3.779   5.084 -0.3327  0.1308  0.2716
10067TIP3    H151692   1.497   3.754   5.045  0.9169 -2.4587 -0.9890
10067TIP3    H251693   1.601   3.863   5.042 -0.7550 -0.8223 -2.0360
10068TIP3   OH251694   1.047   3.219  16.192 -0.0457 -0.2868  0.3002
10068TIP3    H151695   0.986   3.288  16.215  0.7551  0.2791  0.7816
10068TIP3    H251696   1.075   3.239  16.103  0.2043  0.0220  0.4493
10069TIP3   OH251697   4.614   0.451   5.216  0.2551  0.6783 -0.2679
10069TIP3    H151698   4.609   0.544   5.193 -1.0408  0.7461  0.1690
10069TIP3    H251699   4.650   0.450   5.305  1.4055  0.6799 -0.7304
10070TIP3   OH251700   1.326   0.779   3.062  0.3175 -0.2528  0.0826
10070TIP3    H151701   1.419   0.791   3.082  0.4013 -0.2138 -0.3262
10070TIP3    H251702   1.302   0.699   3.109  0.6126 -0.3855  0.0100
10071TIP3   OH251703   5.765   1.851  14.186 -0.3734  0.1484 -0.1682
10071TIP3    H151704   5.809   1.770  14.213 -2.5433 -0.6707  1.1015
10071TIP3    H251705   5.722   1.882  14.265 -2.1143  0.8685 -1.3441
10072TIP3   OH251706   2.439   4.341  12.091  0.0005 -0.2730  0.1429
10072TIP3    H151707   2.464   4.386  12.010 -0.9263  0.8600  0.4488
10072TIP3    H251708   2.362   4.289  12.067  0.2191 -0.5813  0.1104
10073TIP3   OH251709   4.170   3.043   6.649  0.6301  0.0551  0.0054
10073TIP3    H151710   4.139   2.991   6.575  2.4374  2.5722 -2.7938
10073TIP3    H251711   4.094   3.095   6.675  0.2143 -0.1403 -0.7842
10074TIP3   OH251712   4.465   5.890  11.422 -0.3023  0.5669  0.6746
10074TIP3    H151713   4.523   5.853  11.355  0.2563 -0.8814  1.8931
10074TIP3    H251714   4.420   5.962  11.378 -0.5618 -0.8333 -1.5146
10075TIP3   OH251715   2.061   5.978  12.709 -0.1455  0.6381 -0.3173
10075TIP3    H151716   2.116   6.023  12.646 -0.7961  0.2269 -1.2017
10075TIP3    H251717   2.103   5.892  12.721 -1.0789 -0.0581 -1.7400
10076TIP3   OH251718   2.896   4.048  11.107  0.5251 -0.3079 -0.2754
10076TIP3    H151719   2.959   4.120  11.105  0.7373 -0.4111  1.4875
10076TIP3    H251720   2.915   3.998  11.027  2.6892 -0.3233  0.1793
10077TIP3   OH251721   5.028   4.169   4.185  0.2509  0.1917 -0.5047
10077TIP3    H151722   5.074   4.088   4.168 -0.6611 -0.2189 -1.1139
10077TIP3    H251723   5.042   4.186   4.278 -0.4402 -1.2554 -0.1016
10078TIP3   OH251724   5.436   4.682  10.910 -0.2536  0.4663 -0.1748
10078TIP3    H151725   5.439   4.757  10.851  0.0589 -0.4003 -1.2917
10078TIP3    H251726   5.528   4.663  10.930 -0.3822  1.3352  1.3862
10079TIP3   OH251727   6.676   2.452  16.499 -0.1009  0.0298 -0.1579
10079TIP3    H151728   6.764   2.463  16.535  0.3296 -0.4909 -1.0252
10079TIP3    H251729   6.636   2.539  16.508  0.7445  0.4558 -0.3851
10080TIP3   OH251730   1.213   5.258   2.804  0.1826 -0.0297 -0.2349
10080TIP3    H151731   1.151   5.326   2.780  0.2749  0.0903 -0.1366
10080TIP3    H251732   1.255   5.232   2.722 -1.1854 -1.3004 -0.5707
10081TIP3   OH251733   1.361   5.168  14.994 -0.4333 -0.1016  0.4069
10081TIP3    H151734   1.436   5.229  14.989 -0.0070 -0.6232  0.3687
10081TIP3    H251735   1.376   5.119  15.075 -2.2771  1.7694  1.9978
10082TIP3   OH251736   1.076   5.039   4.870 -0.0513 -0.2367  0.2791
10082TIP3    H151737   1.062   5.038   4.775 -0.4352  0.6562  0.3155
10082TIP3    H251738   1.171   5.046   4.880 -0.1007  1.5674 -0.0893
10083TIP3   OH251739   4.462   3.368  11.067 -0.3514  0.5588  0.8487
10083TIP3    H151740   4.375   3.402  11.088 -0.4874  0.6952  0.0771
10083TIP3    H251741   4.517   3.394  11.141 -0.8383  0.9529  1.0737
10084TIP3   OH251742   2.373   4.729   1.449  0.4916  0.2292  0.4652
10084TIP3    H151743   2.385   4.714   1.355  1.2309 -0.1272  0.6051
10084TIP3    H251744   2.368   4.824   1.457  0.3081  0.2594  0.0500
10085TIP3   OH251745   1.420   0.908  16.051 -0.8525  0.2962 -0.0352
10085TIP3    H151746   1.435   0.977  15.986  0.4942  2.4759  2.3883
10085TIP3    H251747   1.504   0.862  16.058 -1.1444 -0.2721 -0.1832
10086TIP3   OH251748   5.684   5.240   4.351 -0.7040  0.1689  0.2278
10086TIP3    H151749   5.729   5.158   4.332 -1.2190 -0.2387  0.7303
10086TIP3    H251750   5.685   5.288   4.268 -3.4602 -1.8044 -1.0831
10087TIP3   OH251751   4.155   2.166  14.161  0.8591  0.3096  0.2506
10087TIP3    H151752   4.230   2.150  14.104  1.8138  1.5940  1.1188
10087TIP3    H251753   4.153   2.090  14.220  0.8288 -0.2349 -0.4378
10088TIP3   OH251754   2.595   1.631  14.574 -0.2798 -0.3074  0.2896
10088TIP3    H151755   2.565   1.545  14.604  0.0601 -0.4888  0.1209
10088TIP3    H251756   2.644   1.612  14.494  0.4581 -0.0453  0.6756
10089TIP3   OH251757   1.345   2.841   5.706  0.2255 -0.2461  0.2733
10089TIP3    H151758   1.279   2.786   5.749  0.4089  0.0472  0.9402
10089TIP3    H251759   1.310   2.855   5.618 -0.8616  0.3377  0.7736
10090TIP3   OH251760   4.682   6.469   4.225 -0.4345  0.3431 -0.5014
10090TIP3    H151761   4.717   6.457   4.136 -0.5772  1.3274 -0.7000
10090TIP3    H251762   4.619   6.399   4.236 -0.4274  0.2254 -1.1888
10091TIP3   OH251763   0.455   0.387  14.122  0.1137 -0.7490 -0.5883
10091TIP3    H151764   0.361   0.396  14.137  0.4234  2.2056  0.3192
10091TIP3    H251765   0.464   0.383  14.027 -0.9645 -2.7603 -0.6543
10092TIP3   OH251766   1.577   0.401   1.939 -0.2949 -0.0423  0.5105
10092TIP3    H151767   1.541   0.399   2.028 -1.6829  1.8371  0.0515
10092TIP3    H251768   1.501   0.391   1.882  0.2858  0.9596 -0.4806
10093TIP3   OH251769   4.412   2.567  12.254 -0.2782 -0.3478 -0.2160
10093TIP3    H151770   4.400   2.510  12.330 -0.7571  0.7165  0.5358
10093TIP3    H251771   4.326   2.571  12.212 -0.1855 -0.3811 -0.4120
10094TIP3   OH251772   0.976   4.199   4.539  0.4670  0.4952 -0.1595
10094TIP3    H151773   0.986   4.137   4.611  1.0685 -0.2395 -0.8488
10094TIP3    H251774   1.008   4.282   4.574  1.2092  0.0374  0.2854
10095TIP3   OH251775   3.923   0.267   3.732  0.7870 -0.4974  0.2866
10095TIP3    H151776   4.005   0.223   3.751  1.5087  0.4441 -0.5378
10095TIP3    H251777   3.940   0.316   3.652 -0.2169  0.6209  0.7247
10096TIP3   OH251778   5.933   2.132   6.499 -0.5658 -0.1020  0.4331
10096TIP3    H151779   5.917   2.115   6.592 -1.3669  0.8475  0.4855
10096TIP3    H251780   5.849   2.164   6.466 -0.1790 -0.0624 -0.5341
10097TIP3   OH251781   5.905   3.581   3.580  0.9892  0.1465  0.3399
10097TIP3    H151782   5.940   3.623   3.501  1.6885  0.6773  0.9157
10097TIP3    H251783   5.825   3.629   3.600  0.4673 -0.4026 -0.4022
10098TIP3   OH251784   1.459   2.198  12.851 -0.0571  0.4332  0.3355
10098TIP3    H151785   1.451   2.269  12.787  0.4463 -1.7331 -2.3375
10098TIP3    H251786   1.369   2.169  12.865 -0.1946  1.0821  0.8428
10099TIP3   OH251787   1.205   1.928   0.646  0.6035  0.3162 -0.3540
10099TIP3    H151788   1.219   1.867   0.573  0.8558  0.1154 -0.1404
10099TIP3    H251789   1.278   1.990   0.640  0.8040  0.1091 -0.0841
10100TIP3   OH251790   5.397   2.805  13.681  0.4351 -0.1668 -0.3991
10100TIP3    H151791   5.362   2.739  13.741 -1.4715 -0.4165 -1.6968
10100TIP3    H251792   5.473   2.763  13.641  0.4115 -0.8257  0.2177
10101TIP3   OH251793   4.872   2.863  13.698 -0.0316 -0.1572  0.5859
10101TIP3    H151794   4.867   2.914  13.779 -0.1678  0.9099 -0.0677
10101TIP3    H251795   4.910   2.924  13.634  1.4490 -1.4431  0.1913
10102TIP3   OH251796   2.449   4.933   4.703 -0.3907 -0.0465  0.2031
10102TIP3    H151797   2.498   4.852   4.711  0.9241  0.4413 -2.0376
10102TIP3    H251798   2.387   4.917   4.631 -0.3032  0.8245 -0.0817
10103TIP3   OH251799   2.171   0.886  12.071  0.6286 -0.0456 -0.2814
10103TIP3    H151800   2.156   0.835  11.992 -1.9928  1.6408 -0.9909
10103TIP3    H251801   2.083   0.906  12.104  1.5915  2.1030  1.1759
10104TIP3   OH251802   0.619   1.248   2.323  0.2475 -0.2983 -0.4438
10104TIP3    H151803   0.594   1.159   2.296  0.1827 -0.4358  0.0517
10104TIP3    H251804   0.691   1.234   2.385 -0.9149 -0.1131  1.0094
10105TIP3   OH251805   3.260   5.662  15.927 -0.4908  0.1768  0.3275
10105TIP3    H151806   3.337   5.645  15.873 -0.5458  1.2356 -0.0999
10105TIP3    H251807   3.190   5.681  15.865 -0.5096  1.5842  0.7517
10106TIP3   OH251808   1.898   5.792  13.022  0.2447  0.5867  0.0915
10106TIP3    H151809   1.873   5.812  12.932  0.2203  1.4305  0.2750
10106TIP3    H251810   1.965   5.857  13.043  0.3925  0.2692  0.6115
10107TIP3   OH251811   5.772   2.624   2.990  0.4258 -0.4004  0.0050
10107TIP3    H151812   5.679   2.604   3.002  0.5332 -0.1225  1.5509
10107TIP3    H251813   5.818   2.554   3.035  0.8742  0.8046  1.5518
10108TIP3   OH251814   5.577   6.788  10.538  0.3196  0.2705 -0.2814
10108TIP3    H151815   5.602   6.879  10.523 -1.0461  0.9620  1.3023
10108TIP3    H251816   5.482   6.787  10.527  0.4510 -1.3171 -1.7309
10109TIP3   OH251817   3.481   2.126  13.753 -0.0127 -0.1294  0.1860
10109TIP3    H151818   3.530   2.136  13.671 -0.7382  0.3945 -0.1984
10109TIP3    H251819   3.548   2.120  13.821  0.5845  0.5379 -0.3305
10110TIP3   OH251820   1.441   0.859  11.779  0.2340  0.4072  0.6695
10110TIP3    H151821   1.422   0.818  11.694 -1.3460  4.4845 -1.2562
10110TIP3    H251822   1.536   0.859  11.785  0.3407 -1.8742  0.0210
10111TIP3   OH251823   5.635   0.881   5.551  0.4145  0.6832 -0.4701
10111TIP3    H151824   5.667   0.796   5.519  0.9800 -0.2721  2.3775
10111TIP3    H251825   5.541   0.878   5.536  0.5009 -0.2247 -0.8962
10112TIP3   OH251826   4.196   1.380  10.988  0.4142 -0.0087  0.3984
10112TIP3    H151827   4.283   1.407  10.957  1.2451 -1.5412  1.3152
10112TIP3    H251828   4.156   1.337  10.912  0.8172 -0.0977  0.2331
10113TIP3   OH251829   1.285   4.241   4.233  0.0138  0.3515  0.2273
10113TIP3    H151830   1.354   4.227   4.168 -2.3933  0.4571 -2.5622
10113TIP3    H251831   1.298   4.172   4.297  2.5373  0.2321 -0.3256
10114TIP3   OH251832   5.408   6.268  11.751  0.0856  0.1479  0.1986
10114TIP3    H151833   5.413   6.230  11.838 -1.5237  0.1629  0.3272
10114TIP3    H251834   5.418   6.362  11.764  2.5912 -0.0310  0.0352
10115TIP3   OH251835   4.434   1.534   1.746 -0.5474 -0.0302  0.5206
10115TIP3    H151836   4.507   1.538   1.685 -0.0407 -1.7784  0.9699
10115TIP3    H251837   4.370   1.477   1.702 -0.8701  0.0198  0.9228
10116TIP3   OH251838   1.323   3.698   4.927  0.3471 -0.3723  0.1188
10116TIP3    H151839   1.331   3.793   4.914  1.1776 -0.1875  1.6932
10116TIP3    H251840   1.232   3.679   4.905  0.1674  0.7901 -0.2466
10117TIP3   OH251841   2.292   6.729   5.189  0.3553 -0.1255 -0.1661
10117TIP3    H151842   2.385   6.746   5.176  0.3512  0.1297  0.1212
10117TIP3    H251843   2.278   6.745   5.283  0.2455 -1.1966  0.0100
10118TIP3   OH251844   6.151   1.176  11.872 -0.3629 -0.1292 -0.4960
10118TIP3    H151845   6.151   1.227  11.953  0.1879 -3.0700  1.5150
10118TIP3    H251846   6.063   1.139  11.867 -0.1324 -0.6465 -0.7708
10119TIP3   OH251847   6.046   6.363   2.346  0.2044 -0.1853 -0.7248
10119TIP3    H151848   5.975   6.305   2.372 -1.0925  2.4689  2.2657
10119TIP3    H251849   6.005   6.425   2.285 -0.0059  1.0143  0.5803
10120TIP3   OH251850   5.295   1.404   0.339 -0.4281 -0.0422  0.7920
10120TIP3    H151851   5.367   1.341   0.344 -1.3318 -1.5102 -2.3071
10120TIP3    H251852   5.299   1.439   0.250 -2.5343  1.1377  1.0843
10121TIP3   OH251853   4.908   3.014  16.433 -0.2415 -0.0789 -0.3996
10121TIP3    H151854   4.973   3.084  16.438 -0.1224 -0.2341  0.3457
10121TIP3    H251855   4.831   3.055  16.392  0.7783 -0.2534 -2.6154
10122TIP3   OH251856   4.812   1.125   4.301 -0.1029  0.3569  0.3195
10122TIP3    H151857   4.765   1.121   4.384 -0.1467  1.3630  0.3573
10122TIP3    H251858   4.879   1.192   4.315 -0.4520  0.9128 -0.6279
10123TIP3   OH251859   6.670   5.493  16.225  0.2210 -0.3293  0.0660
10123TIP3    H151860   6.715   5.524  16.146  3.8146 -0.1152  1.9803
10123TIP3    H251861   6.686   5.399  16.227 -2.6391 -0.9422 -0.9533
10124TIP3   OH251862   3.457   3.422  12.504  0.0414  0.6749  0.2361
10124TIP3    H151863   3.552   3.426  12.493 -0.1274  0.4679 -1.5173
10124TIP3    H251864   3.445   3.399  12.597  1.7867 -2.3786 -0.1387
10125TIP3   OH251865   3.908   6.696  16.096 -0.2382  0.0389  0.3340
10125TIP3    H151866   3.946   6.615  16.131  0.6529  0.4784  0.4064
10125TIP3    H251867   3.818   6.696  16.128 -0.3905 -1.1409 -0.0338
10126TIP3   OH251868   2.543   5.262   0.826 -0.0853  0.7674  0.3158
10126TIP3    H151869   2.505   5.186   0.782  2.1745  0.7095 -1.7272
10126TIP3    H251870   2.514   5.337   0.773 -1.3037  1.2670  1.6210
10127TIP3   OH251871   6.735   5.439   3.454 -0.6918  0.2153 -0.2058
10127TIP3    H151872   6.793   5.369   3.482  0.3710  1.0229 -0.3264
10127TIP3    H251873   6.665   5.440   3.519 -0.1226 -0.2191  0.4251
10128TIP3   OH251874   0.888   2.983   0.526 -0.1536 -0.2295  0.2719
10128TIP3    H151875   0.912   2.891   0.539 -1.1253 -0.1745  3.0329
10128TIP3    H251876   0.917   3.027   0.606 -1.2342  1.5377 -0.2631
10129TIP3   OH251877   4.036   0.173  11.976 -0.8029  0.0154 -0.5851
10129TIP3    H151878   4.115   0.191  11.924 -1.4311  1.8151 -1.0127
10129TIP3    H251879   3.990   0.257  11.978 -1.6134 -0.4295  1.5498
10130TIP3   OH251880   3.255   0.057  11.213  0.1059  0.0895  0.2631
10130TIP3    H151881   3.298  -0.025  11.236  0.6330  0.2280 -0.2167
10130TIP3    H251882   3.246   0.055  11.118  1.2500  1.1097  0.0976
10131TIP3   OH251883   2.138   5.424  16.773  0.1100  0.1263 -0.4884
10131TIP3    H151884   2.072   5.476  16.727  0.5332 -0.0874 -1.3662
10131TIP3    H251885   2.104   5.416  16.862 -1.2878 -0.3706 -1.0318
10132TIP3   OH251886   6.840   6.795  14.067 -0.0012  0.1250  0.1850
10132TIP3    H151887   6.915   6.835  14.021 -1.5698  1.4415 -1.3670
10132TIP3    H251888   6.791   6.869  14.102 -1.6632 -0.5405 -0.6155
10133TIP3   OH251889   1.280   4.909   1.716 -0.2366  1.0327 -0.4362
10133TIP3    H151890   1.348   4.969   1.686 -0.1094  1.4874  0.7048
10133TIP3    H251891   1.213   4.912   1.648  0.5653  1.1084 -1.2440
10134TIP3   OH251892   3.334   4.783  15.670 -0.4696  0.2468 -0.6166
10134TIP3    H151893   3.305   4.863  15.627 -1.8620  0.1546  0.1051
10134TIP3    H251894   3.427   4.799  15.689 -1.0694  2.3359  0.8920
10135TIP3   OH251895   3.338   1.668   6.588  0.0328 -0.3095 -0.2179
10135TIP3    H151896   3.354   1.761   6.599  0.3113 -0.5931  2.4594
10135TIP3    H251897   3.402   1.640   6.523  0.9736  1.1256  0.0595
10136TIP3   OH251898   0.469   2.457  12.966  0.3408 -0.2320 -0.5379
10136TIP3    H151899   0.435   2.463  13.056  0.4898 -1.4340 -0.3973
10136TIP3    H251900   0.472   2.364  12.947  1.1987 -0.0320 -1.4697
10137TIP3   OH251901   4.523   0.938  15.444  0.1984 -0.2218 -0.3848
10137TIP3    H151902   4.611   0.947  15.406  1.0618 -0.6700  1.3959
10137TIP3    H251903   4.496   0.849  15.420  0.9291 -0.6674  0.3669
10138TIP3   OH251904   2.485   3.266   6.132 -0.3771  0.0879  0.7350
10138TIP3    H151905   2.427   3.332   6.170 -0.1711 -0.2058  1.5643
10138TIP3    H251906   2.514   3.213   6.206 -0.6038 -0.9955  0.0723
10139TIP3   OH251907   5.655   4.908  14.730 -0.6380  0.0228  0.3052
10139TIP3    H151908   5.569   4.899  14.689 -0.0427 -0.9180 -0.7948
10139TIP3    H251909   5.712   4.851  14.678  0.6608  0.6645  0.9949
10140TIP3   OH251910   3.030   0.115  14.770  0.3951 -0.7739  0.0289
10140TIP3    H151911   2.961   0.050  14.764  1.1177 -1.4394 -1.4810
10140TIP3    H251912   3.005   0.183  14.708 -0.3815  0.4602  1.6349
10141TIP3   OH251913   5.787   2.688   4.504 -0.0061  0.0122  0.0484
10141TIP3    H151914   5.853   2.715   4.440  0.2650 -0.5604  0.0743
10141TIP3    H251915   5.806   2.596   4.520  0.3587  0.3046  1.4600
10142TIP3   OH251916   2.440   6.540   5.031  0.2044 -0.3352 -0.1267
10142TIP3    H151917   2.367   6.572   5.083  3.0454  2.0649  2.8234
10142TIP3    H251918   2.424   6.574   4.943 -2.5572 -0.6378  0.1784
10143TIP3   OH251919   0.871   0.294  14.873  0.3841 -0.3505  0.3120
10143TIP3    H151920   0.797   0.249  14.831  0.8788  2.0025 -3.5534
10143TIP3    H251921   0.940   0.228  14.877 -0.3800 -1.2491 -0.6916
10144TIP3   OH251922   3.259   0.567   3.190 -0.2980 -0.2614  0.4498
10144TIP3    H151923   3.184   0.519   3.156 -0.7834  0.7474  0.0737
10144TIP3    H251924   3.293   0.616   3.115 -0.5957  0.9829  1.0989
10145TIP3   OH251925   4.121   0.643  16.725  0.4975  0.9856  0.1975
10145TIP3    H151926   4.138   0.736  16.709  5.4217  1.0924  3.7627
10145TIP3    H251927   4.075   0.641  16.810 -0.8283  0.0803 -0.4980
10146TIP3   OH251928   1.068   5.523  13.709 -0.6424  0.0491 -0.2217
10146TIP3    H151929   1.028   5.460  13.649 -0.1736 -0.0761 -0.3996
10146TIP3    H251930   1.031   5.608  13.683  0.4501  0.1748 -1.4736
10147TIP3   OH251931   2.480   1.701   2.813  0.7528 -0.4379  0.4896
10147TIP3    H151932   2.392   1.692   2.776  0.7082  1.5589  0.0240
10147TIP3    H251933   2.466   1.743   2.898  1.2931  0.4357  0.1526
10148TIP3   OH251934   0.253   6.448   3.764  0.5547  0.0410 -0.0144
10148TIP3    H151935   0.274   6.424   3.674 -1.5810 -0.1707 -0.5150
10148TIP3    H251936   0.204   6.529   3.756 -0.9028 -0.7171  0.7900
10149TIP3   OH251937   2.417   5.858  11.182  0.0439 -0.2098 -0.2011
10149TIP3    H151938   2.464   5.941  11.177  0.7830 -0.6990 -2.1557
10149TIP3    H251939   2.335   5.874  11.136  0.4903 -0.7195 -1.2124
10150TIP3   OH251940   1.511   1.420   3.629  0.0947 -0.7575  0.3437
10150TIP3    H151941   1.422   1.439   3.659  0.5280  0.3265  1.0142
10150TIP3    H251942   1.520   1.471   3.548 -0.0081 -1.1350  0.0953
10151TIP3   OH251943   0.590   1.083  13.157 -0.1051 -0.3745  0.3248
10151TIP3    H151944   0.532   1.096  13.232 -0.9270 -0.6509 -0.2391
10151TIP3    H251945   0.620   1.171  13.134 -0.6808 -0.1724  0.3312
10152TIP3   OH251946   0.995   6.237   5.330 -0.1398 -0.2600  0.2628
10152TIP3    H151947   0.973   6.327   5.309  2.0546  0.0434 -1.0316
10152TIP3    H251948   0.934   6.184   5.278  0.5450  0.5174 -1.4109
10153TIP3   OH251949   6.693   6.764   3.112  0.2622 -0.6154 -0.6119
10153TIP3    H151950   6.755   6.731   3.178 -0.3948  2.4203  1.7461
10153TIP3    H251951   6.607   6.735   3.144  0.0309 -0.1613 -0.8161
10154TIP3   OH251952   0.873   3.785   2.089 -0.3417 -0.1432 -0.2140
10154TIP3    H151953   0.967   3.792   2.076 -0.1381 -1.9650  0.0025
10154TIP3    H251954   0.840   3.743   2.010 -1.2384  1.8427 -0.9614
10155TIP3   OH251955   1.730   1.321  14.781 -0.0905 -0.0129  0.3239
10155TIP3    H151956   1.815   1.319  14.825 -0.6622 -0.1702  1.4657
10155TIP3    H251957   1.719   1.412  14.753  0.2044  0.1304  0.6678
10156TIP3   OH251958   6.011   0.279  15.180 -0.4862 -0.0548 -0.3038
10156TIP3    H151959   5.921   0.260  15.152  0.9046 -2.1734 -3.9421
10156TIP3    H251960   6.045   0.194  15.209  1.6661 -0.4351 -3.5100
10157TIP3   OH251961   4.315   0.177  12.083  0.4051 -0.4044  0.5183
10157TIP3    H151962   4.275   0.168  11.997  0.5830  0.7349  0.2963
10157TIP3    H251963   4.294   0.266  12.110  0.4629 -0.7081  1.6022
10158TIP3   OH251964   0.132   3.636  13.267 -0.3734  0.1245 -0.0554
10158TIP3    H151965   0.130   3.546  13.235 -1.4230  0.5157 -1.1844
10158TIP3    H251966   0.050   3.675  13.235 -0.1847  1.3409  0.8393
10159TIP3   OH251967   3.878   1.683  11.206  0.3574  0.5235  0.3798
10159TIP3    H151968   3.962   1.729  11.216  1.5679 -1.5948  0.4998
10159TIP3    H251969   3.880   1.614  11.272  0.3829 -2.1024 -2.1439
10160TIP3   OH251970   5.899   4.522   0.910  0.3288  0.2444  0.1860
10160TIP3    H151971   5.914   4.433   0.876  1.6270 -0.3970  2.2729
10160TIP3    H251972   5.833   4.510   0.978 -1.9701  1.4571 -1.6850
10161TIP3   OH251973   0.664   1.384   6.253  0.2063  0.0566 -0.3208
10161TIP3    H151974   0.740   1.399   6.197  0.0536  0.6043 -0.3869
10161TIP3    H251975   0.700   1.345   6.333  0.8211  1.9625  0.4091
10162TIP3   OH251976   4.099   1.332  11.407 -0.0068  0.3144  0.4400
10162TIP3    H151977   4.057   1.368  11.328  2.0280 -1.4962 -1.5851
10162TIP3    H251978   4.117   1.241  11.385  0.7849 -0.2064  2.9798
10163TIP3   OH251979   2.901   4.426   5.445 -0.6517  0.0779 -0.2172
10163TIP3    H151980   2.828   4.381   5.403 -1.3338 -0.3152  1.3121
10163TIP3    H251981   2.862   4.470   5.521  0.5885  0.4055  0.2633
10164TIP3   OH251982   4.449   1.391  15.763 -0.8120  0.2635  0.6121
10164TIP3    H151983   4.441   1.312  15.709 -2.1091 -0.4352  1.7447
10164TIP3    H251984   4.390   1.454  15.722 -0.6114  0.2687  0.3302
10165TIP3   OH251985   1.100   0.933  15.072 -0.4555 -0.2203 -0.5453
10165TIP3    H151986   1.034   0.863  15.065 -1.1792  0.4113 -0.1238
10165TIP3    H251987   1.049   1.013  15.082  0.3734  0.3754 -0.9912
10166TIP3   OH251988   1.852   0.987  15.392  0.2266 -0.3233  0.5395
10166TIP3    H151989   1.772   0.980  15.444  0.5386 -0.1536  1.0591
10166TIP3    H251990   1.868   0.898  15.360  0.8790 -0.7840  2.0564
10167TIP3   OH251991   3.409   0.626  12.503  0.6095  0.5741  0.3991
10167TIP3    H151992   3.429   0.683  12.428 -0.1054 -0.6597 -0.7634
10167TIP3    H251993   3.495   0.598  12.534  0.9204  1.2212  0.1618
10168TIP3   OH251994   5.876   3.278   4.964 -0.0939  0.0643 -0.3061
10168TIP3    H151995   5.859   3.184   4.963 -0.1988 -0.0483  2.7913
10168TIP3    H251996   5.971   3.286   4.972 -0.1695  0.1682  0.5688
10169TIP3   OH251997   3.836   6.378   2.745 -0.2386 -0.5335 -0.1131
10169TIP3    H151998   3.822   6.353   2.836 -0.8170 -1.6771 -0.4854
10169TIP3    H251999   3.875   6.300   2.705 -1.8203 -0.7827 -1.2693
10170TIP3   OH252000   2.746   3.971   1.355  0.0219 -0.1107  0.3730
10170TIP3    H152001   2.820   4.030   1.365 -0.4347  0.4526  0.4722
10170TIP3    H252002   2.696   4.007   1.281  0.5217 -1.2080 -0.5213
10171TIP3   OH252003   2.592   1.457   1.825  0.2131  0.3094  0.0135
10171TIP3    H152004   2.674   1.451   1.777 -0.0996 -0.4980 -0.4549
10171TIP3    H252005   2.588   1.374   1.874 -0.9162 -0.2461 -0.9751
10172TIP3   OH252006   4.074   6.388  15.458 -0.2242 -0.0817  0.0870
10172TIP3    H152007   4.012   6.354  15.522 -1.8124 -3.4716 -2.8542
10172TIP3    H252008   4.019   6.418  15.385  1.5106  2.1683 -0.4018
10173TIP3   OH252009   2.283   0.054   3.949 -0.0302 -0.4010 -0.0184
10173TIP3    H152010   2.240   0.137   3.968  0.5790  0.6361 -2.7478
10173TIP3    H252011   2.304   0.017   4.035 -3.0019  0.7716  1.3288
10174TIP3   OH252012   2.608   4.437  12.426  0.1312 -0.2512 -0.0407
10174TIP3    H152013   2.657   4.374  12.374  1.5556  0.8567 -0.0937
10174TIP3    H252014   2.621   4.410  12.516 -1.2687 -1.4145 -0.1578
10175TIP3   OH252015   2.591   6.699   1.653  0.1671 -0.5431  0.1476
10175TIP3    H152016   2.566   6.703   1.745 -2.5107 -0.7527 -0.4898
10175TIP3    H252017   2.527   6.640   1.613  1.3782 -0.6193 -1.8197
10176TIP3   OH252018   5.178   4.672   1.348  0.3065 -0.6055 -0.1624
10176TIP3    H152019   5.254   4.714   1.389  1.4290 -3.0301  0.4076
10176TIP3    H252020   5.207   4.656   1.258 -0.2262  0.0766 -0.4606
10177TIP3   OH252021   2.784   3.741  15.624 -0.8202 -0.0576  0.1208
10177TIP3    H152022   2.815   3.718  15.711  1.6754  0.1469 -0.6251
10177TIP3    H252023   2.803   3.834  15.615 -0.1010 -0.2781 -0.9543
10178TIP3   OH252024   1.841   2.601  16.710  0.3232  0.3654 -0.5940
10178TIP3    H152025   1.761   2.649  16.690 -0.9994 -0.6372  1.9227
10178TIP3    H252026   1.815   2.509  16.713  1.5509  0.0123  0.2916
10179TIP3   OH252027   6.444   4.050   3.923  0.3518 -0.1308  0.6435
10179TIP3    H152028   6.505   4.009   3.984  0.3734 -2.8759 -1.0411
10179TIP3    H252029   6.391   3.977   3.890  0.3893  1.1569 -2.6242
10180TIP3   OH252030   4.912   0.260  10.757  0.4478 -0.3307  0.5096
10180TIP3    H152031   4.841   0.324  10.759  1.5325  1.0321 -1.2994
10180TIP3    H252032   4.990   0.309  10.783  1.1319 -1.1904  0.1551
10181TIP3   OH252033   6.196   5.538  16.206  0.1816 -0.4082 -0.3829
10181TIP3    H152034   6.211   5.450  16.240 -0.0314  0.0041  0.8164
10181TIP3    H252035   6.144   5.582  16.273 -1.5153  0.0001 -1.8875
10182TIP3   OH252036   4.232   1.099  16.788  0.0829 -0.2700  0.1625
10182TIP3    H152037   4.236   1.096  16.884  1.7414 -0.1693  0.1310
10182TIP3    H252038   4.153   1.149  16.769 -0.3912 -0.4803  1.4724
10183TIP3   OH252039   5.541   4.821  15.908 -0.4088 -0.0062 -0.1389
10183TIP3    H152040   5.524   4.849  15.818  2.7286 -0.8511 -1.1391
10183TIP3    H252041   5.550   4.903  15.957 -1.5355  0.4825 -0.7256
10184TIP3   OH252042   5.346   3.827  13.003 -0.0029 -0.6068 -0.2166
10184TIP3    H152043   5.350   3.747  12.949 -0.3004 -0.0190 -1.1392
10184TIP3    H252044   5.432   3.867  12.993 -0.6665  0.5169 -1.8991
10185TIP3   OH252045   4.721   6.140  15.230  0.0020 -1.1657 -0.1003
10185TIP3    H152046   4.759   6.057  15.202 -1.2077 -1.7426 -0.0912
10185TIP3    H252047   4.767   6.162  15.311  2.1953 -0.4479 -1.4661
10186TIP3   OH252048   0.954   3.200   1.735  0.3853 -0.1211  0.0824
10186TIP3    H152049   1.014   3.273   1.751  1.6072 -0.8873 -0.8164
10186TIP3    H252050   0.960   3.147   1.815  0.2138  0.2638  0.3540
10187TIP3   OH252051   5.268   0.092   0.501  0.1619 -0.2860 -0.2747
10187TIP3    H152052   5.227   0.135   0.576 -0.1514 -2.8183  1.0966
10187TIP3    H252053   5.197   0.041   0.461  1.1172 -1.8479 -0.0560
10188TIP3   OH252054   0.242   4.051   3.352  0.0164 -0.6367  0.3393
10188TIP3    H152055   0.165   4.075   3.403  2.8697  0.1653  4.7627
10188TIP3    H252056   0.236   3.956   3.342 -1.0868 -0.6910  1.4096
10189TIP3   OH252057   4.283   1.084  10.575 -0.3520  0.3160  0.1478
10189TIP3    H152058   4.320   1.172  10.567  0.1473  0.1572  0.6711
10189TIP3    H252059   4.189   1.098  10.591 -0.2779  0.7503  0.1925
10190TIP3   OH252060   5.037   0.925  13.934  0.2706 -0.5861 -0.1376
10190TIP3    H152061   4.973   0.990  13.902 -0.2228 -0.6008  0.7914
10190TIP3    H252062   5.088   0.902  13.856 -0.5216 -0.1882 -0.7961
10191TIP3   OH252063   2.336   0.644  14.514  0.5967 -0.7260 -0.2516
10191TIP3    H152064   2.364   0.720  14.565  0.3755  0.1884 -1.4465
10191TIP3    H252065   2.418   0.605  14.481  0.6671 -0.5107 -0.3288
10192TIP3   OH252066   5.726   0.126   3.546  0.3893 -0.0418 -0.4842
10192TIP3    H152067   5.748   0.159   3.633 -2.1483  1.2850 -0.2285
10192TIP3    H252068   5.778   0.178   3.486 -0.9138  2.0587  0.1063
10193TIP3   OH252069   2.711   1.532  13.376 -0.3402 -0.0032  0.8274
10193TIP3    H152070   2.799   1.494  13.386  0.0038 -0.1936 -2.0383
10193TIP3    H252071   2.721   1.623  13.403  1.7192  0.9147 -2.3642
10194TIP3   OH252072   2.669   2.240   0.140  0.3654  0.2224  0.3916
10194TIP3    H152073   2.598   2.265   0.199 -1.6550 -0.6877 -1.5266
10194TIP3    H252074   2.696   2.321   0.098 -0.4172  0.3971  0.2194
10195TIP3   OH252075   5.980   6.454  16.090  0.6540 -0.4896 -0.2544
10195TIP3    H152076   5.979   6.540  16.132  0.9527 -0.2693 -0.6900
10195TIP3    H252077   5.932   6.397  16.150 -1.2836  0.3950 -0.8894
10196TIP3   OH252078   2.339   3.558   2.676 -0.3419 -0.0788 -0.5801
10196TIP3    H152079   2.300   3.607   2.748 -0.1566 -0.3988 -0.2570
10196TIP3    H252080   2.290   3.585   2.599 -0.1968  0.6664 -0.4203
10197TIP3   OH252081   4.843   4.350   0.851  0.1300  0.0527  0.1373
10197TIP3    H152082   4.859   4.405   0.774 -0.1936 -1.3677 -0.9815
10197TIP3    H252083   4.792   4.276   0.817  2.4284 -2.1037  1.1166
10198TIP3   OH252084   1.120   3.701   4.224 -0.4002  0.0909 -0.1817
10198TIP3    H152085   1.209   3.683   4.253 -0.3769 -2.4629 -1.5889
10198TIP3    H252086   1.068   3.700   4.304  0.7653  1.6514  0.6659
10199TIP3   OH252087   6.604   3.512   3.829  0.3696 -0.5195  0.7343
10199TIP3    H152088   6.557   3.431   3.848  1.1146 -1.2147 -0.2653
10199TIP3    H252089   6.679   3.510   3.889  0.0505 -0.2441  1.1503
10200TIP3   OH252090   0.950   3.576  16.285 -0.1973  0.0901 -0.3215
10200TIP3    H152091   1.039   3.543  16.272 -0.6599 -2.2067  1.4854
10200TIP3    H252092   0.954   3.624  16.368 -0.3338  1.4354 -1.0697
10201TIP3   OH252093   2.030   2.697   3.466  0.1312 -0.1897 -0.0118
10201TIP3    H152094   2.011   2.669   3.555 -0.1878  1.5968  0.5251
10201TIP3    H252095   1.951   2.674   3.416  1.1284 -3.1368 -0.3702
10202TIP3   OH252096   4.625   6.464   1.342  0.3104  0.4423  0.2633
10202TIP3    H152097   4.573   6.517   1.403  1.2811  1.2866  0.3793
10202TIP3    H252098   4.561   6.434   1.277 -0.4098  1.0608  0.6663
10203TIP3   OH252099   3.862   3.051   4.756  0.0837 -0.2256 -0.2813
10203TIP3    H152100   3.829   2.963   4.738  0.4343 -0.2303 -0.9274
10203TIP3    H252101   3.784   3.106   4.758 -0.1094 -0.5031 -0.1638
10204TIP3   OH252102   1.786   1.149  15.156  0.2506 -1.2027  0.0268
10204TIP3    H152103   1.776   1.106  15.241 -0.1691  0.7722  1.0229
10204TIP3    H252104   1.864   1.203  15.167 -1.6654  1.6785  0.3812
10205TIP3   OH252105   1.509   0.580   1.384 -0.2761 -0.0310 -0.0515
10205TIP3    H152106   1.428   0.627   1.406  0.6747  2.0071 -0.6578
10205TIP3    H252107   1.577   0.628   1.430  0.6922 -1.3048 -0.1079
10206TIP3   OH252108   4.810   3.939  11.733 -0.3445  0.2933 -0.6554
10206TIP3    H152109   4.733   3.886  11.752 -1.2872  1.8429  0.1094
10206TIP3    H252110   4.884   3.886  11.762 -1.3390 -0.0154  1.5598
10207TIP3   OH252111   4.963   3.950   6.048  0.1429 -0.4803  0.0997
10207TIP3    H152112   4.885   3.994   6.081  0.0325 -0.5022 -0.1303
10207TIP3    H252113   4.995   3.898   6.122 -0.5495 -1.1435 -0.0519
10208TIP3   OH252114   1.132   3.227   5.682  0.0501  0.4098  0.6043
10208TIP3    H152115   1.167   3.187   5.603 -0.7729  1.8537 -0.5402
10208TIP3    H252116   1.156   3.167   5.753  0.9652 -0.8119 -0.7078
10209TIP3   OH252117   5.380   6.582   4.755 -0.7034  0.0492  0.2760
10209TIP3    H152118   5.285   6.596   4.754 -0.7336 -0.1377 -0.9375
10209TIP3    H252119   5.400   6.545   4.669  0.9052  3.0584 -0.7743
10210TIP3   OH252120   4.607   3.320   2.115  0.1815  0.0392 -0.3478
10210TIP3    H152121   4.612   3.384   2.044  0.9900 -0.6520 -0.9275
10210TIP3    H252122   4.683   3.340   2.170 -0.6926  0.8678  0.6019
10211TIP3   OH252123   1.522   6.048  14.845 -0.0957  0.3814  0.1743
10211TIP3    H152124   1.583   5.980  14.872  0.2330  0.5156 -0.2226
10211TIP3    H252125   1.562   6.129  14.875  0.4004  0.5559 -0.9227
10212TIP3   OH252126   1.217   2.783  12.685  0.0914 -0.3516 -0.3753
10212TIP3    H152127   1.299   2.823  12.714 -1.2598  0.7189  2.3472
10212TIP3    H252128   1.162   2.857  12.658 -1.3033 -0.5584  1.6519
10213TIP3   OH252129   0.675   1.980  11.099  0.1482  0.5817  0.5246
10213TIP3    H152130   0.739   1.926  11.144  0.0694  0.7104  0.7925
10213TIP3    H252131   0.594   1.967  11.147 -0.1940 -0.1070 -0.2205
10214TIP3   OH252132   5.156   0.165  13.141 -0.5854  0.2252  0.5976
10214TIP3    H152133   5.215   0.238  13.160  0.2606 -0.0985 -0.5945
10214TIP3    H252134   5.131   0.179  13.049 -0.8999 -0.6423  0.5450
10215TIP3   OH252135   0.789   3.401   1.421 -0.5243 -0.4521 -0.4160
10215TIP3    H152136   0.850   3.369   1.355 -0.0516 -0.0561 -0.1817
10215TIP3    H252137   0.789   3.496   1.409  0.5560 -0.2471  0.9777
10216TIP3   OH252138   6.782   4.285   4.287  0.4943  0.0363 -0.0472
10216TIP3    H152139   6.819   4.373   4.281 -0.4260  0.4521  0.2682
10216TIP3    H252140   6.711   4.285   4.223  0.3890 -0.4298  0.0691
10217TIP3   OH252141   6.541   2.563  13.600 -0.1422  0.2513 -0.5041
10217TIP3    H152142   6.583   2.484  13.632 -0.6053  0.1541 -0.1202
10217TIP3    H252143   6.461   2.571  13.653  0.8014  1.9638  0.7381
10218TIP3   OH252144   2.752   3.229  15.538 -0.4212  0.1039  0.0558
10218TIP3    H152145   2.816   3.167  15.502  0.1345  0.9078 -0.3687
10218TIP3    H252146   2.805   3.304  15.567 -0.9786 -0.0230  1.4664
10219TIP3   OH252147   0.909   5.579  13.379  0.5948 -0.0565 -0.8441
10219TIP3    H152148   0.874   5.499  13.340 -0.8500  0.0051  0.2637
10219TIP3    H252149   0.877   5.650  13.322  1.5712 -0.2102 -1.6151
10220TIP3   OH252150   0.807   1.825   3.981 -0.1272 -0.0248  0.0039
10220TIP3    H152151   0.739   1.829   4.048  1.4653  2.0722  1.6155
10220TIP3    H252152   0.837   1.734   3.983 -0.6717 -0.2043  1.6005
10221TIP3   OH252153   5.632   0.443   0.106 -0.1342  0.0484 -0.1949
10221TIP3    H152154   5.650   0.350   0.090 -0.1566  0.0668 -0.3239
10221TIP3    H252155   5.554   0.443   0.161  0.8302 -0.0772  1.2260
10222TIP3   OH252156   1.854   0.672  10.943  0.4182 -0.4008  0.2629
10222TIP3    H152157   1.809   0.607  10.890 -2.2084  2.8948 -1.8888
10222TIP3    H252158   1.947   0.653  10.930 -0.1915 -1.9014 -2.6938
10223TIP3   OH252159   2.075   4.531   1.762 -0.6927  0.0481 -0.2686
10223TIP3    H152160   2.088   4.555   1.670  2.9621 -0.8578 -0.1584
10223TIP3    H252161   2.030   4.447   1.759 -1.2271  0.3556 -1.1744
10224TIP3   OH252162   6.282   3.579  16.180 -0.1423 -0.2457  0.1414
10224TIP3    H152163   6.278   3.600  16.086  1.3883  0.7546  0.2835
10224TIP3    H252164   6.352   3.515  16.187  1.4776  1.5362  0.8894
10225TIP3   OH252165   1.194   0.505  13.179 -0.0497 -0.1704  0.5147
10225TIP3    H152166   1.270   0.449  13.193  0.4479  0.7158  1.5906
10225TIP3    H252167   1.217   0.559  13.103  1.4369  1.6514  2.1307
10226TIP3   OH252168   0.806   3.168  13.718 -0.3832  0.4477  0.3772
10226TIP3    H152169   0.830   3.084  13.759  1.5251  1.8198  2.3109
10226TIP3    H252170   0.771   3.144  13.632 -0.2375 -2.3341  1.0041
10227TIP3   OH252171   5.073   5.190  12.268 -0.1416 -0.3955 -0.1059
10227TIP3    H152172   5.005   5.218  12.330 -0.1086  0.3211 -0.3813
10227TIP3    H252173   5.154   5.190  12.320  0.1960  1.9470 -0.5472
10228TIP3   OH252174   2.666   0.170   1.046 -0.5409  0.3933  0.7062
10228TIP3    H152175   2.721   0.144   0.973 -0.8781  1.6990 -0.0540
10228TIP3    H252176   2.615   0.244   1.013 -1.1746  0.6054  2.0590
10229TIP3   OH252177   5.291   5.053  16.751  0.2973 -0.3943 -0.3833
10229TIP3    H152178   5.230   4.985  16.779 -0.3110 -0.0697 -0.8942
10229TIP3    H252179   5.255   5.086  16.669  0.6018  0.5038 -0.1743
10230TIP3   OH252180   5.806   5.497  15.913  0.3187  0.2623 -0.5170
10230TIP3    H152181   5.745   5.545  15.856 -1.7345 -1.8757 -0.2503
10230TIP3    H252182   5.767   5.410  15.922  2.1321 -0.3966  1.7798
10231TIP3   OH252183   3.909   6.320  15.684 -0.0681  0.4311  0.2016
10231TIP3    H152184   3.918   6.402  15.734 -2.6041 -0.9994  3.3652
10231TIP3    H252185   3.816   6.313  15.665  0.0220 -1.8804  0.3412
10232TIP3   OH252186   6.333   1.977  11.490 -0.1051  0.0452  0.1167
10232TIP3    H152187   6.306   1.905  11.548 -0.9395 -0.9819 -1.4632
10232TIP3    H252188   6.393   1.936  11.428  0.2317  0.9613 -0.1686
10233TIP3   OH252189   1.472   3.380  15.789  0.3213  0.2887  0.3106
10233TIP3    H152190   1.484   3.463  15.742  1.3959  0.9033  1.6012
10233TIP3    H252191   1.558   3.338  15.785 -0.5049 -1.3729 -1.3512
10234TIP3   OH252192   5.757   0.091  15.474  0.0290  0.2473 -0.3331
10234TIP3    H152193   5.772   0.137  15.556  0.1598 -2.4817  1.2593
10234TIP3    H252194   5.671   0.051  15.483  0.8991 -1.8230 -0.5822
10235TIP3   OH252195   1.976   1.311   2.539  0.2591  0.3248 -0.1902
10235TIP3    H152196   1.903   1.348   2.590 -1.0384 -0.3830 -1.4695
10235TIP3    H252197   2.019   1.252   2.600 -2.4923 -2.0737 -0.3491
10236TIP3   OH252198   1.134   6.154  11.654  0.1088 -0.1420  0.1989
10236TIP3    H152199   1.188   6.138  11.576  0.1299  1.7208 -0.2163
10236TIP3    H252200   1.125   6.249  11.657 -2.8697 -0.3623  0.4625
10237TIP3   OH252201   1.602   0.282  13.576  0.1883 -0.2336 -0.4854
10237TIP3    H152202   1.658   0.341  13.526  0.0677 -0.9275 -1.4737
10237TIP3    H252203   1.597   0.321  13.663  0.6262  0.8570 -0.9379
10238TIP3   OH252204   1.773   1.403   3.728  0.2629  0.0100  0.1975
10238TIP3    H152205   1.688   1.417   3.686  0.8674  1.6268 -0.5560
10238TIP3    H252206   1.783   1.477   3.787  2.0397  1.0538 -1.2911
10239TIP3   OH252207   3.447   4.920   2.293  0.0231  0.0679 -0.7373
10239TIP3    H152208   3.514   4.854   2.281  1.1188  1.3084 -1.8248
10239TIP3    H252209   3.484   4.980   2.359 -0.1464  0.5707 -1.0908
10240TIP3   OH252210   3.479   6.552  10.698  0.3902 -0.3929 -0.6079
10240TIP3    H152211   3.397   6.598  10.717  0.7179 -0.3249  0.7159
10240TIP3    H252212   3.470   6.523  10.607 -0.9478 -0.0832 -0.5852
10241TIP3   OH252213   3.307   5.195  13.597 -0.0661  0.6068  0.6159
10241TIP3    H152214   3.329   5.203  13.690 -1.5325  3.0893  0.8350
10241TIP3    H252215   3.353   5.267  13.555  0.6461 -0.5358 -0.6422
10242TIP3   OH252216   4.878   5.896  16.640 -0.2300 -0.4008 -0.6383
10242TIP3    H152217   4.913   5.857  16.560 -3.0540 -0.8656 -1.7708
10242TIP3    H252218   4.784   5.877  16.637 -1.3093  3.8240  0.3153
10243TIP3   OH252219   1.192   2.795  15.365 -0.3775 -0.1089  0.0002
10243TIP3    H152220   1.105   2.833  15.361  0.5159  2.0519  0.0157
10243TIP3    H252221   1.232   2.817  15.281  0.5657 -0.0185  0.4596
10244TIP3   OH252222   5.385   4.011  15.703  0.4096 -0.6837  0.4710
10244TIP3    H152223   5.321   4.001  15.774  1.0927 -0.5078  1.1137
10244TIP3    H252224   5.422   4.098  15.716  0.6785 -0.7302  0.0130
10245TIP3   OH252225   1.566   6.470  10.523  0.2449  0.5064  0.1180
10245TIP3    H152226   1.483   6.472  10.571  0.5151  0.2579  0.6114
10245TIP3    H252227   1.548   6.420  10.444  0.0934 -0.1293  0.5541
10246TIP3   OH252228   0.372   6.142   3.477 -0.5386 -0.4476 -0.1394
10246TIP3    H152229   0.394   6.235   3.465 -1.3194 -0.1859  0.3373
10246TIP3    H252230   0.304   6.125   3.412 -0.8266 -0.5159  0.1760
10247TIP3   OH252231   5.233   1.233   1.550 -0.0638 -0.0411  1.0014
10247TIP3    H152232   5.261   1.323   1.562  1.4574 -0.4977  1.1014
10247TIP3    H252233   5.270   1.207   1.466 -0.0499 -0.7277  1.2107
10248TIP3   OH252234   0.693   0.959   1.506 -0.1840 -0.5674 -0.1694
10248TIP3    H152235   0.715   0.919   1.590 -0.5747 -1.7368 -0.6025
10248TIP3    H252236   0.777   0.973   1.463  0.0434  0.3564  0.5321
10249TIP3   OH252237   6.496   1.908   1.395 -0.3407 -0.1410  0.3980
10249TIP3    H152238   6.523   1.996   1.420 -2.7460  0.5855  0.7116
10249TIP3    H252239   6.524   1.852   1.468 -1.6709  0.9435  1.8076
10250TIP3   OH252240   3.222   5.864   3.567  0.3684 -0.0202 -0.3750
10250TIP3    H152241   3.132   5.846   3.537 -0.3940  0.7532  1.3194
10250TIP3    H252242   3.277   5.829   3.497 -1.2497 -0.2510 -1.6153
10251TIP3   OH252243   1.238   1.357  14.941 -0.6074  0.4053 -0.0928
10251TIP3    H152244   1.294   1.426  14.906 -0.3285  0.3724  0.2932
10251TIP3    H252245   1.249   1.284  14.880  0.9616 -0.1545  0.8064
10252TIP3   OH252246   2.394   1.954   3.687 -0.5903 -0.0672 -0.2903
10252TIP3    H152247   2.337   2.007   3.631 -1.7767  0.6992  1.5405
10252TIP3    H252248   2.478   1.998   3.685 -0.8809  0.4803 -0.6919
10253TIP3   OH252249   2.335   1.278  10.445  0.7176  0.1143  0.0502
10253TIP3    H152250   2.318   1.326  10.364 -1.9555 -0.2329  0.3040
10253TIP3    H252251   2.411   1.224  10.426  1.0637  1.1470 -1.7129
10254TIP3   OH252252   2.333   4.557   1.882  0.0873  0.4069  0.3398
10254TIP3    H152253   2.321   4.462   1.873  0.2840  0.3288  0.8992
10254TIP3    H252254   2.245   4.592   1.881  0.0289  0.2576 -0.2889
10255TIP3   OH252255   4.254   6.105   6.240 -0.0257  0.3835  0.0061
10255TIP3    H152256   4.315   6.035   6.218 -0.5835  0.0406 -0.5073
10255TIP3    H252257   4.308   6.173   6.281  0.4127 -0.6320  1.1562
10256TIP3   OH252258   5.391   5.519  13.303 -0.8085  0.1596  0.2012
10256TIP3    H152259   5.380   5.576  13.379 -1.6599  0.0735  0.1444
10256TIP3    H252260   5.377   5.576  13.227 -1.2166 -0.0278  0.1355
10257TIP3   OH252261   1.042   5.601   3.324  0.5869 -0.3647 -0.7651
10257TIP3    H152262   1.021   5.547   3.248  0.0063 -0.5431 -0.4803
10257TIP3    H252263   1.101   5.668   3.290 -2.2447  1.6090 -2.1029
10258TIP3   OH252264   0.615   1.286  10.176  0.0191 -0.1905 -0.0026
10258TIP3    H152265   0.651   1.259  10.091  0.6314  0.3855  0.0672
10258TIP3    H252266   0.669   1.241  10.241  0.1778  0.1309  0.0912
10259TIP3   OH252267   2.677   4.741  11.797  0.3225 -0.2991  0.2800
10259TIP3    H152268   2.683   4.707  11.708 -2.6267  1.8862 -0.9037
10259TIP3    H252269   2.680   4.836  11.786 -0.1244  0.0168  2.5266
10260TIP3   OH252270   6.275   6.449   5.816 -0.3086  0.4001  0.4984
10260TIP3    H152271   6.370   6.460   5.818 -0.0166 -1.7210  1.8156
10260TIP3    H252272   6.241   6.535   5.791  1.9169  1.3669  0.5598
10261TIP3   OH252273   0.400   2.344  10.103  0.7774  0.3236 -0.5410
10261TIP3    H152274   0.468   2.411  10.110  0.4088  0.9644 -2.4258
10261TIP3    H252275   0.319   2.390  10.126  0.9941 -0.6470  2.5529
10262TIP3   OH252276   5.972   4.353   3.344  0.2949  0.4863 -0.2551
10262TIP3    H152277   5.977   4.396   3.258  0.2077  0.8270 -0.0933
10262TIP3    H252278   5.922   4.274   3.328  0.5213  0.4021 -0.5763
10263TIP3   OH252279   1.237   2.205  12.425 -0.1578 -0.2245 -0.5853
10263TIP3    H152280   1.251   2.137  12.491 -0.8401 -0.0715 -0.2844
10263TIP3    H252281   1.299   2.183  12.355 -0.4392 -1.2209 -0.5357
10264TIP3   OH252282   5.745   1.772  15.736 -0.2524  0.3765  0.2659
10264TIP3    H152283   5.652   1.791  15.723 -0.3392 -0.2500 -0.0784
10264TIP3    H252284   5.790   1.845  15.694 -0.5647 -0.3913 -1.4507
10265TIP3   OH252285   0.863   5.698  13.635  0.6084  0.2933 -1.0090
10265TIP3    H152286   0.870   5.660  13.547  0.7911  0.6941 -1.1705
10265TIP3    H252287   0.799   5.768  13.626 -0.9503 -0.9989 -0.3479
10266TIP3   OH252288   5.029   4.341  16.475 -0.3789  0.0927  0.5386
10266TIP3    H152289   4.998   4.351  16.565 -3.3911  2.4957 -0.5998
10266TIP3    H252290   5.094   4.411  16.463 -0.7648  0.4517  0.5464
10267TIP3   OH252291   0.196   4.327   1.369  0.3280 -0.4521  0.1717
10267TIP3    H152292   0.155   4.258   1.421 -0.0812  0.4287  1.0561
10267TIP3    H252293   0.153   4.322   1.284  0.0429 -1.0390  0.3476
10268TIP3   OH252294   5.980   3.479   2.254  0.4303 -0.3858  0.1998
10268TIP3    H152295   5.965   3.557   2.201  1.3468 -0.4858 -0.2171
10268TIP3    H252296   6.073   3.481   2.274  0.2993 -0.9378  0.8867
10269TIP3   OH252297   1.958   2.040   2.707 -0.4525 -0.0516 -0.2659
10269TIP3    H152298   1.897   2.085   2.648 -0.3671  2.8395  1.6650
10269TIP3    H252299   1.906   2.021   2.785  0.1747 -1.1542 -0.0943
10270TIP3   OH252300   1.786   6.740  11.763  0.4537 -0.1726  0.4925
10270TIP3    H152301   1.852   6.739  11.694  0.1022  2.1006  0.0240
10270TIP3    H252302   1.794   6.655  11.805  2.0447 -0.8687 -1.0615
10271TIP3   OH252303   5.925   2.718  11.612 -0.4193  0.6729  0.3573
10271TIP3    H152304   5.976   2.798  11.626  0.8825  0.0566 -0.7421
10271TIP3    H252305   5.950   2.687  11.525 -0.3331 -1.3399  1.0447
10272TIP3   OH252306   5.567   0.052   4.510 -0.2613 -0.3470 -0.1523
10272TIP3    H152307   5.594   0.018   4.596 -0.1160  1.0145  0.3775
10272TIP3    H252308   5.646   0.095   4.476 -0.9366  1.1621  0.1104
10273TIP3   OH252309   2.984   1.491  11.223  0.3256  0.4343  1.0236
10273TIP3    H152310   3.069   1.524  11.193  0.4770  0.0077  0.9804
10273TIP3    H252311   2.940   1.568  11.260  0.7087  0.6667  1.0003
10274TIP3   OH252312   5.546   2.551  12.111 -0.5222  0.0780 -0.0345
10274TIP3    H152313   5.570   2.643  12.103 -0.0071 -0.1266 -1.0123
10274TIP3    H252314   5.452   2.552  12.130 -0.8602  0.7977 -1.5748
10275TIP3   OH252315   1.032   4.717   2.582 -0.0814 -0.5712  0.4297
10275TIP3    H152316   1.041   4.673   2.666 -1.0194  0.4526  1.0847
10275TIP3    H252317   0.939   4.739   2.575  0.3900  1.6361  0.3300
10276TIP3   OH252318   2.869   1.000   3.464 -0.3853 -0.4642  0.0754
10276TIP3    H152319   2.898   0.996   3.555 -1.0522 -1.3215  0.2693
10276TIP3    H252320   2.776   1.022   3.468 -0.4703 -0.7018 -0.3790
10277TIP3   OH252321   6.252   4.549  15.453 -0.6367 -0.8154 -0.2219
10277TIP3    H152322   6.341   4.578  15.430 -1.3909  1.4210 -0.5684
10277TIP3    H252323   6.265   4.474  15.511  1.5325  0.6117  1.2831
10278TIP3   OH252324   6.792   6.588   2.041  0.0519 -0.4041  0.1429
10278TIP3    H152325   6.840   6.554   2.116  0.5842  0.5197  0.2424
10278TIP3    H252326   6.795   6.518   1.976  1.4479 -0.4029  0.1934
10279TIP3   OH252327   5.729   3.800  13.436 -0.4943  0.0800  0.2578
10279TIP3    H152328   5.698   3.890  13.435 -0.4842  0.1887  2.7766
10279TIP3    H252329   5.720   3.770  13.345 -0.5436  2.5617 -0.6151
10280TIP3   OH252330   2.213   3.159   3.278 -0.4274  0.4988  0.3758
10280TIP3    H152331   2.300   3.175   3.316  0.0583 -0.0109 -0.4709
10280TIP3    H252332   2.229   3.092   3.211 -1.3660  0.8761 -0.2358
10281TIP3   OH252333   3.404   4.748  17.118  0.1757  0.4380  0.0722
10281TIP3    H152334   3.355   4.719  17.041  1.3873  0.8387 -0.8896
10281TIP3    H252335   3.489   4.775  17.083  0.8922  0.2618  1.6138
10282TIP3   OH252336   4.246   4.339  17.124 -0.3605 -0.0812 -0.2671
10282TIP3    H152337   4.183   4.304  17.187 -3.5333  1.9100 -2.0517
10282TIP3    H252338   4.248   4.274  17.054  0.5126 -0.6881  0.3076
10283TIP3   OH252339   2.992   4.567   0.766  0.3768 -0.1261  0.1247
10283TIP3    H152340   3.025   4.536   0.850 -0.5651  1.7899  1.2646
10283TIP3    H252341   2.975   4.487   0.716  0.5408 -1.3368  1.9115
10284TIP3   OH252342   6.644   5.681   2.244  0.0488 -0.3455 -0.1955
10284TIP3    H152343   6.593   5.760   2.226 -1.1156 -1.2967 -1.3011
10284TIP3    H252344   6.731   5.713   2.270 -0.5360  1.2826 -0.1581
10285TIP3   OH252345   1.024   6.229   6.042  0.0649  0.7407 -0.7117
10285TIP3    H152346   1.016   6.145   5.995  0.5928  0.9792 -1.2389
10285TIP3    H252347   1.070   6.207   6.122  0.6120  0.5930 -1.0599
10286TIP3   OH252348   4.683   0.234  12.215 -0.4851 -0.1657 -0.3336
10286TIP3    H152349   4.727   0.150  12.197 -1.3278 -0.9031  0.9150
10286TIP3    H252350   4.595   0.209  12.243 -0.4312  1.0860  1.0475
10287TIP3   OH252351   2.756   4.301  16.462 -0.2625 -0.3575 -0.7764
10287TIP3    H152352   2.798   4.375  16.419  0.5301 -0.0994  0.3819
10287TIP3    H252353   2.820   4.230  16.456 -0.2655 -0.4047 -0.2974
10288TIP3   OH252354   4.277   4.943  16.850 -0.1192 -0.3459  0.1749
10288TIP3    H152355   4.256   5.036  16.847 -0.0177 -0.2903  0.9746
10288TIP3    H252356   4.373   4.940  16.851 -0.1280 -0.4351  0.7637
10289TIP3   OH252357   6.759   5.184  15.877 -0.3757  0.0934  0.5004
10289TIP3    H152358   6.688   5.242  15.905  0.0429  0.5362  0.6472
10289TIP3    H252359   6.830   5.243  15.852 -1.2279 -0.1322 -3.0437
10290TIP3   OH252360   6.459   2.760   3.932  0.5977  0.4689 -0.2670
10290TIP3    H152361   6.550   2.736   3.912  0.6000 -0.0111  0.2771
10290TIP3    H252362   6.409   2.681   3.912  0.6956 -0.3099  2.2358
10291TIP3   OH252363   0.557   2.173   4.594  0.1017 -0.2501  0.3171
10291TIP3    H152364   0.509   2.203   4.516 -1.0681  2.2578  1.8705
10291TIP3    H252365   0.598   2.091   4.566 -1.3978 -0.1943 -2.5007
10292TIP3   OH252366   1.551   4.005  14.253 -0.2645 -0.7982  0.2493
10292TIP3    H152367   1.580   3.930  14.306 -1.7158 -0.2663  1.8890
10292TIP3    H252368   1.520   3.966  14.172  0.6769 -1.7907  0.3332
10293TIP3   OH252369   3.041   1.472   5.320  0.1041  0.0828  0.2289
10293TIP3    H152370   3.075   1.437   5.238  1.6658  0.3121  0.7570
10293TIP3    H252371   3.092   1.551   5.336  1.1302 -0.9315  2.3395
10294TIP3   OH252372   5.153   0.884   4.973 -0.2875  0.0496 -0.1942
10294TIP3    H152373   5.163   0.965   5.024  1.3911  0.5310 -1.2252
10294TIP3    H252374   5.060   0.862   4.982 -0.5495  1.4763  1.0255
10295TIP3   OH252375   1.774   0.928   4.694 -0.0599  0.1631 -0.2479
10295TIP3    H152376   1.718   0.850   4.694 -0.2604  0.2643 -1.7830
10295TIP3    H252377   1.723   0.994   4.740 -0.0555 -0.4889  0.7181
10296TIP3   OH252378   5.887   0.959  10.907  0.4169 -0.1314 -0.0748
10296TIP3    H152379   5.930   0.907  10.839  0.7697 -0.2102  0.2045
10296TIP3    H252380   5.892   1.049  10.875  2.4939  0.1255  0.7961
10297TIP3   OH252381   6.674   2.877   1.499 -0.5146  0.1508 -0.7542
10297TIP3    H152382   6.639   2.966   1.490 -0.5359  0.1686 -0.5181
10297TIP3    H252383   6.756   2.889   1.548 -0.3980  0.0653 -0.9310
10298TIP3   OH252384   6.062   2.058  13.551 -0.3365 -0.1041  0.0747
10298TIP3    H152385   6.041   1.998  13.623  0.2340 -0.3018  0.0805
10298TIP3    H252386   6.130   2.115  13.586 -1.2807  0.9484  0.2641
10299TIP3   OH252387   3.723   3.933  13.964 -0.2353  0.1726  0.3559
10299TIP3    H152388   3.687   3.865  14.021  1.0649 -0.7110  0.1773
10299TIP3    H252389   3.686   4.014  13.998 -1.8512 -0.6022  0.5603
10300TIP3   OH252390   0.920   4.936  10.591  0.1217  0.8256  0.4241
10300TIP3    H152391   0.835   4.935  10.635 -0.1772  1.5380 -0.1088
10300TIP3    H252392   0.899   4.943  10.498  0.7607  1.5585  0.3215
10301TIP3   OH252393   1.756   6.562  15.613  0.1180 -0.6642 -0.9209
10301TIP3    H152394   1.686   6.523  15.562  1.1560 -0.5170 -2.5423
10301TIP3    H252395   1.836   6.542  15.564  0.8412  2.3158 -1.1968
10302TIP3   OH252396   2.301   5.688  10.753  0.2242 -0.2982 -0.1021
10302TIP3    H152397   2.334   5.659  10.838 -1.4933 -2.3860 -0.0571
10302TIP3    H252398   2.255   5.769  10.772  0.2308 -0.5081  0.8790
10303TIP3   OH252399   5.125   0.945  12.448 -0.6384  0.3782 -0.6591
10303TIP3    H152400   5.181   1.022  12.436  0.6486 -0.6401 -1.4957
10303TIP3    H252401   5.095   0.951  12.538 -1.2545  2.2983 -0.9495
10304TIP3   OH252402   4.441   5.329   2.615  0.2187 -0.1473 -0.1815
10304TIP3    H152403   4.382   5.288   2.677  0.7008 -2.1346 -0.9546
10304TIP3    H252404   4.388   5.342   2.536  0.5252 -1.0805 -0.5633
10305TIP3   OH252405   3.556   6.094   4.172  0.7345 -0.0092  0.5374
10305TIP3    H152406   3.490   6.161   4.190 -0.3265 -1.3180  1.6754
10305TIP3    H252407   3.636   6.127   4.213  0.7456  1.4210 -0.5434
10306TIP3   OH252408   6.200   5.776   5.768 -0.0233 -0.1323  0.1077
10306TIP3    H152409   6.202   5.682   5.783 -2.1650 -0.5075 -1.3735
10306TIP3    H252410   6.164   5.813   5.849 -1.7732 -0.9460 -0.2400
10307TIP3   OH252411   0.288   3.542  15.053 -0.2172  0.3211 -0.2284
10307TIP3    H152412   0.381   3.537  15.031 -0.7567 -1.9491 -2.3914
10307TIP3    H252413   0.251   3.602  14.989 -0.0660  2.7213  1.7678
10308TIP3   OH252414   0.295   4.125  13.186  0.0666 -0.8669  0.1542
10308TIP3    H152415   0.310   4.185  13.258  0.5921  0.7938 -1.2835
10308TIP3    H252416   0.304   4.038  13.225 -0.8425 -0.0496  2.3101
10309TIP3   OH252417   5.542   0.501   0.818 -0.0076  0.8292 -0.2465
10309TIP3    H152418   5.498   0.573   0.773 -0.8121  0.0345 -0.7731
10309TIP3    H252419   5.478   0.469   0.881  0.3777  0.6199  0.0478
10310TIP3   OH252420   2.177   1.017   3.496 -0.1315  0.1552 -0.7464
10310TIP3    H152421   2.193   1.110   3.482 -1.4383  1.1583  3.1857
10310TIP3    H252422   2.082   1.011   3.511  0.1117 -1.5225  0.4045
10311TIP3   OH252423   1.517   5.461   0.658  0.0493  0.8110 -0.1680
10311TIP3    H152424   1.567   5.439   0.737 -0.5858 -0.5813 -0.1289
10311TIP3    H252425   1.519   5.381   0.606  0.6204  1.7598 -1.6759
10312TIP3   OH252426   5.238   3.115  11.619 -0.0288  0.0615  0.4439
10312TIP3    H152427   5.208   3.173  11.689  1.5597  1.7133 -0.1488
10312TIP3    H252428   5.166   3.054  11.605 -1.5785  1.5797  1.4563
10313TIP3   OH252429   2.047   2.038  15.243  0.0146 -0.1214 -0.1350
10313TIP3    H152430   2.079   2.033  15.153  0.0301 -0.2199 -0.1245
10313TIP3    H252431   1.974   2.100  15.240 -1.8484 -2.2034 -0.7722
10314TIP3   OH252432   6.504   4.976  11.269 -0.0092  0.1649 -0.0724
10314TIP3    H152433   6.414   4.985  11.300 -1.1931 -1.5031 -2.6321
10314TIP3    H252434   6.511   5.038  11.197  0.5222 -0.4726 -0.5824
10315TIP3   OH252435   5.492   0.509   4.019 -0.0331 -0.6904 -0.4521
10315TIP3    H152436   5.564   0.450   3.994  0.6293 -0.1579  0.1495
10315TIP3    H252437   5.529   0.597   4.007 -1.1912 -0.3558 -1.8861
10316TIP3   OH252438   0.697   6.469   4.119  0.7732 -0.6425 -0.0010
10316TIP3    H152439   0.690   6.406   4.048 -1.6006 -0.6409  0.1228
10316TIP3    H252440   0.624   6.529   4.105  0.2426 -0.6185  2.3725
10317TIP3   OH252441   3.618   3.104   3.326 -0.2031  0.3936 -0.1661
10317TIP3    H152442   3.541   3.143   3.367  0.2026  0.5973  0.4234
10317TIP3    H252443   3.639   3.029   3.381  1.3072  1.6019  0.9911
10318TIP3   OH252444   6.727   0.789  16.241  0.2540 -0.1440 -0.2654
10318TIP3    H152445   6.658   0.851  16.218  1.2091  0.2079 -2.4832
10318TIP3    H252446   6.793   0.842  16.287 -0.4336 -0.2534  0.8694
10319TIP3   OH252447   5.540   2.531   4.976 -0.4130 -0.2776 -0.3913
10319TIP3    H152448   5.556   2.624   4.993 -0.5603 -0.5525  1.5768
10319TIP3    H252449   5.483   2.530   4.900  0.9298  1.1590 -1.4832
10320TIP3   OH252450   4.605   3.791   0.564 -0.0110  0.0139  0.0223
10320TIP3    H152451   4.700   3.796   0.565 -0.0685  2.0007  1.0858
10320TIP3    H252452   4.585   3.717   0.507  2.0963  1.0354 -2.2052
10321TIP3   OH252453   0.985   6.566   3.655 -0.0424 -0.7054 -0.0879
10321TIP3    H152454   1.068   6.611   3.636 -0.5446 -0.0752 -0.8924
10321TIP3    H252455   0.990   6.546   3.748  0.9506 -0.5413 -0.0854
10322TIP3   OH252456   4.378   1.904  11.666  0.0264 -0.1334 -0.1542
10322TIP3    H152457   4.315   1.850  11.618  0.9772 -2.4026  0.9650
10322TIP3    H252458   4.328   1.943  11.737 -0.2894 -1.5085  0.4217
10323TIP3   OH252459   5.096   0.789   3.410 -0.0066 -0.0469 -0.4810
10323TIP3    H152460   5.082   0.793   3.505 -0.4699  3.0373 -0.5606
10323TIP3    H252461   5.191   0.782   3.401  0.0556 -0.2316  0.2229
10324TIP3   OH252462   1.701   1.970  16.707  0.3000 -0.2323  0.2087
10324TIP3    H152463   1.645   1.975  16.784 -1.6195 -1.3130 -1.0371
10324TIP3    H252464   1.662   2.032  16.645  0.0187 -1.5136 -0.9317
10325TIP3   OH252465   6.369   4.398  13.957 -1.1160 -0.1274 -0.4663
10325TIP3    H152466   6.279   4.425  13.971 -1.5639 -1.4118 -0.7580
10325TIP3    H252467   6.365   4.336  13.884 -0.3155 -1.8840  0.9079
10326TIP3   OH252468   4.347   2.367   3.707  0.1839  0.0977  0.5496
10326TIP3    H152469   4.349   2.440   3.769  1.5423  3.7790 -3.3224
10326TIP3    H252470   4.255   2.362   3.680  0.2945  1.3834 -0.1274
10327TIP3   OH252471   2.232   6.192   0.155 -0.3161  1.0257  0.0880
10327TIP3    H152472   2.227   6.099   0.177 -1.0381  0.8862 -0.5856
10327TIP3    H252473   2.230   6.194   0.059  0.7984  1.6889  0.0690
10328TIP3   OH252474   1.087   4.157   4.034 -0.2597 -0.2744  0.4233
10328TIP3    H152475   1.080   4.202   4.118 -1.1506  0.3802  0.0195
10328TIP3    H252476   1.164   4.101   4.043 -1.9014 -2.3421  2.6431
10329TIP3   OH252477   5.206   0.623  12.449 -0.4096  0.0668  0.5216
10329TIP3    H152478   5.116   0.591  12.439 -0.7898  1.1832  0.1507
10329TIP3    H252479   5.206   0.708  12.405  0.8683  0.0345  0.4229
10330TIP3   OH252480   5.689   2.799  10.642  0.2220  0.1257 -0.0621
10330TIP3    H152481   5.636   2.863  10.689 -0.2047 -0.4198  0.2093
10330TIP3    H252482   5.779   2.829  10.654  0.0639  0.3935  0.4926
10331TIP3   OH252483   6.272   5.102  12.777 -0.3231  0.0106 -0.5855
10331TIP3    H152484   6.303   5.063  12.695  0.8028  2.9259 -1.6796
10331TIP3    H252485   6.272   5.197  12.760  0.0879  0.7420  2.8479
10332TIP3   OH252486   2.637   5.896  12.833 -0.3463 -0.5751 -0.0037
10332TIP3    H152487   2.599   5.962  12.775 -0.7848  0.6285  1.5762
10332TIP3    H252488   2.692   5.842  12.776 -1.6773 -0.2049 -1.7316
10333TIP3   OH252489   1.657   6.288  15.724  0.1516 -0.8468  0.5117
10333TIP3    H152490   1.649   6.341  15.804 -1.2505  0.1021 -0.2120
10333TIP3    H252491   1.590   6.324  15.665  0.8921 -1.7867 -0.9486
10334TIP3   OH252492   0.453   1.378  16.616  0.3328  0.4632 -0.4387
10334TIP3    H152493   0.541   1.377  16.655  1.0292  0.3422 -1.9325
10334TIP3    H252494   0.408   1.448  16.663  1.3298  0.7455  0.1474
10335TIP3   OH252495   3.828   5.317  11.004  0.5154 -0.1188  0.3844
10335TIP3    H152496   3.802   5.394  10.954 -1.6893 -0.4197  0.9553
10335TIP3    H252497   3.916   5.297  10.973 -0.2781  0.4206 -2.4701
10336TIP3   OH252498   6.377   5.149   0.389  0.4980 -0.3343 -0.4220
10336TIP3    H152499   6.317   5.217   0.420  0.9573  0.3370 -0.9673
10336TIP3    H252500   6.362   5.075   0.448 -1.3293 -0.4309 -0.9492
10337TIP3   OH252501   6.149   4.370   0.464 -0.2897 -0.1160  0.3159
10337TIP3    H152502   6.084   4.325   0.411 -0.1954  0.3027 -0.1650
10337TIP3    H252503   6.114   4.458   0.475 -0.4001 -0.2545  1.1181
10338TIP3   OH252504   6.676   2.455   1.189  0.2580 -0.5329  0.6472
10338TIP3    H152505   6.586   2.486   1.178  0.8578  0.7798 -0.9759
10338TIP3    H252506   6.691   2.458   1.284 -1.0114  0.4205  0.8416
10339TIP3   OH252507   4.148   1.270  15.172  0.1781 -0.2643  0.0559
10339TIP3    H152508   4.113   1.340  15.116  0.2057  0.3829  0.8344
10339TIP3    H252509   4.098   1.277  15.253 -0.7264 -1.9811 -0.2876
10340TIP3   OH252510   4.427   1.057   3.091 -0.0102 -0.6229  0.2155
10340TIP3    H152511   4.441   1.119   3.019  2.4987 -2.7249 -1.2712
10340TIP3    H252512   4.481   1.091   3.162 -0.9326  0.3842  0.4735
10341TIP3   OH252513   6.475   2.840   2.953 -0.4023 -0.4031  0.6564
10341TIP3    H152514   6.411   2.837   2.882 -0.0836 -1.2817  0.3962
10341TIP3    H252515   6.454   2.920   3.001 -1.6126 -0.6139  0.5065
10342TIP3   OH252516   2.310   6.573   1.221  0.7122 -0.6418  0.2964
10342TIP3    H152517   2.381   6.628   1.186  0.3504 -0.0431  0.4839
10342TIP3    H252518   2.250   6.635   1.261 -1.1106 -0.8609 -1.8767
10343TIP3   OH252519   3.525   6.450  16.698 -0.1379 -0.4480  0.0492
10343TIP3    H152520   3.616   6.426  16.714 -0.0750  0.3828  1.0277
10343TIP3    H252521   3.474   6.378  16.736  0.1076 -1.4411 -1.4471
10344TIP3   OH252522   2.071   6.784   4.235  0.5499 -0.0874 -0.2478
10344TIP3    H152523   2.069   6.871   4.274  2.0787  1.0828 -2.5358
10344TIP3    H252524   2.164   6.762   4.231  0.3316 -0.9226 -1.4848
10345TIP3   OH252525   2.047   1.086  12.873  0.1454  0.3198  0.0155
10345TIP3    H152526   2.096   1.007  12.852 -0.5987 -0.3565  0.7507
10345TIP3    H252527   2.043   1.135  12.791  2.1581  0.4787 -0.0307
10346TIP3   OH252528   5.669   3.888   5.586 -0.0597 -0.3056  0.3548
10346TIP3    H152529   5.672   3.891   5.682 -0.4397  0.5491  0.3439
10346TIP3    H252530   5.580   3.912   5.563  0.7054  2.1906 -0.2904
10347TIP3   OH252531   5.155   2.554   5.208  0.4852 -0.7058 -0.3051
10347TIP3    H152532   5.118   2.474   5.245 -0.9487  0.3985  0.7703
10347TIP3    H252533   5.146   2.543   5.113 -0.4633 -1.4696 -0.1415
10348TIP3   OH252534   2.859   5.544  15.772 -0.4586  0.9437  0.0437
10348TIP3    H152535   2.820   5.463  15.740 -0.2646  1.4794 -1.6848
10348TIP3    H252536   2.787   5.591  15.813 -0.8024  0.3447  0.1336
10349TIP3   OH252537   3.298   0.402  13.655 -0.1166 -0.0501 -0.0964
10349TIP3    H152538   3.219   0.455  13.658  0.1818  0.4373 -0.5431
10349TIP3    H252539   3.269   0.313  13.674 -0.7917  0.1009 -0.3935
10350TIP3   OH252540   5.493   4.365  15.637  0.2483  0.2940  0.1982
10350TIP3    H152541   5.420   4.409  15.681 -1.3456 -0.7900 -1.2754
10350TIP3    H252542   5.564   4.430  15.639 -0.3379  0.9525  2.6689
10351TIP3   OH252543   2.935   1.177   1.038 -0.4604 -0.4045 -0.1761
10351TIP3    H152544   2.849   1.168   0.999 -0.9384 -0.9904  0.9568
10351TIP3    H252545   2.985   1.104   1.002 -0.2636  0.2442 -1.2413
10352TIP3   OH252546   0.878   5.228   5.591  0.0783 -0.0726 -0.1522
10352TIP3    H152547   0.959   5.219   5.640 -0.7395 -0.4803  1.1985
10352TIP3    H252548   0.846   5.138   5.580 -0.3339  0.0976 -0.4024
10353TIP3   OH252549   1.583   1.846  14.827  0.3089 -0.0365 -0.2592
10353TIP3    H152550   1.579   1.868  14.734  0.8893 -0.1873 -0.3264
10353TIP3    H252551   1.546   1.923  14.871  1.6725  0.8255 -0.5318
10354TIP3   OH252552   4.078   5.375  12.019  1.0048  0.4219  0.0127
10354TIP3    H152553   4.168   5.344  12.015  1.1850  0.9758 -0.3249
10354TIP3    H252554   4.033   5.325  11.951  1.1212  0.3511 -0.0125
10355TIP3   OH252555   4.889   5.461  10.977  0.3194 -0.2010 -0.3228
10355TIP3    H152556   4.951   5.480  10.906 -0.3515 -0.9462 -1.1222
10355TIP3    H252557   4.944   5.457  11.056  1.0373  0.9200 -0.7287
10356TIP3   OH252558   4.930   4.900  16.619 -0.2679  0.1258 -0.1818
10356TIP3    H152559   4.952   4.903  16.526  2.3990 -0.6667  0.3387
10356TIP3    H252560   5.002   4.851  16.659 -1.4597  0.2383  2.2893
10357TIP3   OH252561   0.772   2.916  17.042  0.5325 -0.5215 -0.3557
10357TIP3    H152562   0.723   2.926  16.961  2.8332 -1.1713 -1.9441
10357TIP3    H252563   0.852   2.967  17.028  0.8800 -0.4532  1.6120
10358TIP3   OH252564   1.720   1.452  13.944  0.4388  1.2947  0.2445
10358TIP3    H152565   1.797   1.442  14.001  0.6920 -1.1917 -0.3945
10358TIP3    H252566   1.754   1.495  13.866  0.2724  3.9151  1.5073
10359TIP3   OH252567   6.267   3.459   4.556  0.4274  0.8012  0.5172
10359TIP3    H152568   6.347   3.418   4.526 -0.9026 -0.5568 -1.4452
10359TIP3    H252569   6.285   3.485   4.646  2.7327 -0.2673  0.4301
10360TIP3   OH252570   2.039   6.686   5.882  0.0788 -0.6348 -0.1524
10360TIP3    H152571   2.105   6.617   5.885  0.5246 -0.1809  0.5968
10360TIP3    H252572   1.957   6.641   5.906 -0.1046 -1.4124 -2.0602
10361TIP3   OH252573   6.056   4.273  13.979  0.2743 -0.0843 -0.0653
10361TIP3    H152574   6.106   4.200  13.941 -1.1428 -1.0716 -0.0810
10361TIP3    H252575   6.034   4.328  13.904  1.3480  0.4039 -0.0525
10362TIP3   OH252576   0.910   1.396  11.175  0.3142  0.0339  0.0214
10362TIP3    H152577   0.953   1.480  11.159  0.8035 -0.1781  0.1975
10362TIP3    H252578   0.833   1.397  11.118 -0.9846  1.5650  1.6690
10363TIP3   OH252579   0.159   3.346  12.123  0.1051  0.0758 -0.0666
10363TIP3    H152580   0.151   3.402  12.046  0.5264 -0.6407 -0.6549
10363TIP3    H252581   0.098   3.383  12.187  1.3630  2.0148  0.0832
10364TIP3   OH252582   3.577   4.548   1.233 -0.0812 -0.2371 -0.0509
10364TIP3    H152583   3.598   4.630   1.190  1.5324 -1.5540 -1.9661
10364TIP3    H252584   3.484   4.534   1.213  0.0230  0.3755 -1.0487
10365TIP3   OH252585   0.044   6.584  14.863  0.0175 -0.2253  0.3404
10365TIP3    H152586  -0.002   6.602  14.945 -0.0741  0.8355  0.0747
10365TIP3    H252587   0.082   6.668  14.838  0.3657 -0.6228 -0.5124
10366TIP3   OH252588   0.343   3.241   3.965  0.3553 -0.1359 -0.7405
10366TIP3    H152589   0.386   3.232   3.879  0.4253 -0.4957 -0.6723
10366TIP3    H252590   0.380   3.320   4.003 -0.2688  0.4757 -1.3823
10367TIP3   OH252591   2.829   5.061   2.488  0.0633 -0.3953  0.1881
10367TIP3    H152592   2.783   5.032   2.567  0.3154  0.5187  0.6858
10367TIP3    H252593   2.887   4.989   2.466 -0.7302 -1.0736  0.2522
10368TIP3   OH252594   6.102   2.977   4.212 -0.3017  0.0025 -0.2362
10368TIP3    H152595   6.023   2.957   4.262  0.1774 -0.9207  0.1933
10368TIP3    H252596   6.174   2.955   4.272  0.3326 -2.8318 -1.8279
10369TIP3   OH252597   4.316   5.544   1.714  0.3764  0.4719  0.0786
10369TIP3    H152598   4.293   5.469   1.660  0.7717  1.5906 -1.7121
10369TIP3    H252599   4.408   5.530   1.736  0.3264  0.2072  0.1185
10370TIP3   OH252600   3.487   2.096   1.283 -0.3585  0.3316  0.1544
10370TIP3    H152601   3.484   2.047   1.200  1.4884 -0.8275  0.6998
10370TIP3    H252602   3.484   2.028   1.350  1.7945  0.9453  0.9494
10371TIP3   OH252603   0.429   5.458   3.777  0.4547 -0.0487 -0.2023
10371TIP3    H152604   0.404   5.365   3.773  0.6612 -0.1348  0.4560
10371TIP3    H252605   0.504   5.460   3.836  1.5572  0.3101 -1.5535
10372TIP3   OH252606   1.460   4.966  13.630  0.1074 -0.7124  0.1112
10372TIP3    H152607   1.484   4.973  13.538 -0.9763 -1.9205 -0.3007
10372TIP3    H252608   1.444   5.056  13.657  0.8592 -0.2997 -0.7557
10373TIP3   OH252609   1.856   5.596   0.278 -0.0530  0.2293  0.1165
10373TIP3    H152610   1.918   5.526   0.300 -0.5684 -0.2918 -0.0795
10373TIP3    H252611   1.809   5.612   0.360 -3.0801 -2.8038 -0.7758
10374TIP3   OH252612   1.560   6.761   0.233  0.5501  0.0001 -0.0886
10374TIP3    H152613   1.475   6.718   0.228  0.7998 -0.6137  0.6999
10374TIP3    H252614   1.593   6.761   0.143 -0.0213 -0.2926 -0.2990
10375TIP3   OH252615   5.853   3.332   1.102  0.1040  0.0547 -0.1664
10375TIP3    H152616   5.923   3.282   1.059 -0.0537  0.2435 -0.6350
10375TIP3    H252617   5.850   3.415   1.055  0.1714  0.3992  0.4306
10376TIP3   OH252618   4.197   5.546  10.673 -0.4966 -0.4828 -0.0538
10376TIP3    H152619   4.143   5.612  10.717  1.0676  0.6185  0.2982
10376TIP3    H252620   4.141   5.511  10.604 -1.2703  1.4767 -0.4781
10377TIP3   OH252621   1.072   3.280  16.713 -0.2525  0.2167 -0.9656
10377TIP3    H152622   0.998   3.319  16.665 -1.5475 -0.3223  0.5317
10377TIP3    H252623   1.097   3.347  16.777 -1.7429 -0.9099  0.8538
10378TIP3   OH252624   5.163   1.159   6.589  0.0479  0.2637  0.0897
10378TIP3    H152625   5.153   1.246   6.629 -0.9234  1.1484 -1.9114
10378TIP3    H252626   5.241   1.168   6.534 -0.1364 -0.0618 -0.2291
10379TIP3   OH252627   3.825   0.864   3.799  0.1087 -0.5951 -0.0789
10379TIP3    H152628   3.770   0.786   3.797 -1.8761  0.7355 -1.2515
10379TIP3    H252629   3.794   0.913   3.875 -0.2568  0.0939 -0.6588
10380TIP3   OH252630   4.605   0.679  13.882  0.4744  0.6680  0.2067
10380TIP3    H152631   4.529   0.694  13.825 -0.4017 -2.1389  0.5026
10380TIP3    H252632   4.678   0.665  13.822  0.0788  0.1950 -0.1660
10381TIP3   OH252633   4.219   6.340  13.068  0.1189  0.1562 -0.0704
10381TIP3    H152634   4.224   6.349  13.163  0.1526  1.0739 -0.1464
10381TIP3    H252635   4.147   6.397  13.042 -1.3424 -1.7547 -0.4083
10382TIP3   OH252636   2.357   0.580  11.577 -0.4043  0.0628  0.0274
10382TIP3    H152637   2.361   0.493  11.535 -0.4649  0.9560 -1.9413
10382TIP3    H252638   2.443   0.592  11.616 -0.2900 -0.7596  0.0457
10383TIP3   OH252639   6.178   1.233   1.679  0.0251  0.5005 -0.0150
10383TIP3    H152640   6.202   1.199   1.766 -1.1838  0.2888  0.2466
10383TIP3    H252641   6.086   1.258   1.687 -0.6194 -1.1098 -1.7038
10384TIP3   OH252642   1.926   5.361   1.646  0.5549  0.2700 -0.0603
10384TIP3    H152643   2.016   5.332   1.632  0.7288  0.0034  1.4871
10384TIP3    H252644   1.925   5.451   1.612  0.9113 -0.3156 -1.7155
10385TIP3   OH252645   4.924   3.061  17.028 -0.0788  0.0817 -0.4052
10385TIP3    H152646   5.019   3.054  17.015 -0.1463  1.4535 -2.0016
10385TIP3    H252647   4.887   2.996  16.968 -0.1597 -0.0491 -0.2133
10386TIP3   OH252648   1.238   0.640  11.353 -0.2890 -0.7129 -0.0997
10386TIP3    H152649   1.291   0.568  11.387  1.5425  0.3562 -0.6161
10386TIP3    H252650   1.239   0.627  11.258  0.4834  0.2793 -0.2335
10387TIP3   OH252651   1.249   5.996  10.572  0.1979  0.2864 -0.0319
10387TIP3    H152652   1.307   5.984  10.496  0.5109 -0.2771  0.2886
10387TIP3    H252653   1.233   5.907  10.603 -0.5637  0.4623  0.0940
10388TIP3   OH252654   0.502   3.404   5.372 -0.4611  0.1664  0.1435
10388TIP3    H152655   0.486   3.374   5.283 -0.0063  0.8859 -0.1934
10388TIP3    H252656   0.597   3.420   5.376 -0.4368 -0.0879  0.8313
10389TIP3   OH252657   6.083   2.228   4.377  0.0695  0.5359 -0.0452
10389TIP3    H152658   6.028   2.249   4.301  0.3751  0.1479 -0.3798
10389TIP3    H252659   6.157   2.287   4.369 -0.2637  1.0204  0.3754
10390TIP3   OH252660   1.734   0.019   0.476 -0.1248  0.0817  0.0318
10390TIP3    H152661   1.693  -0.008   0.394 -1.1165  0.5275  0.3518
10390TIP3    H252662   1.746  -0.062   0.525  0.5560 -0.1953 -0.5898
10391TIP3   OH252663   3.797   6.406   1.660  0.7380 -0.2244 -0.0638
10391TIP3    H152664   3.755   6.379   1.579 -1.0016 -1.8280  1.2628
10391TIP3    H252665   3.891   6.401   1.642  0.3923 -0.6429 -1.9220
10392TIP3   OH252666   2.857   1.593  15.039  0.2342  0.3610  0.3732
10392TIP3    H152667   2.923   1.656  15.066  0.0970 -0.1130  1.9166
10392TIP3    H252668   2.843   1.538  15.116 -2.1496  0.6118  0.1878
10393TIP3   OH252669   5.686   4.530   3.837 -0.3945 -0.1803 -0.0802
10393TIP3    H152670   5.711   4.572   3.919 -2.6965 -1.8485  1.6218
10393TIP3    H252671   5.759   4.546   3.778  2.2274 -0.4856  2.8544
10394TIP3   OH252672   5.414   6.290   3.879 -0.0507  0.2144  0.4241
10394TIP3    H152673   5.377   6.350   3.814 -3.2489 -2.1546 -0.2003
10394TIP3    H252674   5.347   6.283   3.947  1.6532 -0.2006  2.1415
10395TIP3   OH252675   1.585   5.327  14.998 -0.3060 -0.3030  0.3642
10395TIP3    H152676   1.655   5.262  14.989 -0.3986 -0.3112 -0.3345
10395TIP3    H252677   1.591   5.356  15.089  0.1810 -0.7861  0.4916
10396TIP3   OH252678   6.252   3.223  15.679 -0.7697  0.5187  0.3832
10396TIP3    H152679   6.272   3.249  15.769 -1.5634  2.1574  0.1307
10396TIP3    H252680   6.195   3.293  15.647  1.1189  1.0441 -2.0517
10397TIP3   OH252681   0.360   0.707  14.695  0.3536  0.0921 -0.4078
10397TIP3    H152682   0.422   0.711  14.768 -1.2638 -0.9553  1.1192
10397TIP3    H252683   0.373   0.620  14.657  0.6113  0.3140 -0.8325
10398TIP3   OH252684   2.724   3.408  14.731  0.5566 -0.2504  0.0068
10398TIP3    H152685   2.750   3.373  14.816  2.3591  0.3126 -0.2670
10398TIP3    H252686   2.765   3.495  14.727 -0.8804  0.4342 -0.7695
10399TIP3   OH252687   4.405   0.862  10.422 -0.2431 -0.2065 -0.4159
10399TIP3    H152688   4.367   0.948  10.441 -0.3550 -0.7855  2.4564
10399TIP3    H252689   4.499   0.875  10.432 -0.0522  0.0194 -2.1885
10400TIP3   OH252690   6.172   0.050   6.429 -0.2991 -0.4531 -0.1032
10400TIP3    H152691   6.248   0.014   6.383  0.0102 -1.2730  1.0157
10400TIP3    H252692   6.206   0.126   6.475 -0.3734 -0.2533 -0.3773
10401TIP3   OH252693   3.635   2.482   0.624 -0.0085 -0.4949 -0.7846
10401TIP3    H152694   3.713   2.428   0.639  0.5986  0.5102 -0.1812
10401TIP3    H252695   3.595   2.490   0.711  0.7219  1.1886 -0.5575
10402TIP3   OH252696   4.865   6.203  14.548  0.3803  0.3957 -0.4601
10402TIP3    H152697   4.784   6.227  14.593 -0.0587 -2.0858  0.2393
10402TIP3    H252698   4.932   6.203  14.616  0.9706  2.1839 -0.9869
10403TIP3   OH252699   2.740   5.260  13.197 -0.0826 -0.1253  0.2212
10403TIP3    H152700   2.727   5.272  13.103  0.5005  0.8237  0.2502
10403TIP3    H252701   2.653   5.243  13.232 -0.2249 -1.1327 -0.5731
10404TIP3   OH252702   6.340   4.384  12.495 -0.5605 -0.2226  0.7655
10404TIP3    H152703   6.412   4.446  12.510 -1.5380  1.0193  0.5858
10404TIP3    H252704   6.299   4.375  12.581 -1.2202  0.4393  0.5274
10405TIP3   OH252705   1.659   4.405   1.120 -0.4091 -0.1613  0.1639
10405TIP3    H152706   1.691   4.352   1.047  2.3778  0.1664  1.0617
10405TIP3    H252707   1.629   4.342   1.185  1.8664 -0.6902  0.7728
10406TIP3   OH252708   3.944   0.165  17.049  0.3508 -0.2046  0.2712
10406TIP3    H152709   3.862   0.215  17.049  0.9207  0.8353  2.1592
10406TIP3    H252710   3.951   0.130  16.960 -2.7756 -1.4273  0.3962
10407TIP3   OH252711   3.225   0.277  16.135  0.1743 -0.1539 -0.3641
10407TIP3    H152712   3.211   0.345  16.069  0.2809 -0.6574 -0.9046
10407TIP3    H252713   3.139   0.266  16.176 -0.4880 -1.4943 -2.0149
10408TIP3   OH252714   1.060   2.852   3.992  0.0335  0.0005  0.2585
10408TIP3    H152715   1.089   2.766   4.021 -0.7458 -0.5379 -0.5150
10408TIP3    H252716   1.140   2.902   3.982  0.5784 -0.9516 -0.2696
10409TIP3   OH252717   1.762   1.470   5.419  0.0391  0.0343 -0.0079
10409TIP3    H152718   1.834   1.531   5.400 -0.5858  0.6781 -0.3496
10409TIP3    H252719   1.722   1.452   5.333 -0.1455 -0.4003  0.1659
10410TIP3   OH252720   3.047   5.775   5.197 -0.1374 -0.5425  0.1830
10410TIP3    H152721   3.101   5.752   5.273 -0.1424 -2.9274 -0.4419
10410TIP3    H252722   2.959   5.746   5.221 -0.3595 -0.2729 -0.2939
10411TIP3   OH252723   5.726   2.050   1.469 -0.1469 -0.2866  0.0447
10411TIP3    H152724   5.684   2.026   1.386  1.9083 -0.6504 -0.9574
10411TIP3    H252725   5.654   2.052   1.532 -1.3898 -2.8366 -1.1269
10412TIP3   OH252726   5.691   4.011   2.596  0.0300 -0.2166 -0.3067
10412TIP3    H152727   5.607   3.988   2.557 -0.7504  0.2422  1.0512
10412TIP3    H252728   5.680   4.102   2.623  0.0845 -0.8753  2.1160
10413TIP3   OH252729   3.029   3.813   0.352 -0.0302 -0.9314  0.5499
10413TIP3    H152730   3.103   3.853   0.398  0.4885 -0.8764 -0.3283
10413TIP3    H252731   3.021   3.862   0.271 -0.2618 -1.7217  0.0878
10414TIP3   OH252732   3.254   2.006  13.879 -0.3398 -0.0559  0.2069
10414TIP3    H152733   3.335   2.017  13.829 -0.3698 -0.5831  0.0305
10414TIP3    H252734   3.184   2.032  13.818 -0.5400 -2.6056 -0.7845
10415TIP3   OH252735   0.862   2.577   1.860  0.0277  0.3975 -0.0212
10415TIP3    H152736   0.810   2.497   1.847 -1.6932  1.5637 -0.5973
10415TIP3    H252737   0.883   2.576   1.954  0.0945 -0.7594 -0.0324
10416TIP3   OH252738   1.192   1.788   5.952 -0.0100 -0.2151 -0.0072
10416TIP3    H152739   1.152   1.701   5.960  0.8274 -0.9065 -2.5511
10416TIP3    H252740   1.241   1.799   6.034 -1.5670 -1.3443  1.1289
10417TIP3   OH252741   1.166   3.207   4.140 -0.7878 -0.4111  0.4047
10417TIP3    H152742   1.204   3.142   4.080 -0.2038  0.2518  0.0338
10417TIP3    H252743   1.221   3.201   4.218 -0.7291 -0.3669  0.3678
10418TIP3   OH252744   3.790   1.452   1.112 -0.1524 -0.2967  0.1560
10418TIP3    H152745   3.841   1.527   1.141 -0.0010 -0.5423  0.5185
10418TIP3    H252746   3.752   1.481   1.028 -1.5968  0.8712  1.1541
10419TIP3   OH252747   1.438   3.849   1.911  0.3473 -0.8908  0.3255
10419TIP3    H152748   1.424   3.814   1.823 -1.3449 -1.1482  0.6616
10419TIP3    H252749   1.492   3.927   1.898  0.5255 -1.2015 -0.8817
10420TIP3   OH252750   1.659   5.692   3.460 -0.2357  0.5923 -0.1246
10420TIP3    H152751   1.638   5.730   3.375 -0.1421 -1.7308 -1.2758
10420TIP3    H252752   1.755   5.697   3.466 -0.3085  1.6137  0.2940
10421TIP3   OH252753   6.489   6.422   0.746  0.3278 -0.1158  0.4457
10421TIP3    H152754   6.477   6.349   0.807 -0.0678  1.2216  2.0540
10421TIP3    H252755   6.461   6.388   0.662  0.5530 -1.9390  1.0699
10422TIP3   OH252756   2.585   0.740  15.175 -0.4913  0.1851  0.1162
10422TIP3    H152757   2.665   0.764  15.129 -0.8939 -0.1929 -0.7985
10422TIP3    H252758   2.615   0.715  15.263  0.1287  2.2203  0.5425
10423TIP3   OH252759   2.045   2.830  15.851  0.2094  0.5031 -0.0328
10423TIP3    H152760   2.094   2.777  15.789 -1.2043 -2.1789  0.9876
10423TIP3    H252761   1.969   2.861  15.802 -0.1026 -0.2905 -0.0521
10424TIP3   OH252762   6.022   5.678  13.907 -0.3481 -0.3859 -0.7299
10424TIP3    H152763   6.063   5.729  13.837  2.5363  0.0756  1.1137
10424TIP3    H252764   6.033   5.587  13.881 -0.0623 -0.2051 -1.2545
10425TIP3   OH252765   4.802   2.330  13.967  1.0735  0.1303  0.5038
10425TIP3    H152766   4.876   2.325  13.907  2.0206 -1.0658  1.7109
10425TIP3    H252767   4.751   2.405  13.936  1.5407 -0.4178 -1.7398
10426TIP3   OH252768   4.166   1.160  16.460  0.6893  0.2238  0.6164
10426TIP3    H152769   4.152   1.138  16.368  0.7723 -0.1006  0.6770
10426TIP3    H252770   4.261   1.160  16.471  0.6716 -0.6768  0.9078
10427TIP3   OH252771   6.473   1.539   1.849  0.0099  0.2150  0.4709
10427TIP3    H152772   6.387   1.505   1.875  0.0971 -0.8645 -0.5573
10427TIP3    H252773   6.526   1.533   1.929 -0.1585 -1.5568  0.5020
10428TIP3   OH252774   5.850   4.182  16.676 -0.3411  0.7163 -0.1127
10428TIP3    H152775   5.765   4.187  16.720 -0.1053 -0.4517  0.5219
10428TIP3    H252776   5.887   4.270  16.684 -0.5647  0.6811  1.5145
10429TIP3   OH252777   3.979   5.684  14.635 -0.0206  0.2530  0.6768
10429TIP3    H152778   4.027   5.620  14.688  1.0453 -0.3617 -0.9398
10429TIP3    H252779   4.043   5.752  14.616  0.6386 -1.0253 -2.2798
10430TIP3   OH252780   0.795   5.664   4.538  0.1710  0.0793 -0.5303
10430TIP3    H152781   0.703   5.679   4.560  0.3965  3.3929 -1.2617
10430TIP3    H252782   0.844   5.706   4.609  1.2163 -2.2325  0.2069
10431TIP3   OH252783   2.187   3.228  15.826  0.1963  0.1150  0.3876
10431TIP3    H152784   2.214   3.269  15.908  2.4975 -0.2830 -0.1039
10431TIP3    H252785   2.228   3.141  15.828 -1.4044 -0.7058 -0.3044
10432TIP3   OH252786   4.581   3.061   4.530  0.5456 -0.2633  0.0361
10432TIP3    H152787   4.515   3.129   4.533 -0.6158 -1.3996  1.9495
10432TIP3    H252788   4.651   3.093   4.587 -0.3437 -0.9544  1.5698
10433TIP3   OH252789   4.230   3.546   4.947  0.5714 -0.3240  0.0876
10433TIP3    H152790   4.270   3.619   4.995  0.7050  0.9404 -1.8526
10433TIP3    H252791   4.299   3.479   4.945 -0.0226 -1.1932  3.1069
10434TIP3   OH252792   2.955   1.106  15.240  0.3846 -0.0396  0.6470
10434TIP3    H152793   3.042   1.115  15.201  0.1231 -0.5850 -0.0787
10434TIP3    H252794   2.921   1.196  15.244 -0.1198 -0.0787 -1.6595
10435TIP3   OH252795   5.345   4.828   1.488 -0.0947  0.0026 -0.0592
10435TIP3    H152796   5.337   4.918   1.458 -0.0747  0.0576  0.0999
10435TIP3    H252797   5.424   4.827   1.542  1.7734 -0.7948 -2.5744
10436TIP3   OH252798   2.815   4.737   1.715 -0.1786 -0.2142  0.0540
10436TIP3    H152799   2.817   4.721   1.810 -1.2700 -0.3605  0.0605
10436TIP3    H252800   2.728   4.709   1.688  0.3221 -0.7033 -1.1008
10437TIP3   OH252801   3.249   4.537   1.432 -0.4402 -0.2934  0.2473
10437TIP3    H152802   3.155   4.520   1.423 -0.5391 -0.1968  1.0723
10437TIP3    H252803   3.261   4.563   1.523  0.2565  0.5963 -0.0822
10438TIP3   OH252804   0.231   4.873  10.564  0.4656  0.0029 -0.3654
10438TIP3    H152805   0.153   4.818  10.559 -0.1891  0.6217  2.0088
10438TIP3    H252806   0.218   4.939  10.495 -0.8396 -0.2446 -0.3756
10439TIP3   OH252807   1.096   5.505  11.554  0.7023 -0.3090  0.3146
10439TIP3    H152808   1.144   5.481  11.633  3.7294  0.9245 -0.9833
10439TIP3    H252809   1.135   5.451  11.485  0.0116  0.5300 -0.7751
10440TIP3   OH252810   1.251   4.446  12.785  0.1175 -0.5195 -0.7177
10440TIP3    H152811   1.168   4.452  12.833 -0.7822 -0.6947 -2.2009
10440TIP3    H252812   1.317   4.480  12.846 -1.2767  1.2282 -0.1154
10441TIP3   OH252813   3.164   4.557  16.534 -0.2418 -0.1597  0.1018
10441TIP3    H152814   3.190   4.646  16.558  0.1061 -0.1651 -0.2447
10441TIP3    H252815   3.079   4.544  16.575 -1.2460  1.0519 -1.4837
10442TIP3   OH252816   1.502   3.943   9.909  0.1885  0.0198 -0.3659
10442TIP3    H152817   1.537   3.869   9.860  0.0824  0.4085 -1.0463
10442TIP3    H252818   1.533   4.020   9.862  1.1855  0.4575  0.9424
10443TIP3   OH252819   6.351   4.949   2.278 -0.9869  0.4007  0.2024
10443TIP3    H152820   6.344   4.987   2.365  0.6793  0.7471  0.2118
10443TIP3    H252821   6.415   4.879   2.287 -0.8949  0.3482 -0.7156
10444TIP3   OH252822   5.462   1.425  11.291  0.0990  0.9467 -0.1273
10444TIP3    H152823   5.433   1.453  11.377 -1.9793 -0.0316 -0.4527
10444TIP3    H252824   5.518   1.349  11.309 -1.6733 -0.3026  0.3297
10445TIP3   OH252825   4.964   5.163  11.032  0.1142  0.5004  0.0278
10445TIP3    H152826   4.958   5.070  11.050  2.5634  0.2838  0.1411
10445TIP3    H252827   4.894   5.180  10.969 -0.0941 -1.5033 -0.3501
10446TIP3   OH252828   4.337   2.207   2.688 -0.0151  0.6299  0.0835
10446TIP3    H152829   4.328   2.113   2.704  2.5508  0.1406 -0.8805
10446TIP3    H252830   4.354   2.214   2.594  0.7493  1.9585  0.2931
10447TIP3   OH252831   2.336   2.083  15.345  0.5940  0.2466  0.4977
10447TIP3    H152832   2.350   2.005  15.399  1.3985  1.9810  2.9903
10447TIP3    H252833   2.245   2.076  15.316 -0.2397 -0.3676  2.9656
10448TIP3   OH252834   1.907   0.413   2.466 -0.3851 -0.3046 -0.1813
10448TIP3    H152835   1.962   0.334   2.467 -1.2101 -0.9062 -0.3430
10448TIP3    H252836   1.961   0.479   2.424  1.1033 -0.1701  1.7776
10449TIP3   OH252837   3.273   6.525   4.015 -0.2591 -0.8095 -0.2796
10449TIP3    H152838   3.191   6.541   4.062 -1.2765 -1.3615 -1.7894
10449TIP3    H252839   3.292   6.608   3.972  1.5164  0.2074  2.2018
10450TIP3   OH252840   2.565   3.494  12.865  0.1306  0.6184 -0.1560
10450TIP3    H152841   2.624   3.451  12.926  0.9768  0.4355 -1.0762
10450TIP3    H252842   2.486   3.440  12.867 -0.0463  0.9020  1.1250
10451TIP3   OH252843   2.534   3.545   4.849  0.4420 -0.4292  0.3490
10451TIP3    H152844   2.617   3.498   4.853  0.5913 -0.2950 -0.9179
10451TIP3    H252845   2.559   3.637   4.847  0.3802 -0.4067 -1.6720
10452TIP3   OH252846   2.210   2.031   5.280  0.2592  0.3199 -0.1470
10452TIP3    H152847   2.119   2.023   5.308 -0.6545  0.7265 -2.7781
10452TIP3    H252848   2.258   2.052   5.361 -1.7949 -0.7566  1.4581
10453TIP3   OH252849   1.801   2.159  12.774 -0.2501  0.6851  0.1311
10453TIP3    H152850   1.728   2.098  12.768 -1.2345  1.8292 -0.0026
10453TIP3    H252851   1.801   2.205  12.690 -0.2476  1.6552  0.6503
10454TIP3   OH252852   6.039   0.957  14.153 -0.0536  0.4446  0.5148
10454TIP3    H152853   5.945   0.943  14.146 -0.1630  0.6586  1.4391
10454TIP3    H252854   6.076   0.901  14.084 -0.7876 -0.5145  0.8658
10455TIP3   OH252855   1.625   4.672  13.627 -0.0197 -0.2863 -0.2427
10455TIP3    H152856   1.601   4.619  13.551  0.8381  0.9362 -1.4127
10455TIP3    H252857   1.714   4.702  13.609 -0.8228  2.3925 -0.1442
10456TIP3   OH252858   3.613   5.878   0.074 -0.3014 -0.8023  0.5719
10456TIP3    H152859   3.653   5.829   0.147 -0.8456 -2.2231 -0.0436
10456TIP3    H252860   3.685   5.930   0.038 -0.4906  1.9500  3.6128
10457TIP3   OH252861   5.173   3.593  10.485 -0.0269 -0.0142  0.1342
10457TIP3    H152862   5.101   3.556  10.434  1.0315 -0.7798 -0.8501
10457TIP3    H252863   5.146   3.683  10.502 -1.6344 -0.5570  0.6146
10458TIP3   OH252864   6.576   3.850  11.115  0.2120 -0.0858  0.4813
10458TIP3    H152865   6.630   3.773  11.101 -0.2040 -0.2473 -0.2941
10458TIP3    H252866   6.638   3.921  11.134  0.6355 -0.4551  0.4741
10459TIP3   OH252867   1.783   0.920   5.061 -0.2972  0.0076 -0.0767
10459TIP3    H152868   1.779   0.825   5.060 -1.1739  0.0329 -1.3928
10459TIP3    H252869   1.752   0.945   5.148 -0.5050 -0.8921  0.1122
10460TIP3   OH252870   5.596   6.386   2.652 -0.1431  0.3217  0.0672
10460TIP3    H152871   5.676   6.334   2.662  0.2464  1.3260  2.8669
10460TIP3    H252872   5.543   6.364   2.728 -1.7420  1.0991 -0.7594
10461TIP3   OH252873   1.020   5.259  13.997 -0.0119 -0.1456  0.2893
10461TIP3    H152874   1.107   5.221  14.000  0.6311  1.1889 -0.5806
10461TIP3    H252875   1.010   5.291  13.907 -0.3720  1.9688  1.0049
10462TIP3   OH252876   3.513   5.954   0.971 -0.0357  0.1924 -0.0482
10462TIP3    H152877   3.541   6.018   0.905  1.4612  1.3457  1.6166
10462TIP3    H252878   3.482   6.007   1.044  1.6043 -0.9230  1.5360
10463TIP3   OH252879   6.102   4.776   1.139 -0.1714  0.4276  1.0939
10463TIP3    H152880   6.180   4.721   1.134 -0.3534  0.2378 -2.5228
10463TIP3    H252881   6.030   4.718   1.116 -0.7530  1.4959  0.1110
10464TIP3   OH252882   3.949   0.994   4.389  0.4412  0.1371 -0.3013
10464TIP3    H152883   4.019   0.953   4.339 -0.8103 -0.6008 -1.5128
10464TIP3    H252884   3.924   0.927   4.454 -0.3872 -0.3498 -1.1025
10465TIP3   OH252885   3.877   2.656   0.976 -0.5417 -0.5339  0.2165
10465TIP3    H152886   3.859   2.749   0.970 -1.6396 -0.7640 -0.1595
10465TIP3    H252887   3.969   2.651   1.003 -0.3542  0.6413 -0.1756
10466TIP3   OH252888   2.855   6.641  16.099  0.3887  0.1930  0.1439
10466TIP3    H152889   2.849   6.590  16.180  0.8137 -0.4295 -0.2096
10466TIP3    H252890   2.765   6.649  16.069  0.3488 -0.7349 -0.0236
10467TIP3   OH252891   0.316   5.776   0.124  0.0899  0.0686  0.1029
10467TIP3    H152892   0.356   5.706   0.073  0.0623  0.6334 -0.7345
10467TIP3    H252893   0.304   5.740   0.211  0.6850 -0.7359 -0.1411
10468TIP3   OH252894   6.608   0.473  10.421 -0.1502 -0.2180  0.5805
10468TIP3    H152895   6.652   0.466  10.337  1.4244 -0.6973  1.4076
10468TIP3    H252896   6.676   0.502  10.482 -1.5655  1.4528  1.4524
10469TIP3   OH252897   6.551   3.424  13.035  0.0844 -0.1891 -0.1957
10469TIP3    H152898   6.516   3.335  13.031 -0.3974 -0.0082 -0.0552
10469TIP3    H252899   6.474   3.480  13.032  0.2325  0.1782  1.9335
10470TIP3   OH252900   0.488   5.150   0.349  0.5603  0.4605 -0.1824
10470TIP3    H152901   0.578   5.179   0.333 -0.3687  3.0253 -1.2484
10470TIP3    H252902   0.467   5.184   0.436  0.1844  1.0839 -0.5117
10471TIP3   OH252903   5.741   1.759  13.285 -0.1377  0.3812  0.2122
10471TIP3    H152904   5.764   1.679  13.238  0.1645 -0.4408  1.7073
10471TIP3    H252905   5.822   1.784  13.330  0.2470  2.4446 -1.4475
10472TIP3   OH252906   5.521   0.074  14.606  0.0988 -0.2551 -0.3071
10472TIP3    H152907   5.427   0.059  14.617  0.2179 -0.3036  0.7069
10472TIP3    H252908   5.539   0.153  14.657  0.6435 -0.3301 -0.3775
10473TIP3   OH252909   2.181   2.735  15.639  0.0094 -0.0440  0.0936
10473TIP3    H152910   2.268   2.756  15.607  0.2771  0.0020  0.8175
10473TIP3    H252911   2.155   2.657  15.591  0.4510 -0.0583 -0.1223
10474TIP3   OH252912   4.415   3.838   3.053  0.4935  0.1036 -0.1463
10474TIP3    H152913   4.399   3.918   3.003  0.7306  0.3496  0.1694
10474TIP3    H252914   4.505   3.813   3.032  0.2833 -0.3193 -0.5724
10475TIP3   OH252915   1.186   4.723  14.393  0.0979 -0.4355  0.0945
10475TIP3    H152916   1.127   4.649  14.382 -1.8697  0.5372  2.8316
10475TIP3    H252917   1.136   4.798  14.361  0.9799  0.0733 -0.1159
10476TIP3   OH252918   5.175   1.346  16.604  0.4455  0.2261 -0.0550
10476TIP3    H152919   5.165   1.420  16.545 -2.7279 -0.4669 -0.5731
10476TIP3    H252920   5.185   1.270  16.546 -0.3886 -0.1960  0.3398
10477TIP3   OH252921   2.872   0.690  12.870  0.2759 -0.0309 -0.0434
10477TIP3    H152922   2.953   0.724  12.909  0.6935 -2.2019  1.0990
10477TIP3    H252923   2.898   0.663  12.781  1.0150 -1.3401  0.5417
10478TIP3   OH252924   5.385   0.709  14.349  0.2901  0.0020  0.3773
10478TIP3    H152925   5.307   0.655  14.329 -0.3245  0.5266  1.2895
10478TIP3    H252926   5.430   0.660  14.418  0.3834  0.0487  0.3480
10479TIP3   OH252927   2.438   5.700  11.845  0.6657  0.0560  0.1814
10479TIP3    H152928   2.504   5.647  11.890 -0.2762 -1.1536  0.1910
10479TIP3    H252929   2.474   5.713  11.757  1.1326 -0.1859  0.3305
10480TIP3   OH252930   5.385   5.558  10.373  0.3984 -0.3072  0.0761
10480TIP3    H152931   5.420   5.586  10.457  1.7524  0.7065 -0.7791
10480TIP3    H252932   5.462   5.548  10.317 -0.2999 -2.7205 -0.5865
10481TIP3   OH252933   6.809   0.413  13.181  0.3435 -0.4531  0.1941
10481TIP3    H152934   6.817   0.484  13.117  2.1697 -0.9911 -0.2305
10481TIP3    H252935   6.822   0.456  13.265 -3.9091  0.6053  0.5453
10482TIP3   OH252936   1.999   5.780   1.912  0.1482  0.0431 -0.0502
10482TIP3    H152937   2.059   5.809   1.844  0.3978 -0.0218  0.1405
10482TIP3    H252938   1.980   5.860   1.962 -0.3043  0.1554 -0.4049
10483TIP3   OH252939   3.875   6.060   4.147 -0.0388  0.1029 -0.3157
10483TIP3    H152940   3.839   6.035   4.061 -0.6063  0.7009 -0.2554
10483TIP3    H252941   3.964   6.091   4.127 -0.3359  0.6931 -0.7519
10484TIP3   OH252942   5.188   2.700  11.618 -0.0328  0.2226  0.5507
10484TIP3    H152943   5.264   2.758  11.615  0.1351 -0.0052 -1.4952
10484TIP3    H252944   5.114   2.756  11.597  0.1856 -0.2767 -1.8894
10485TIP3   OH252945   3.893   4.072   0.703 -0.4962  0.1680  0.1853
10485TIP3    H152946   3.850   4.041   0.783 -1.3079 -3.0188 -1.3236
10485TIP3    H252947   3.851   4.156   0.684 -2.6946 -0.5984  1.3074
10486TIP3   OH252948   5.137   1.374  16.213 -0.6379 -0.0612 -0.0553
10486TIP3    H152949   5.140   1.284  16.182  1.6536  0.0154 -0.2114
10486TIP3    H252950   5.192   1.423  16.151 -2.0557  1.5377 -0.1493
10487TIP3   OH252951   5.680   0.282  16.860  0.1794 -0.1860  0.1165
10487TIP3    H152952   5.655   0.190  16.865 -0.8009  0.0952  0.8585
10487TIP3    H252953   5.637   0.314  16.781 -0.1135 -0.1974  0.2681
10488TIP3   OH252954   4.505   1.825   3.810 -0.0640 -0.2669  0.1237
10488TIP3    H152955   4.571   1.791   3.871 -1.1745 -0.9702  0.9815
10488TIP3    H252956   4.426   1.776   3.831 -1.0520  1.0412 -0.4223
10489TIP3   OH252957   5.128   2.154  14.470 -0.2214 -0.1119 -1.0907
10489TIP3    H152958   5.149   2.239  14.431  3.3367 -0.3544  0.0357
10489TIP3    H252959   5.169   2.090  14.412 -2.2583 -1.1273 -1.5311
10490TIP3   OH252960   1.358   2.578   9.845 -0.2647 -0.2673 -0.4056
10490TIP3    H152961   1.337   2.485   9.836  0.7401 -0.3177 -2.9623
10490TIP3    H252962   1.275   2.623   9.833 -0.4600 -0.7806 -1.0439
10491TIP3   OH252963   2.777   0.320  12.577 -0.3659 -1.0191 -0.3556
10491TIP3    H152964   2.788   0.325  12.672  0.6190 -0.3829 -0.4817
10491TIP3    H252965   2.690   0.356  12.561 -0.1058 -0.0872  0.2311
10492TIP3   OH252966   1.426   2.405  13.825 -0.0038  0.0429 -0.0475
10492TIP3    H152967   1.499   2.462  13.805 -0.4612  0.3504 -0.8817
10492TIP3    H252968   1.399   2.369  13.740 -0.0166 -1.0598  0.3981
10493TIP3   OH252969   2.904   1.169   1.373  0.7213 -0.3349  0.4104
10493TIP3    H152970   2.816   1.207   1.377  1.0345  0.3297  1.8195
10493TIP3    H252971   2.930   1.178   1.282  1.1523  3.8448  0.7198
10494TIP3   OH252972   0.729   0.801  11.112 -0.0454  0.1300 -0.1514
10494TIP3    H152973   0.813   0.758  11.127  1.5375  1.7434 -3.3479
10494TIP3    H252974   0.664   0.735  11.136  2.1119 -1.6930  1.1353
10495TIP3   OH252975   6.017   0.147  11.975 -0.0214  0.5504 -0.1193
10495TIP3    H152976   6.088   0.196  12.018 -1.1436  1.0766  1.1999
10495TIP3    H252977   5.982   0.209  11.911 -1.0199  1.2858  1.1018
10496TIP3   OH252978   6.231   2.748  16.334 -0.4663  0.4522  0.1635
10496TIP3    H152979   6.291   2.775  16.403  1.6108 -0.8776 -1.0279
10496TIP3    H252980   6.145   2.747  16.376  0.7089 -0.2541  2.7114
10497TIP3   OH252981   6.110   2.807   2.461 -0.3652  0.4880 -0.1833
10497TIP3    H152982   6.038   2.789   2.521  0.0263 -2.7477 -0.5099
10497TIP3    H252983   6.069   2.810   2.374 -0.1015 -2.9992 -0.5740
10498TIP3   OH252984   2.558   4.900  12.020  0.1581  0.3118 -0.2210
10498TIP3    H152985   2.597   4.858  11.943  0.9187 -1.0169  0.8463
10498TIP3    H252986   2.563   4.993  12.001 -0.4205  0.0078 -2.1258
10499TIP3   OH252987   3.479   2.390   0.120  0.2146 -0.1795  0.0561
10499TIP3    H152988   3.471   2.303   0.081  0.2121 -0.7212  1.2383
10499TIP3    H252989   3.496   2.374   0.213 -2.1446  1.0898  0.7833
10500TIP3   OH252990   3.176   5.217  12.397  0.3690  0.3095  0.7950
10500TIP3    H152991   3.230   5.222  12.318  0.8522  1.3818  1.1816
10500TIP3    H252992   3.239   5.218  12.469 -0.1429  1.2987  1.2430
10501TIP3   OH252993   3.914   0.910   3.227  0.8071 -0.4104 -0.4248
10501TIP3    H152994   3.991   0.964   3.247 -0.9069  1.9322  0.3363
10501TIP3    H252995   3.948   0.821   3.219  3.4692  0.4235  0.5785
10502TIP3   OH252996   0.143   3.654   0.420  0.0857  0.2984 -0.2648
10502TIP3    H152997   0.202   3.730   0.420  0.3743  0.1394  1.9795
10502TIP3    H252998   0.171   3.603   0.496 -1.5163 -0.9376 -0.4666
10503TIP3   OH252999   0.960   3.116  15.562  0.3665  0.3273  0.3493
10503TIP3    H153000   0.928   3.206  15.559  0.7806  0.4609 -0.2158
10503TIP3    H253001   1.003   3.108  15.647 -0.5873  0.3388  0.8512
10504TIP3   OH253002   0.303   4.092  10.583  0.4343  0.5152 -0.0465
10504TIP3    H153003   0.363   4.035  10.536  0.9455  1.1205 -0.1413
10504TIP3    H253004   0.283   4.163  10.521 -0.8641  0.0112 -0.2430
10505TIP3   OH253005   6.249   3.331  16.413  0.6557 -0.0569  0.1390
10505TIP3    H153006   6.215   3.328  16.503  0.4013  0.9207  0.0924
10505TIP3    H253007   6.319   3.397  16.416  1.5719 -1.0009 -0.0903
10506TIP3   OH253008   5.310   3.367   5.360  0.0205  0.3334  0.4463
10506TIP3    H153009   5.319   3.407   5.446  0.4583 -0.0147  0.5610
10506TIP3    H253010   5.276   3.437   5.304  1.0682  0.9549  0.5780
10507TIP3   OH253011   5.270   6.361  10.566  0.0011 -0.1568 -0.3330
10507TIP3    H153012   5.263   6.355  10.470  0.3694  0.8692 -0.4316
10507TIP3    H253013   5.336   6.428  10.581 -1.6553  1.3139  0.6747
10508TIP3   OH253014   3.585   1.594  17.000  0.1555  0.3604 -0.1804
10508TIP3    H153015   3.660   1.584  17.059 -0.3881  2.3818  0.9551
10508TIP3    H253016   3.529   1.519  17.019  0.7973  0.0720  0.6338
10509TIP3   OH253017   6.758   1.341   1.796  0.3260 -0.5554 -0.1991
10509TIP3    H153018   6.687   1.328   1.733 -0.2638  0.2374  0.2759
10509TIP3    H253019   6.715   1.382   1.872  1.4065  0.6168 -0.1857
10510TIP3   OH253020   6.406   4.211   5.607  0.2321 -0.3975  0.1261
10510TIP3    H153021   6.344   4.175   5.670  1.7793 -1.4090  1.1546
10510TIP3    H253022   6.382   4.303   5.599 -2.0477 -0.9851 -0.3597
10511TIP3   OH253023   1.195   5.862   0.257 -0.1440 -0.1288  0.0644
10511TIP3    H153024   1.180   5.775   0.221 -1.0493  0.4436 -1.0022
10511TIP3    H253025   1.172   5.922   0.185  1.1531  0.9736  0.5285
10512TIP3   OH253026   3.112   4.409   3.486 -0.5406 -0.0360 -0.0459
10512TIP3    H153027   3.118   4.434   3.578  0.3080 -0.2887 -0.0225
10512TIP3    H253028   3.195   4.365   3.467  0.0332  1.4945 -1.3780
10513TIP3   OH253029   0.907   1.585   1.529 -0.1534  0.3706 -0.9769
10513TIP3    H153030   0.885   1.495   1.552 -1.7531  0.7591 -0.9158
10513TIP3    H253031   0.957   1.577   1.448  0.9045 -0.6448 -0.2587
10514TIP3   OH253032   4.364   5.040   0.344 -0.0042  0.3408  0.0275
10514TIP3    H153033   4.337   5.001   0.428  1.9360  0.6176  0.8305
10514TIP3    H253034   4.459   5.052   0.353  0.0224  1.7031 -1.6806
10515TIP3   OH253035   4.609   4.840   1.271  0.3855 -0.2278  0.5201
10515TIP3    H153036   4.524   4.836   1.227  0.0629  0.0461  1.1062
10515TIP3    H253037   4.607   4.766   1.332  0.1987  0.3128  1.1762
10516TIP3   OH253038   5.986   5.228   4.850  0.1883 -0.1219 -0.2319
10516TIP3    H153039   6.081   5.212   4.847  0.2588  0.0762  0.6745
10516TIP3    H253040   5.971   5.270   4.935 -0.6902  0.0227 -0.4461
10517TIP3   OH253041   0.949   2.855  11.848  0.0826  0.7205 -0.4568
10517TIP3    H153042   0.955   2.950  11.852  2.9964  0.6034  2.0715
10517TIP3    H253043   0.865   2.834  11.890  0.7905  2.1688  1.8659
10518TIP3   OH253044   4.815   3.800   2.174  0.1853  0.1679  0.3909
10518TIP3    H153045   4.765   3.729   2.215 -0.4022  1.1198  1.3723
10518TIP3    H253046   4.888   3.816   2.234  1.0882 -0.4929 -0.5008
10519TIP3   OH253047   3.190   6.723   5.158  0.1871  0.0170 -0.5095
10519TIP3    H153048   3.233   6.684   5.234  1.0906 -0.0963 -1.0603
10519TIP3    H253049   3.103   6.683   5.157  0.7587 -1.2712 -0.5088
10520TIP3   OH253050   1.086   1.724  16.115 -0.1881  0.0437 -0.3813
10520TIP3    H153051   1.059   1.729  16.023  0.2958  0.0976 -0.5216
10520TIP3    H253052   1.160   1.784  16.122  1.5839 -1.9990 -0.5969
10521TIP3   OH253053   3.288   5.161   2.749 -0.2431  0.1429  0.2941
10521TIP3    H153054   3.282   5.222   2.823  0.4003  0.8934 -0.2681
10521TIP3    H253055   3.235   5.086   2.777 -2.2388  1.5177  0.4212
10522TIP3   OH253056   4.650   6.593   0.961  0.1874 -0.6126  0.9119
10522TIP3    H153057   4.722   6.648   0.929 -0.2468  0.8751  2.3326
10522TIP3    H253058   4.589   6.588   0.887  0.9694 -0.4854  0.2472
10523TIP3   OH253059   0.447   5.278  13.276  0.3722  0.1691 -0.4499
10523TIP3    H153060   0.439   5.336  13.200 -0.1182  2.0581  0.9968
10523TIP3    H253061   0.366   5.290  13.325  1.7181  0.9714  1.7179
10524TIP3   OH253062   6.373   1.333  13.547 -0.2349 -0.1064  0.6566
10524TIP3    H153063   6.349   1.242  13.564 -0.7294  0.0083  0.5947
10524TIP3    H253064   6.421   1.331  13.465  0.1313 -0.3674  0.8763
10525TIP3   OH253065   5.206   4.062  16.279 -0.1757  0.0484  0.0587
10525TIP3    H153066   5.124   4.104  16.255  1.3028  2.6409 -0.9325
10525TIP3    H253067   5.224   4.095  16.368 -0.4983 -1.0369  0.5385
10526TIP3   OH253068   1.596   1.400   2.787 -0.0293 -0.2943 -0.3086
10526TIP3    H153069   1.542   1.470   2.823 -0.5428 -0.3719 -0.9020
10526TIP3    H253070   1.586   1.327   2.848 -0.6130 -0.3114 -0.4203
10527TIP3   OH253071   3.940   3.783   2.306  0.2839 -0.3895  0.2555
10527TIP3    H153072   4.028   3.787   2.269  0.6139 -0.7600  0.9857
10527TIP3    H253073   3.896   3.713   2.258 -0.2724  1.0356 -1.4530
10528TIP3   OH253074   5.798   5.956  13.459  0.4675  0.3160  0.6608
10528TIP3    H153075   5.837   5.879  13.501  0.0190  0.7398  1.8833
10528TIP3    H253076   5.735   5.989  13.522 -0.2356  0.9839 -0.3615
10529TIP3   OH253077   4.782   0.840   2.884 -0.1739 -0.0250 -0.1927
10529TIP3    H153078   4.707   0.782   2.893  0.0577 -0.1670  0.9601
10529TIP3    H253079   4.858   0.784   2.902  0.1576  0.2802 -0.6273
10530TIP3   OH253080   1.999   5.860  12.146  0.5993  0.0842 -0.1626
10530TIP3    H153081   1.962   5.787  12.096 -2.6431  1.0998  0.5122
10530TIP3    H253082   2.028   5.819  12.228 -1.5051 -0.4745  0.3576
10531TIP3   OH253083   5.144   6.041  10.766 -0.0590  0.3569 -0.2049
10531TIP3    H153084   5.107   5.957  10.739  0.7709  0.0143 -0.3064
10531TIP3    H253085   5.073   6.084  10.813 -0.6613 -0.1824 -0.5943
10532TIP3   OH253086   3.514   1.482   2.546 -0.0495 -0.2369 -0.1338
10532TIP3    H153087   3.499   1.389   2.532  1.0504 -0.6350  1.1600
10532TIP3    H253088   3.547   1.488   2.636 -0.1519  1.4098 -0.1714
10533TIP3   OH253089   1.679   3.258  16.026  0.1242  0.0500  0.1501
10533TIP3    H153090   1.770   3.267  15.997 -0.2064 -0.1138 -0.9683
10533TIP3    H253091   1.660   3.340  16.070 -0.1514  1.4069 -2.3468
10534TIP3   OH253092   4.895   5.015   0.784 -0.4232 -0.0834  0.2051
10534TIP3    H153093   4.939   4.934   0.757 -1.9438 -0.9519  0.1793
10534TIP3    H253094   4.899   5.072   0.707  0.4658 -0.2262  0.1456
10535TIP3   OH253095   6.086   2.719  16.093  0.1634  0.0200  1.0457
10535TIP3    H153096   6.049   2.799  16.057 -0.1314 -0.6995 -0.3150
10535TIP3    H253097   6.143   2.749  16.164 -0.9423  1.3301  1.4325
10536TIP3   OH253098   1.602   2.335  15.221  0.3252  0.2309 -0.3871
10536TIP3    H153099   1.563   2.413  15.261  0.1467  0.8775 -1.7657
10536TIP3    H253100   1.536   2.267  15.232 -0.4239  0.8340 -1.0221
10537TIP3   OH253101   2.220   2.116   3.548 -0.2792 -0.6132  0.0889
10537TIP3    H153102   2.240   2.100   3.456  0.5612  0.5426  0.0546
10537TIP3    H253103   2.124   2.116   3.551 -0.3684  1.2671 -1.1719
10538TIP3   OH253104   2.644   6.429  17.071  0.5441 -0.5804 -0.3788
10538TIP3    H153105   2.555   6.450  17.044  0.0295  2.0343  2.7146
10538TIP3    H253106   2.697   6.498  17.031  0.3822  0.7551  1.5834
10539TIP3   OH253107   0.099   0.212   1.321  0.5192  0.0185 -0.7154
10539TIP3    H153108   0.110   0.233   1.413 -1.1037 -2.5202  0.1734
10539TIP3    H253109   0.045   0.283   1.286 -1.2803 -0.3849  1.0471
10540TIP3   OH253110   1.323   0.902   4.689  0.0302 -0.2971 -0.2479
10540TIP3    H153111   1.283   0.980   4.727  0.2104 -0.6701  0.7345
10540TIP3    H253112   1.250   0.841   4.677 -0.0015 -0.2406 -0.3419
10541TIP3   OH253113   0.073   6.800   4.114  0.4394  0.4887  0.2279
10541TIP3    H153114   0.050   6.733   4.049 -0.7727  1.1067 -0.0186
10541TIP3    H253115   0.169   6.801   4.114  0.4791  0.4540 -1.5523
10542TIP3   OH253116   6.232   1.070  16.205 -0.1814  0.1025 -0.5871
10542TIP3    H153117   6.167   1.047  16.271 -0.4568  1.7799 -0.2045
10542TIP3    H253118   6.182   1.075  16.123 -0.2476 -0.0197 -0.5536
10543TIP3   OH253119   5.158   4.744  12.292  0.1586  0.2019 -0.2424
10543TIP3    H153120   5.222   4.673  12.295 -1.0938 -0.9420  2.6343
10543TIP3    H253121   5.205   4.821  12.324  0.1801 -0.6056  1.7518
10544TIP3   OH253122   3.742   0.820  15.659  0.1569  0.1235  0.2938
10544TIP3    H153123   3.746   0.853  15.749 -0.8522  0.7677  0.1237
10544TIP3    H253124   3.746   0.899  15.605  2.2235 -0.3364 -0.3033
10545TIP3   OH253125   6.578   6.774   5.352 -0.1205 -0.0069  0.3845
10545TIP3    H153126   6.574   6.850   5.294 -2.9799 -1.4670 -1.5812
10545TIP3    H253127   6.621   6.806   5.431  0.9269  2.9836 -1.2404
10546TIP3   OH253128   3.300   3.829  11.228  0.0748  0.0668  0.1873
10546TIP3    H153129   3.372   3.856  11.286  0.3516  0.2635 -0.2422
10546TIP3    H253130   3.343   3.794  11.151 -0.2930 -0.9949  0.4500
10547TIP3   OH253131   5.265   5.618   3.354  0.4272  0.4726  0.9312
10547TIP3    H153132   5.180   5.574   3.357  0.4785  0.4130  3.4201
10547TIP3    H253133   5.329   5.547   3.341  0.2328  0.2573  1.1432
10548TIP3   OH253134   5.591   1.694  12.726 -0.0698 -0.1268  1.1705
10548TIP3    H153135   5.506   1.727  12.695  0.1701  0.3969  1.0586
10548TIP3    H253136   5.610   1.748  12.803  0.7482  0.6176  0.4750
10549TIP3   OH253137   5.883   0.275   6.113 -0.5484 -0.4978 -0.2919
10549TIP3    H153138   5.882   0.337   6.186 -1.3717  0.1426 -0.8337
10549TIP3    H253139   5.911   0.193   6.153  2.8843  0.6695  0.0248
10550TIP3   OH253140   1.719   1.224  16.235 -0.6432 -0.0324 -0.6639
10550TIP3    H153141   1.775   1.209  16.159  0.8289 -3.2269  0.8397
10550TIP3    H253142   1.779   1.220  16.310 -2.3264  0.7669  0.8003
10551TIP3   OH253143   0.160   0.851  17.061  0.2005 -0.2642  0.4635
10551TIP3    H153144   0.131   0.902  17.137  1.4445  0.4668  0.4715
10551TIP3    H253145   0.079   0.812  17.026 -0.5260  0.2132  1.5458
10552TIP3   OH253146   3.451   6.004  15.191  0.9034  0.1551  0.4434
10552TIP3    H153147   3.471   5.913  15.214  1.3152 -0.0345 -0.6029
10552TIP3    H253148   3.441   6.049  15.275 -0.0185 -1.0071  0.9721
10553TIP3   OH253149   2.790   6.362   0.531  0.3538  0.1967  0.1996
10553TIP3    H153150   2.740   6.290   0.492  0.6672 -0.9392  1.8340
10553TIP3    H253151   2.868   6.369   0.476 -0.7542  0.9233 -1.3983
10554TIP3   OH253152   5.449   6.628  12.283  0.4061  0.0921  0.5740
10554TIP3    H153153   5.466   6.584  12.366 -0.3794  0.7313  1.0889
10554TIP3    H253154   5.457   6.559  12.217  0.4989 -0.5350  1.2310
10555TIP3   OH253155   2.087   6.545  14.567 -0.0746  0.3302  0.2941
10555TIP3    H153156   2.112   6.499  14.647 -0.2839 -1.7352 -0.7549
10555TIP3    H253157   2.136   6.499  14.498 -1.6153  0.5710 -1.0045
10556TIP3   OH253158   3.436   6.512  11.437 -0.3677  0.0712  0.2319
10556TIP3    H153159   3.369   6.486  11.501 -1.7754 -0.8532 -1.5210
10556TIP3    H253160   3.388   6.567  11.375  1.1545  1.6144  0.3645
10557TIP3   OH253161   3.137   5.363   1.860  0.5902  0.1073 -0.3412
10557TIP3    H153162   3.067   5.310   1.898 -0.0899  1.2942  0.1455
10557TIP3    H253163   3.095   5.410   1.788  1.1307  0.1246 -0.6509
10558TIP3   OH253164   0.274   0.260   2.900  0.6169 -0.3500 -0.5655
10558TIP3    H153165   0.198   0.317   2.893  1.5004  0.7456 -1.7720
10558TIP3    H253166   0.305   0.271   2.990 -0.1448 -0.1643 -0.3194
10559TIP3   OH253167   0.429   1.162   4.756 -0.0392 -0.1499  0.2896
10559TIP3    H153168   0.439   1.067   4.751  0.3272 -0.0627 -1.1176
10559TIP3    H253169   0.400   1.188   4.669  0.2704  1.0741  0.5220
10560TIP3   OH253170   1.148   1.543  14.047 -0.2487 -0.0768  0.2537
10560TIP3    H153171   1.220   1.488  14.018 -0.5792 -0.0111 -0.7406
10560TIP3    H253172   1.190   1.626  14.071  0.1091 -0.3566  0.6141
10561TIP3   OH253173   1.846   0.413  14.403 -0.1569 -0.2748  0.1492
10561TIP3    H153174   1.898   0.399  14.324  0.1225 -0.8860  0.4347
10561TIP3    H253175   1.756   0.393  14.376 -0.4705  2.0789 -0.6937
10562TIP3   OH253176   5.997   5.026   1.041 -0.0616 -0.4153 -0.3640
10562TIP3    H153177   6.046   4.961   1.093  0.6668  0.9779  0.7569
10562TIP3    H253178   5.914   5.036   1.088  1.3692  2.3459  1.8992
10563TIP3   OH253179   0.741   0.666  13.774 -0.0623  0.5167  0.2469
10563TIP3    H153180   0.797   0.739  13.748 -1.0740  1.5205  0.7812
10563TIP3    H253181   0.801   0.593  13.787  0.9891  1.2672 -0.2332
10564TIP3   OH253182   5.825   2.022   3.574  0.5364  0.5957 -0.1157
10564TIP3    H153183   5.734   2.023   3.543  1.0211  0.8626 -1.5936
10564TIP3    H253184   5.825   2.085   3.647 -1.4135 -2.6392  3.0183
10565TIP3   OH253185   4.242   3.299  10.532  0.1994  0.1952 -0.3026
10565TIP3    H153186   4.337   3.286  10.528  0.1925  0.0945 -0.1622
10565TIP3    H253187   4.207   3.213  10.554  0.0867  0.2634 -0.2159
10566TIP3   OH253188   0.515   0.647  11.223  0.2193 -0.4770  0.1205
10566TIP3    H153189   0.502   0.570  11.167  0.3969 -2.4943  2.6967
10566TIP3    H253190   0.426   0.680  11.238  0.0222 -0.9474  0.0235
10567TIP3   OH253191   3.959   3.149  15.463  0.2338  0.1691 -0.0920
10567TIP3    H153192   4.051   3.178  15.472  1.3351 -2.9710 -0.2074
10567TIP3    H253193   3.924   3.205  15.394  2.0533  1.4470 -0.0659
10568TIP3   OH253194   4.173   4.903  17.125  0.2768  0.3347  0.3940
10568TIP3    H153195   4.188   4.907  17.031 -0.9796  0.0610  0.1680
10568TIP3    H253196   4.179   4.810  17.147 -2.1608  0.0149  0.0593
10569TIP3   OH253197   4.820   4.354  13.831  0.0874  0.7379  0.1855
10569TIP3    H153198   4.858   4.351  13.918  0.7812  0.4737 -0.1221
10569TIP3    H253199   4.796   4.446  13.818  2.1667  1.2645 -0.2527
10570TIP3   OH253200   3.880   5.802  12.021  0.1513 -0.2210 -0.4094
10570TIP3    H153201   3.943   5.741  12.061  1.8535  2.0953  0.6350
10570TIP3    H253202   3.916   5.889  12.036 -1.4092  1.0663 -3.1709
10571TIP3   OH253203   6.759   3.013   3.290 -0.3688 -0.6119 -0.1547
10571TIP3    H153204   6.717   2.995   3.206  0.5592  1.0974 -1.0444
10571TIP3    H253205   6.804   3.097   3.277 -1.1840  0.3309  2.4067
10572TIP3   OH253206   4.569   4.021   2.795 -0.9911 -0.1195 -0.0000
10572TIP3    H153207   4.586   3.927   2.797  0.8648  0.1860  0.6610
10572TIP3    H253208   4.593   4.048   2.706  1.0922  0.0983  0.5596
10573TIP3   OH253209   3.846   2.091  12.890 -0.5644 -0.1820  0.3688
10573TIP3    H153210   3.817   2.057  12.975 -0.9123 -1.4435 -0.2316
10573TIP3    H253211   3.922   2.038  12.868  0.5182  1.2237  0.6169
10574TIP3   OH253212   1.012   2.065  11.052  0.2407 -0.2554 -0.0751
10574TIP3    H153213   0.962   2.055  10.971  0.2912 -1.2139  0.0010
10574TIP3    H253214   1.065   1.985  11.058  0.3864 -0.1055  0.7900
10575TIP3   OH253215   6.644   6.543   5.241 -0.4510  0.0606 -0.3794
10575TIP3    H153216   6.620   6.618   5.296 -0.2190 -0.8266  0.9691
10575TIP3    H253217   6.711   6.496   5.292 -0.2906 -0.8419 -1.3846
10576TIP3   OH253218   6.268   0.737  12.239 -0.4938 -0.3113 -0.1476
10576TIP3    H153219   6.264   0.825  12.202 -0.0790 -0.0353  0.4496
10576TIP3    H253220   6.255   0.678  12.165 -4.5030  0.2472 -0.1321
10577TIP3   OH253221   3.798   3.310   5.150 -0.1602 -0.0036 -0.4262
10577TIP3    H153222   3.859   3.377   5.117 -0.9329  0.6667 -0.5225
10577TIP3    H253223   3.855   3.244   5.189  0.6433  0.5357 -0.6440
10578TIP3   OH253224   2.252   4.905   0.053  0.2718 -0.1475 -0.6123
10578TIP3    H153225   2.235   5.000   0.049 -2.6307 -0.4977  0.9307
10578TIP3    H253226   2.282   4.890   0.142 -1.4810 -0.8918 -0.0961
10579TIP3   OH253227   3.947   6.211  14.976  0.5713  1.1274 -0.1867
10579TIP3    H153228   3.964   6.252  14.892  1.3805  0.3470 -0.4222
10579TIP3    H253229   4.027   6.226  15.027  1.7921 -1.8545 -1.0008
10580TIP3   OH253230   5.024   5.257  10.632 -0.2234  0.2628  0.3199
10580TIP3    H153231   4.930   5.275  10.631 -0.2139  0.4150  1.2517
10580TIP3    H253232   5.057   5.300  10.553 -1.0672 -0.6478 -0.5687
10581TIP3   OH253233   3.418   1.902  11.013 -0.3997 -0.0753  0.0441
10581TIP3    H153234   3.501   1.906  10.965  0.1566  1.1765  1.0584
10581TIP3    H253235   3.400   1.808  11.020  1.1297 -0.3993  0.1170
10582TIP3   OH253236   3.973   1.918   4.200  0.1130  0.5475  0.0023
10582TIP3    H153237   3.999   1.971   4.275 -0.7391 -0.1724  0.8431
10582TIP3    H253238   3.907   1.970   4.155  0.6983  1.0248 -0.3005
10583TIP3   OH253239   2.640   3.991  14.765  0.4175  0.6199  0.4894
10583TIP3    H153240   2.647   3.962  14.674  1.4481  0.2382  0.6857
10583TIP3    H253241   2.729   3.987  14.800 -0.1710 -0.7274  1.9697
10584TIP3   OH253242   5.428   3.789   1.460  0.7943  0.0533  0.0634
10584TIP3    H153243   5.446   3.734   1.536 -0.8106 -0.6149 -0.0119
10584TIP3    H253244   5.433   3.878   1.494 -2.1343 -0.2539  1.5588
10585TIP3   OH253245   3.255   3.199  12.760  0.5740  0.0889 -0.2563
10585TIP3    H153246   3.345   3.203  12.793  0.6793 -1.6003 -0.2153
10585TIP3    H253247   3.225   3.111  12.784 -1.5695  1.0558  0.8913
10586TIP3   OH253248   4.589   5.506   5.680  0.6157  0.1664  0.0058
10586TIP3    H153249   4.614   5.472   5.595  2.5251 -0.5256  0.7964
10586TIP3    H253250   4.599   5.433   5.740 -0.9316  0.5735  0.8370
10587TIP3   OH253251   5.230   1.033  15.649  0.3895  0.9892 -0.2256
10587TIP3    H153252   5.141   1.059  15.673 -0.3417 -0.5907 -1.0474
10587TIP3    H253253   5.287   1.084  15.708 -1.1545 -0.1058  2.4105
10588TIP3   OH253254   2.608   0.640  11.695  0.3079  0.2246 -0.2440
10588TIP3    H153255   2.646   0.695  11.763  0.2724  2.6773 -2.0821
10588TIP3    H253256   2.671   0.568  11.685  1.2315  0.8209  1.0802
10589TIP3   OH253257   3.100   4.712   3.217  0.3222 -0.1380  0.0261
10589TIP3    H153258   3.188   4.687   3.247 -0.1689  0.2687  1.9586
10589TIP3    H253259   3.041   4.657   3.269 -0.5915 -0.6469 -1.4937
10590TIP3   OH253260   6.054   4.341  12.945  0.6794 -0.1910  0.4080
10590TIP3    H153261   5.992   4.284  12.898  0.8347  0.4790 -0.6248
10590TIP3    H253262   6.014   4.427  12.943  0.4608 -0.2175  1.9568
10591TIP3   OH253263   1.490   1.020   0.430 -0.8386 -0.5500 -0.0978
10591TIP3    H153264   1.433   1.083   0.386 -0.8586  0.4489  1.2788
10591TIP3    H253265   1.430   0.962   0.476 -0.8115  0.2441  1.0046
10592TIP3   OH253266   2.245   0.763   0.701 -0.2220  0.6278  0.4291
10592TIP3    H153267   2.213   0.836   0.647 -0.5438  0.4858  0.4271
10592TIP3    H253268   2.246   0.688   0.642 -0.4248  0.5071  0.5763
10593TIP3   OH253269   4.567   2.592  15.762  0.5768  0.0936  0.0978
10593TIP3    H153270   4.658   2.620  15.772 -0.1952  1.9754  3.3210
10593TIP3    H253271   4.550   2.535  15.837 -1.0017  0.1015 -0.2091
10594TIP3   OH253272   4.010   5.341   2.224  0.0256 -0.0733  0.0959
10594TIP3    H153273   4.057   5.382   2.151  0.0964 -0.0352  0.1626
10594TIP3    H253274   3.921   5.376   2.218 -0.2717 -0.9116 -0.6335
10595TIP3   OH253275   5.380   1.796   2.087  0.4428 -0.4522 -0.1155
10595TIP3    H153276   5.290   1.819   2.110  0.5122 -0.7192  0.4405
10595TIP3    H253277   5.383   1.701   2.094  1.0686 -0.3601  1.0129
10596TIP3   OH253278   4.335   1.079  13.885  0.1469  0.6336 -0.5239
10596TIP3    H153279   4.345   1.173  13.869  0.1932  0.6271 -0.5334
10596TIP3    H253280   4.289   1.074  13.969 -0.7704  0.6812 -1.0079
10597TIP3   OH253281   3.286   5.867  11.125  0.4491 -0.1470 -0.2621
10597TIP3    H153282   3.357   5.851  11.186  1.1654  0.6091 -0.8667
10597TIP3    H253283   3.282   5.789  11.070  0.4791 -0.3986  0.0964
10598TIP3   OH253284   4.124   3.377  12.662 -0.0253 -0.4359  0.4741
10598TIP3    H153285   4.092   3.461  12.696 -1.4299 -0.8462  0.2144
10598TIP3    H253286   4.215   3.394  12.639 -0.5003  1.2453 -0.3208
10599TIP3   OH253287   0.356   4.607  14.452 -0.6975  0.0705 -0.3792
10599TIP3    H153288   0.436   4.573  14.493  1.0951  0.7623 -2.9993
10599TIP3    H253289   0.331   4.538  14.390 -2.9405 -0.6614  1.2057
10600TIP3   OH253290   5.307   6.436  14.612  0.2650 -0.9009  0.0176
10600TIP3    H153291   5.253   6.467  14.539  0.9192  0.6710  0.1785
10600TIP3    H253292   5.260   6.359  14.644 -1.9723  0.4602  0.2284
10601TIP3   OH253293   4.176   0.092  13.324 -0.5363  0.2090 -0.2478
10601TIP3    H153294   4.193   0.186  13.326 -2.8520  0.6982 -0.5859
10601TIP3    H253295   4.191   0.066  13.233 -2.2171  0.8088 -0.7436
10602TIP3   OH253296   1.212   6.226  10.933 -0.0002 -0.5262 -0.1609
10602TIP3    H153297   1.127   6.260  10.906  0.3353  0.1871 -0.3540
10602TIP3    H253298   1.269   6.241  10.858  0.7160  0.6281  0.5790
10603TIP3   OH253299   3.244   2.721   3.524  0.1155  0.2037  0.2713
10603TIP3    H153300   3.331   2.743   3.491  0.3826 -1.3993 -0.1904
10603TIP3    H253301   3.223   2.637   3.483 -0.5165 -0.7701  2.4245
10604TIP3   OH253302   4.216   2.596   1.441 -0.5114  0.1084 -0.1280
10604TIP3    H153303   4.307   2.606   1.414  0.2019 -1.1332  1.6563
10604TIP3    H253304   4.206   2.502   1.457 -2.1677  0.2045 -0.4273
10605TIP3   OH253305   1.801   2.857   0.778 -0.0418  0.1952  0.0056
10605TIP3    H153306   1.852   2.906   0.842 -1.7742  1.3101  0.6132
10605TIP3    H253307   1.818   2.902   0.695  2.1106 -1.1793 -0.3649
10606TIP3   OH253308   5.162   5.426  10.819  0.1656 -0.1809  0.4132
10606TIP3    H153309   5.175   5.516  10.788  0.1083  0.4534  2.1255
10606TIP3    H253310   5.121   5.381  10.745 -1.2929  1.6164  0.0482
10607TIP3   OH253311   0.666   1.374  11.032  0.2293 -0.2128  0.2644
10607TIP3    H153312   0.626   1.312  11.092 -0.2690  0.5539  0.7415
10607TIP3    H253313   0.654   1.335  10.945 -1.1195 -0.2380  0.4417
10608TIP3   OH253314   5.278   0.465  16.093  0.2842 -0.1635  0.2750
10608TIP3    H153315   5.287   0.520  16.016  1.9326 -0.9878 -0.1576
10608TIP3    H253316   5.192   0.488  16.129 -1.6220 -1.3448 -3.0580
10609TIP3   OH253317   1.937   1.359   1.137 -0.1009  0.0055 -0.1290
10609TIP3    H153318   1.941   1.448   1.170  1.1728 -0.1980  0.3321
10609TIP3    H253319   1.850   1.351   1.098  0.0412  1.6697 -0.8502
10610TIP3   OH253320   4.830   4.161  12.747 -0.1735  0.0875 -0.8099
10610TIP3    H153321   4.810   4.069  12.762 -0.0096  0.0903 -0.5850
10610TIP3    H253322   4.868   4.192  12.829  0.8112  0.0736 -1.2499
10611TIP3   OH253323   6.056   6.340   4.872  0.3771  0.1437 -0.6252
10611TIP3    H153324   6.112   6.407   4.832 -0.9766  1.8991  0.3029
10611TIP3    H253325   6.068   6.263   4.816  2.5044  0.9136 -1.3419
10612TIP3   OH253326   5.834   5.718   3.309 -0.2593  0.4632  0.1382
10612TIP3    H153327   5.848   5.810   3.285  1.3803  0.1105 -0.3624
10612TIP3    H253328   5.886   5.706   3.388  1.0177 -0.4760 -0.8155
10613TIP3   OH253329   2.326   2.678   0.428  0.3557  0.4015 -0.8726
10613TIP3    H153330   2.368   2.611   0.481  1.0269  0.9472 -0.6844
10613TIP3    H253331   2.308   2.635   0.344  0.1677 -0.1928 -0.5319
10614TIP3   OH253332   0.218   3.591   0.687  0.0428  0.0983  0.8093
10614TIP3    H153333   0.220   3.531   0.762 -0.8454 -0.5336  0.3413
10614TIP3    H253334   0.310   3.609   0.669  0.3836 -1.6756  0.5490
10615TIP3   OH253335   2.738   2.333  16.325 -0.0453  0.1138 -0.0876
10615TIP3    H153336   2.727   2.297  16.413 -2.2460  1.1244  0.1275
10615TIP3    H253337   2.661   2.303  16.277  0.4940  0.6036 -1.3099
10616TIP3   OH253338   2.711   2.471   3.484  0.0718 -0.4162 -0.2065
10616TIP3    H153339   2.690   2.458   3.577  0.2328 -2.3400 -0.4022
10616TIP3    H253340   2.774   2.402   3.464 -0.7247 -0.6724 -2.0006
10617TIP3   OH253341   0.473   1.087   6.024 -0.2586 -0.0168 -0.3277
10617TIP3    H153342   0.564   1.110   6.003 -0.1322  0.1256  0.3572
10617TIP3    H253343   0.460   1.002   5.982 -0.0551  0.3023 -1.0662
10618TIP3   OH253344   4.733   1.229   1.789  0.0147 -0.2683  0.3910
10618TIP3    H153345   4.647   1.188   1.784  0.0158 -0.0979 -2.3333
10618TIP3    H253346   4.736   1.288   1.714  1.8289  1.1317  1.4818
10619TIP3   OH253347   3.619   1.814  12.997  0.0330  0.0943 -0.2741
10619TIP3    H153348   3.591   1.884  12.938  1.4826  1.7254  0.8627
10619TIP3    H253349   3.550   1.810  13.063 -0.1244  0.3601 -0.4184
10620TIP3   OH253350   4.610   1.362  12.762 -0.6825  0.1502  0.2044
10620TIP3    H153351   4.663   1.308  12.703 -0.8446  1.8829 -1.6447
10620TIP3    H253352   4.635   1.333  12.850 -1.6519 -3.7063 -0.6102
10621TIP3   OH253353   5.836   2.203  13.433 -0.2927  0.0659 -0.0641
10621TIP3    H153354   5.787   2.197  13.351 -0.9548  2.9462 -0.0144
10621TIP3    H253355   5.926   2.220  13.406 -0.3831  0.3253 -0.2067
10622TIP3   OH253356   3.689   1.824  13.309 -0.3557 -0.5033 -0.1311
10622TIP3    H153357   3.717   1.735  13.329  0.3430 -0.1842  0.3918
10622TIP3    H253358   3.657   1.858  13.393 -0.7569 -0.3164 -0.3609
10623TIP3   OH253359   3.990   0.026  15.911 -0.1944  0.2629  0.1481
10623TIP3    H153360   3.965  -0.042  15.974 -0.0777 -0.3668 -0.4752
10623TIP3    H253361   4.072  -0.006  15.873  1.7850  2.3650  2.2813
10624TIP3   OH253362   6.807   0.898  10.911 -0.5631 -0.0148  0.1201
10624TIP3    H153363   6.754   0.883  10.833  1.9799  1.1885 -2.0144
10624TIP3    H253364   6.756   0.958  10.964 -1.8044  0.2395 -1.2982
10625TIP3   OH253365   3.795   4.290   3.710  0.4956 -0.9204  0.0416
10625TIP3    H153366   3.714   4.264   3.756  0.6530  0.8594  1.4750
10625TIP3    H253367   3.864   4.273   3.774  0.9084  0.1397 -0.1044
10626TIP3   OH253368   4.185   3.504  15.535 -0.5946 -0.2984  0.6766
10626TIP3    H153369   4.196   3.500  15.630 -0.3151 -0.0554  0.6556
10626TIP3    H253370   4.178   3.413  15.508 -1.5073 -0.3371  1.0248
10627TIP3   OH253371   5.977   0.495  12.361  0.0160 -0.4706 -0.0775
10627TIP3    H153372   5.966   0.440  12.283  1.2470  1.0787 -1.4409
10627TIP3    H253373   5.938   0.579  12.336 -2.3312 -0.8063  2.1397
10628TIP3   OH253374   6.597   6.312  16.191 -0.1456 -0.5770 -0.2317
10628TIP3    H153375   6.539   6.381  16.223 -0.2467 -1.1038  0.7578
10628TIP3    H253376   6.609   6.254  16.266  3.1995  0.5063  0.2261
10629TIP3   OH253377   5.109   1.708   1.457  0.0692 -0.2751 -0.0420
10629TIP3    H153378   5.047   1.683   1.526  0.6782 -1.1101  0.2093
10629TIP3    H253379   5.098   1.641   1.390 -0.0252  0.1538 -0.4598
10630TIP3   OH253380   3.738   2.044   1.857 -0.2157  0.1944 -0.0084
10630TIP3    H153381   3.715   1.997   1.777 -1.2190 -1.7219  1.3454
10630TIP3    H253382   3.676   2.014   1.922  1.3114  0.7928  1.8322
10631TIP3   OH253383   6.578   1.679   3.761  0.0973  0.2528 -0.3615
10631TIP3    H153384   6.562   1.584   3.764  0.4362  0.1256 -1.7983
10631TIP3    H253385   6.510   1.713   3.702  0.5563  0.7665 -0.5975
10632TIP3   OH253386   1.918   0.257   4.205 -0.4212 -0.1142  0.1847
10632TIP3    H153387   1.910   0.162   4.216 -0.1246 -0.4374 -1.9854
10632TIP3    H253388   1.960   0.287   4.286 -3.2569 -1.3383  2.3110
10633TIP3   OH253389   5.132   5.370  16.724  0.0887  0.9211 -0.0342
10633TIP3    H153390   5.199   5.341  16.663 -1.0835 -0.7914 -0.6067
10633TIP3    H253391   5.106   5.457  16.693  0.5553  0.6987 -1.0807
10634TIP3   OH253392   0.318   2.900   4.186  0.2895  0.0729  0.3974
10634TIP3    H153393   0.304   2.820   4.237 -1.0092 -0.0199 -0.0711
10634TIP3    H253394   0.254   2.895   4.116 -0.5315  2.0107  0.9543
10635TIP3   OH253395   0.004   2.630  11.705 -0.3388 -0.3317 -0.3682
10635TIP3    H153396  -0.004   2.725  11.705  0.7221 -0.2315 -0.8894
10635TIP3    H253397   0.075   2.611  11.644 -0.3135 -1.4406 -0.0270
10636TIP3   OH253398   1.790   1.566   5.114 -0.2666  0.1899 -0.5387
10636TIP3    H153399   1.818   1.602   5.030  0.7867 -1.1200 -0.7776
10636TIP3    H253400   1.704   1.529   5.096 -0.6303  1.0803 -0.6929
10637TIP3   OH253401   5.368   0.438  16.417  0.2037 -0.1841  0.3247
10637TIP3    H153402   5.397   0.374  16.352 -0.6802 -0.4707  0.1878
10637TIP3    H253403   5.428   0.512  16.407 -0.0785 -0.0960 -1.0396
10638TIP3   OH253404   1.949   1.462  11.949 -0.2877  0.6974 -0.2696
10638TIP3    H153405   1.976   1.532  11.889 -0.6833  2.9008  1.9393
10638TIP3    H253406   1.956   1.502  12.036 -1.6537 -1.6772  1.0246
10639TIP3   OH253407   4.689   5.900  11.594 -0.1097  0.2630  0.3690
10639TIP3    H153408   4.597   5.906  11.568  0.1896  1.6123 -0.4811
10639TIP3    H253409   4.733   5.970  11.545  0.8880  1.5383  2.8581
10640TIP3   OH253410   2.927   3.080  11.120  0.3658  0.4681  0.2172
10640TIP3    H153411   2.848   3.123  11.154  0.3735 -0.2289  1.1339
10640TIP3    H253412   2.922   3.093  11.025 -0.0693  1.7437  0.3939
10641TIP3   OH253413   1.652   3.695  15.153 -0.1069  0.2707  0.1160
10641TIP3    H153414   1.565   3.672  15.185  0.0629 -0.5133  0.0385
10641TIP3    H253415   1.708   3.693  15.231  0.0561 -0.3415 -0.0150
10642TIP3   OH253416   6.026   2.934  15.339 -0.5014 -0.9520  0.5077
10642TIP3    H153417   6.089   2.931  15.411  0.0922  0.4662  0.0914
10642TIP3    H253418   6.076   2.905  15.263 -0.0267  1.0513 -0.0019
10643TIP3   OH253419   0.685   3.275  12.796  0.3564  0.2194  0.4076
10643TIP3    H153420   0.653   3.217  12.865 -1.1816 -0.1229 -0.5462
10643TIP3    H253421   0.780   3.261  12.795  0.1096 -1.7045  0.7146
10644TIP3   OH253422   3.791   0.656   1.238 -1.1742  0.4227  0.5928
10644TIP3    H153423   3.757   0.746   1.244 -0.2439  0.9767 -1.4579
10644TIP3    H253424   3.817   0.647   1.146  1.5657 -0.9189  1.4062
10645TIP3   OH253425   3.297   1.898  12.345 -0.5395  0.1302  0.4579
10645TIP3    H153426   3.241   1.828  12.378  1.0108 -2.0581 -1.2848
10645TIP3    H253427   3.324   1.870  12.258  1.2644  2.2626  0.2094
10646TIP3   OH253428   0.007   4.008  11.697  0.7778  0.2327 -0.0937
10646TIP3    H153429  -0.029   4.048  11.776  0.8826  1.5947 -0.6933
10646TIP3    H253430   0.061   4.077  11.658  0.2527 -0.1936 -1.6554
10647TIP3   OH253431   3.895   1.164  13.728 -1.0774  0.9207 -1.1122
10647TIP3    H153432   3.917   1.079  13.766  1.1792  2.4526  1.3825
10647TIP3    H253433   3.947   1.169  13.647  1.2651  1.0616  0.3244
10648TIP3   OH253434   2.526   3.837   2.732 -0.6339 -0.2656  0.0968
10648TIP3    H153435   2.539   3.825   2.826 -2.7454  0.1674  0.4891
10648TIP3    H253436   2.550   3.928   2.715 -1.1168 -0.0761  0.4098
10649TIP3   OH253437   3.820   2.071  11.382  0.2447  0.6089  0.5287
10649TIP3    H153438   3.744   2.022  11.350  1.7796 -1.6834  0.1556
10649TIP3    H253439   3.855   2.016  11.453  3.5190 -0.2835 -1.5739
10650TIP3   OH253440   4.645   0.805   2.040 -0.6628  0.3242 -0.2217
10650TIP3    H153441   4.659   0.756   2.121  1.3918  0.8856 -0.1829
10650TIP3    H253442   4.595   0.882   2.066  1.6842  1.5502  0.9766
10651TIP3   OH253443   0.720   3.701  11.823  0.6257  0.1211  0.3225
10651TIP3    H153444   0.759   3.614  11.812 -0.3316 -0.4021  0.9569
10651TIP3    H253445   0.630   3.684  11.851  0.5800  1.3160  0.9718
10652TIP3   OH253446   4.237   0.239   0.496  0.0245 -0.2869 -0.5960
10652TIP3    H153447   4.266   0.212   0.409  3.5596  0.0168  0.3496
10652TIP3    H253448   4.234   0.334   0.492  1.5512 -0.1872 -0.0852
10653TIP3   OH253449   1.977   2.433   2.837 -0.0985 -0.5140 -0.2264
10653TIP3    H153450   2.020   2.514   2.810  1.9432 -1.3961  0.1814
10653TIP3    H253451   1.994   2.372   2.766 -0.4911 -0.9605  0.0554
10654TIP3   OH253452   0.980   6.795   5.538 -0.0665  0.0995  0.1787
10654TIP3    H153453   1.071   6.808   5.565  0.1780 -0.2077 -0.4627
10654TIP3    H253454   0.952   6.716   5.584  0.1678 -0.1115 -0.0375
10655TIP3   OH253455   6.355   2.657  15.536 -0.2501  0.0473 -0.4116
10655TIP3    H153456   6.436   2.633  15.492  1.1848 -0.4271  2.2765
10655TIP3    H253457   6.383   2.707  15.613 -2.5859  0.7784  0.0464
10656TIP3   OH253458   2.252   3.540  15.817  0.4594  0.4541 -0.6007
10656TIP3    H153459   2.168   3.567  15.856  1.3252  1.9399  0.3276
10656TIP3    H253460   2.292   3.483  15.882  0.8636  1.0245 -0.3467
10657TIP3   OH253461   0.109   1.585   3.609 -0.6384  0.1896  0.0051
10657TIP3    H153462   0.165   1.544   3.543 -1.7276  0.4146 -1.0979
10657TIP3    H253463   0.019   1.564   3.581 -1.2544  2.9602 -0.4381
10658TIP3   OH253464   2.750   6.658  16.934  0.0205 -0.1173 -0.0052
10658TIP3    H153465   2.723   6.728  16.993 -0.4741 -0.5504  0.2891
10658TIP3    H253466   2.679   6.651  16.870 -0.1126 -0.5996  0.1903
10659TIP3   OH253467   1.202   3.859   9.881  0.0346 -0.3893  0.4350
10659TIP3    H153468   1.127   3.895   9.928  0.7507 -0.4381  1.6757
10659TIP3    H253469   1.272   3.922   9.896  0.2485 -0.3388 -0.7237
10660TIP3   OH253470   4.714   0.222  15.769 -0.5324  0.5788  0.1621
10660TIP3    H153471   4.702   0.182  15.683 -0.7422 -0.0979  0.4985
10660TIP3    H253472   4.625   0.235  15.802 -0.4519 -0.9706  1.0860
10661TIP3   OH253473   0.803   1.008  13.341 -0.2482 -0.1403 -0.7114
10661TIP3    H153474   0.867   1.078  13.353 -0.8646  0.3932 -0.4784
10661TIP3    H253475   0.738   1.045  13.281 -0.0793 -0.8515 -1.3390
10662TIP3   OH253476   0.317   3.581   1.392 -0.4482  0.1143  0.2686
10662TIP3    H153477   0.291   3.658   1.442 -0.5829  0.8958 -0.9659
10662TIP3    H253478   0.237   3.550   1.352  0.0704  1.1961 -1.7278
10663TIP3   OH253479   5.954   4.719   1.835  0.3827 -0.0639 -0.0667
10663TIP3    H153480   5.966   4.647   1.773  0.2045 -1.4220  1.4270
10663TIP3    H253481   6.012   4.788   1.803 -0.9059 -0.0589 -2.6688
10664TIP3   OH253482   0.831   4.968  13.112  0.0058  0.2932 -0.1239
10664TIP3    H153483   0.908   5.013  13.077 -1.0161  1.7976 -0.5205
10664TIP3    H253484   0.784   5.035  13.163 -0.5089 -0.8684  0.9928
10665TIP3   OH253485   2.088   2.267   2.614  0.3272  0.2515 -0.0164
10665TIP3    H153486   2.079   2.179   2.651 -0.6976  0.8020  1.0817
10665TIP3    H253487   2.076   2.254   2.520 -0.1796 -0.7368  0.1705
10666TIP3   OH253488   3.322   4.358   3.200 -0.3106  0.3451  0.2682
10666TIP3    H153489   3.243   4.315   3.232  0.1445 -0.6977  0.0232
10666TIP3    H253490   3.384   4.287   3.186  0.5939  1.1267  0.2191
10667TIP3   OH253491   4.041   6.035   5.438 -0.4818  0.1005  0.3516
10667TIP3    H153492   3.991   6.102   5.392  0.9016  0.7574 -0.2804
10667TIP3    H253493   4.043   6.064   5.529 -2.6159 -0.8238  0.7620
10668TIP3   OH253494   2.023   3.944   3.602  0.3405  0.0956 -0.1758
10668TIP3    H153495   2.017   3.970   3.510  0.4197 -0.4455 -0.3335
10668TIP3    H253496   1.983   4.017   3.649  0.5749  0.5149 -0.6140
10669TIP3   OH253497   3.560   5.474   1.527 -0.1995  0.5017  0.3205
10669TIP3    H153498   3.549   5.563   1.560 -2.9322  0.3973 -0.0773
10669TIP3    H253499   3.591   5.486   1.437  0.7087  0.9879  0.6875
10670TIP3   OH253500   3.517   2.826  15.536  0.0632  0.3365 -0.3177
10670TIP3    H153501   3.609   2.840  15.558 -0.1236 -0.8531  1.5159
10670TIP3    H253502   3.516   2.818  15.441  1.5510  2.2380 -0.5490
10671TIP3   OH253503   6.759   1.360   3.457  0.0501 -0.7949 -0.3622
10671TIP3    H153504   6.773   1.271   3.491  0.4181 -0.5540  0.1294
10671TIP3    H253505   6.668   1.380   3.480 -0.0828 -1.1053 -0.6143
10672TIP3   OH253506   2.614   6.029   3.028 -0.3989  0.4355  0.2202
10672TIP3    H153507   2.704   5.997   3.041  0.0299  0.7849 -1.6492
10672TIP3    H253508   2.567   5.955   2.991 -0.6867  0.4857  0.4840
10673TIP3   OH253509   6.707   3.384  16.592  0.7357  0.0589 -0.3570
10673TIP3    H153510   6.799   3.380  16.620 -0.1038 -0.6167  2.6556
10673TIP3    H253511   6.690   3.299  16.552  1.3458  0.1173 -0.7642
10674TIP3   OH253512   4.636   6.299  16.564  0.4858  0.0354 -0.5609
10674TIP3    H153513   4.725   6.266  16.553  1.0181 -0.0009  2.7961
10674TIP3    H253514   4.645   6.395  16.561  0.5661  0.0267 -0.6039
10675TIP3   OH253515   5.997   1.908  15.407 -0.1390 -0.4333 -0.1454
10675TIP3    H153516   5.993   1.923  15.501 -2.3645  0.2292 -0.2933
10675TIP3    H253517   5.927   1.845  15.389  1.8037 -2.4578 -1.0827
10676TIP3   OH253518   6.327   1.651  16.249 -0.2449  0.0327 -0.0767
10676TIP3    H153519   6.400   1.657  16.186 -0.6854  1.2882 -0.5021
10676TIP3    H253520   6.322   1.558  16.271  1.7243 -0.0497  0.2495
10677TIP3   OH253521   2.536   0.919   3.242  0.4344 -0.8994  0.1673
10677TIP3    H153522   2.495   0.839   3.209 -0.4207 -0.4833  0.1737
10677TIP3    H253523   2.495   0.933   3.328 -1.2177  0.8006 -0.8261
10678TIP3   OH253524   6.462   3.820   1.899  0.2147 -0.2548 -0.2759
10678TIP3    H153525   6.478   3.825   1.993  2.9790  0.1940 -0.7029
10678TIP3    H253526   6.429   3.732   1.885 -2.4665  0.3710  1.3280
10679TIP3   OH253527   1.215   3.645  11.816 -0.1344 -0.1880  0.1321
10679TIP3    H153528   1.174   3.728  11.839  1.4234 -0.0951  2.9791
10679TIP3    H253529   1.308   3.667  11.803 -0.0243 -1.2039 -0.9378
10680TIP3   OH253530   3.105   0.338   4.095 -0.0981  0.0177 -0.0573
10680TIP3    H153531   3.042   0.372   4.159 -2.0365  1.4958 -2.5720
10680TIP3    H253532   3.148   0.416   4.060 -1.6167 -0.3136 -2.9568
10681TIP3   OH253533   0.928   6.550  16.891 -0.3053  0.0795  0.8297
10681TIP3    H153534   0.842   6.533  16.929 -1.1435  2.1624  0.0045
10681TIP3    H253535   0.984   6.481  16.927 -2.3460 -1.4810  1.2019
10682TIP3   OH253536   5.858   6.200   4.029  0.3829 -1.1530  0.3686
10682TIP3    H153537   5.779   6.175   3.981 -1.0228 -1.2244  2.5540
10682TIP3    H253538   5.896   6.118   4.059  0.3310 -1.0382  0.7517
10683TIP3   OH253539   6.412   4.016  11.755 -0.3743  0.3836 -0.3707
10683TIP3    H153540   6.317   4.009  11.741 -0.4091  1.3415 -0.6964
10683TIP3    H253541   6.450   4.001  11.668 -0.4085  2.8802 -0.8966
10684TIP3   OH253542   0.548   4.845   2.448  0.1243 -0.0070 -0.5562
10684TIP3    H153543   0.518   4.898   2.522  2.3555 -2.6286  2.4897
10684TIP3    H253544   0.478   4.781   2.435  0.0671 -0.0303 -0.1475
10685TIP3   OH253545   3.691   0.141  15.125 -0.0085  0.9785 -0.2454
10685TIP3    H153546   3.635   0.064  15.128  0.5422  0.5981  0.7123
10685TIP3    H253547   3.648   0.199  15.062 -0.7280  0.1304 -0.5626
10686TIP3   OH253548   2.298   2.410   2.392 -0.4497  0.0702  0.6811
10686TIP3    H153549   2.339   2.493   2.370  0.0626  0.1010  1.6774
10686TIP3    H253550   2.222   2.404   2.334  0.3373  0.5293 -0.4159
10687TIP3   OH253551   3.802   0.046  13.305 -0.0405 -0.1534  0.1123
10687TIP3    H153552   3.827  -0.037  13.265  0.4151 -0.8222  1.7235
10687TIP3    H253553   3.711   0.034  13.331 -0.2996  0.2418 -0.5767
10688TIP3   OH253554   0.097   0.670  10.865  0.1545  0.0162  0.4894
10688TIP3    H153555   0.053   0.755  10.875  1.2343  0.5832  0.6185
10688TIP3    H253556   0.187   0.693  10.841 -0.0707 -1.1428 -1.6497
10689TIP3   OH253557   3.604   5.470  15.483 -0.1483  0.1774 -0.3212
10689TIP3    H153558   3.568   5.555  15.507  0.8040  1.0815 -1.9563
10689TIP3    H253559   3.588   5.462  15.389  0.3210 -1.1694 -0.3072
10690TIP3   OH253560   3.185   5.801  12.958 -0.0419  0.2362  0.3528
10690TIP3    H153561   3.121   5.737  12.988 -0.5017  0.1799 -0.6940
10690TIP3    H253562   3.244   5.751  12.902  1.8298 -0.0260  2.4296
10691TIP3   OH253563   6.305   3.144   5.362 -0.0265 -0.0432 -0.1444
10691TIP3    H153564   6.321   3.050   5.356 -2.0813 -0.5611  1.4676
10691TIP3    H253565   6.224   3.158   5.314  0.8549  1.1253 -1.3391
10692TIP3   OH253566   2.088   5.452   4.476  0.4082  0.1674  0.1625
10692TIP3    H153567   2.114   5.377   4.529 -0.8579  0.3885  1.1346
10692TIP3    H253568   1.995   5.438   4.457  0.8485  0.0327 -2.1381
10693TIP3   OH253569   6.566   4.683   5.563 -0.3054 -0.1159 -0.0959
10693TIP3    H153570   6.631   4.754   5.562 -0.9692  0.5076 -0.0881
10693TIP3    H253571   6.617   4.603   5.575  0.3466  0.4950  1.4164
10694TIP3   OH253572   3.870   0.734   0.592 -0.0670 -0.1542  0.3682
10694TIP3    H153573   3.824   0.691   0.520  0.0996  1.3306 -0.6718
10694TIP3    H253574   3.903   0.816   0.555  0.5786  0.3682  1.9683
10695TIP3   OH253575   1.744   1.902   0.421 -0.3850  0.2374  0.5240
10695TIP3    H153576   1.750   1.909   0.517  0.4695  0.8795  0.4373
10695TIP3    H253577   1.823   1.946   0.389 -1.1727  0.9511 -0.5049
10696TIP3   OH253578   3.494   5.868  13.062 -0.1089 -0.2026  0.0792
10696TIP3    H153579   3.589   5.875  13.049 -0.3004 -0.4159 -1.7252
10696TIP3    H253580   3.462   5.829  12.981 -2.1171  2.7250 -0.6837
10697TIP3   OH253581   2.827   5.868  10.787 -0.4343 -0.0735 -0.2186
10697TIP3    H153582   2.855   5.935  10.724  0.1255 -0.7863 -0.7542
10697TIP3    H253583   2.902   5.808  10.793 -1.0602 -0.8591 -0.0516
10698TIP3   OH253584   2.031   1.622   1.703  0.1006 -0.1636  0.0823
10698TIP3    H153585   1.979   1.594   1.628  1.8806 -0.9261 -0.9079
10698TIP3    H253586   2.013   1.557   1.770 -0.0154 -0.5721 -0.3437
10699TIP3   OH253587   0.783   6.687   2.713  0.1781  0.7256 -0.4353
10699TIP3    H153588   0.737   6.702   2.795  2.8428  1.0695  1.1106
10699TIP3    H253589   0.768   6.768   2.663 -0.1970  1.1734  0.3787
10700TIP3   OH253590   5.776   0.341  13.413 -0.2260  0.5765  0.0814
10700TIP3    H153591   5.782   0.408  13.481  0.2010  0.3717  0.2494
10700TIP3    H253592   5.762   0.391  13.332  2.1036  1.0423 -0.1137
10701TIP3   OH253593   4.346   2.899   3.095  0.6170 -0.3087 -0.3557
10701TIP3    H153594   4.343   2.877   3.188  1.8541 -1.4662 -0.5590
10701TIP3    H253595   4.348   2.814   3.050  4.4128  0.0690 -1.2250
10702TIP3   OH253596   1.512   5.254  16.407 -0.2418 -0.1855 -0.1326
10702TIP3    H153597   1.476   5.192  16.343  1.9109 -0.7015 -0.9385
10702TIP3    H253598   1.565   5.314  16.355  0.8570 -0.0715  1.0691
10703TIP3   OH253599   3.918   6.444  12.420 -0.5063  0.1852  0.1718
10703TIP3    H153600   3.940   6.367  12.473  0.7190 -0.0102 -0.5983
10703TIP3    H253601   3.904   6.409  12.332  2.4930  1.0772 -0.7570
10704TIP3   OH253602   3.287   5.429   1.382 -0.4158 -0.2226 -0.1196
10704TIP3    H153603   3.349   5.380   1.436  0.7964 -0.3635 -1.5686
10704TIP3    H253604   3.341   5.469   1.314 -1.7148  1.0952 -0.4213
10705TIP3   OH253605   1.601   1.027   2.532 -0.0869  0.6914  0.1068
10705TIP3    H153606   1.665   1.079   2.483  0.6762  2.4456  2.7037
10705TIP3    H253607   1.536   1.000   2.467  1.2621  2.0988 -1.9533
10706TIP3   OH253608   2.386   0.317  15.407 -0.2900 -0.3720  0.1256
10706TIP3    H153609   2.358   0.394  15.357 -2.7775 -0.5397  1.1023
10706TIP3    H253610   2.457   0.348  15.463 -1.7478  1.4790  1.0676
10707TIP3   OH253611   3.696   4.430  11.532 -0.3669  0.1197 -0.2908
10707TIP3    H153612   3.665   4.430  11.622 -1.5988  0.6396 -0.6786
10707TIP3    H253613   3.791   4.424  11.538 -0.4730 -0.4268  1.0149
10708TIP3   OH253614   0.805   6.123   5.144  0.4410 -0.6268  0.8457
10708TIP3    H153615   0.724   6.167   5.170  0.6228  0.0159  0.3501
10708TIP3    H253616   0.802   6.038   5.188 -0.6447 -0.7294  0.5955
10709TIP3   OH253617   4.886   3.293  11.851 -0.7048  0.0950  0.4115
10709TIP3    H153618   4.903   3.273  11.943 -1.3344  0.5446  0.6334
10709TIP3    H253619   4.958   3.350  11.826  0.1903 -1.0839  0.2434
10710TIP3   OH253620   0.124   3.582   5.005  1.1068 -0.7345 -0.0019
10710TIP3    H153621   0.173   3.659   4.975 -0.7079  0.5063  0.0961
10710TIP3    H253622   0.132   3.520   4.932  0.9100  0.3256 -0.9555
10711TIP3   OH253623   1.855   6.817  16.779  0.0983 -0.5705 -0.3211
10711TIP3    H153624   1.899   6.895  16.745  0.6633  0.2086  2.0378
10711TIP3    H253625   1.762   6.833  16.764  0.2689  0.1272 -0.6605
10712TIP3   OH253626   1.597   1.612   1.947  0.1443  0.1540  0.3168
10712TIP3    H153627   1.637   1.694   1.920 -0.1368  0.0004 -0.5842
10712TIP3    H253628   1.564   1.629   2.036  2.4197  0.2018  1.2196
10713TIP3   OH253629   1.022   6.767  12.119  0.4852 -0.3641 -0.5175
10713TIP3    H153630   1.107   6.728  12.134  0.1577 -0.9354 -0.1384
10713TIP3    H253631   1.029   6.855  12.157  0.8080 -0.5164 -0.2196
10714TIP3   OH253632   0.159   0.823   4.469  0.9603 -0.1719  0.0662
10714TIP3    H153633   0.244   0.813   4.511  1.2933  0.8032 -0.3356
10714TIP3    H253634   0.158   0.914   4.439 -0.0382 -0.3043 -0.3384
10715TIP3   OH253635   6.117   0.194  13.471 -0.3732  0.1592  1.0447
10715TIP3    H153636   6.177   0.173  13.543  0.2120  0.9509  0.8107
10715TIP3    H253637   6.030   0.182  13.508 -0.0719 -0.6507  1.5125
10716TIP3   OH253638   3.889   4.037   5.132 -0.2285  0.2215 -0.2891
10716TIP3    H153639   3.856   4.030   5.043 -0.8178  0.8310 -0.1352
10716TIP3    H253640   3.815   4.072   5.182  0.6555  1.7235  0.0617
10717TIP3   OH253641   6.116   5.948   0.940  0.4839 -0.2818 -0.1456
10717TIP3    H153642   6.130   5.920   0.849 -1.1124  0.3880 -0.6352
10717TIP3    H253643   6.021   5.958   0.947  0.4842 -1.3214  1.9214
10718TIP3   OH253644   6.143   5.833   6.056 -0.1484 -0.0886  0.4519
10718TIP3    H153645   6.093   5.875   6.126  0.5032  0.0288  0.8621
10718TIP3    H253646   6.230   5.822   6.093  0.0615 -0.5203 -0.1584
10719TIP3   OH253647   2.627   0.661   0.282 -0.8663  0.1986 -0.4557
10719TIP3    H153648   2.644   0.587   0.340 -0.3418  0.9738  0.4111
10719TIP3    H253649   2.532   0.664   0.272 -0.8871 -0.5725 -0.4833
10720TIP3   OH253650   6.058   6.588  13.862 -0.0619 -0.1009 -0.2503
10720TIP3    H153651   5.981   6.548  13.822 -0.6970  1.2515 -0.4531
10720TIP3    H253652   6.129   6.569  13.801 -0.1336 -1.6205  0.0878
10721TIP3   OH253653   1.831   0.782   1.947  0.0224  0.0213  0.1839
10721TIP3    H153654   1.774   0.713   1.912  0.7976 -0.3561 -0.3794
10721TIP3    H253655   1.805   0.791   2.038 -2.6971  1.6532 -0.6327
10722TIP3   OH253656   4.642   5.730   3.540 -0.0409  0.0755  0.1397
10722TIP3    H153657   4.688   5.699   3.462 -1.0467 -0.9753 -0.0546
10722TIP3    H253658   4.666   5.822   3.546  2.0027 -0.3858 -0.0100
10723TIP3   OH253659   6.817   4.743   3.376 -0.7766 -0.0183  0.0656
10723TIP3    H153660   6.792   4.795   3.299 -0.2926 -0.4605 -0.4027
10723TIP3    H253661   6.892   4.692   3.346 -1.1554 -0.8777  0.5597
10724TIP3   OH253662   0.510   3.917   3.235  0.4451 -0.2256  0.4028
10724TIP3    H153663   0.444   3.970   3.279  0.0293  0.5220 -1.0804
10724TIP3    H253664   0.533   3.850   3.300 -1.6636 -0.4374  1.0100
10725TIP3   OH253665   1.893   6.432   4.603  0.2921  0.4937 -0.1975
10725TIP3    H153666   1.831   6.471   4.543 -1.1313 -1.4689 -0.1001
10725TIP3    H253667   1.920   6.504   4.660 -2.9960  1.2127  0.6603
10726TIP3   OH253668   2.974   5.872  17.063 -0.1731  0.0435  0.0405
10726TIP3    H153669   2.931   5.860  16.979  0.6947  1.5322 -0.6584
10726TIP3    H253670   2.903   5.878  17.127 -1.0190  1.9386 -1.0132
10727TIP3   OH253671   1.715   3.665   2.814 -0.0394 -0.2019  0.6485
10727TIP3    H153672   1.770   3.613   2.872  1.0752 -3.0749 -2.6457
10727TIP3    H253673   1.635   3.614   2.804 -1.1856  1.3796  1.3523
10728TIP3   OH253674   2.514   2.055   5.234 -0.1540 -0.4353 -0.6720
10728TIP3    H153675   2.562   2.006   5.301 -0.4935 -0.0823 -0.1655
10728TIP3    H253676   2.438   2.001   5.214 -2.3243  1.2684  2.2454
10729TIP3   OH253677   4.049   4.840  16.456 -0.4441  0.3120 -0.0649
10729TIP3    H153678   4.105   4.787  16.513  1.3469  1.5696 -0.5514
10729TIP3    H253679   4.043   4.925  16.501 -0.4498  0.7618 -0.8989
10730TIP3   OH253680   2.298   3.207   4.356 -0.3429  0.1347 -0.0543
10730TIP3    H153681   2.317   3.258   4.435  0.1462  0.2896 -0.2632
10730TIP3    H253682   2.380   3.162   4.337 -0.4798  0.0414 -0.4294
10731TIP3   OH253683   1.557   3.565  15.611  0.0137 -0.6001  0.5438
10731TIP3    H153684   1.517   3.652  15.604 -0.4432 -0.9090 -0.9388
10731TIP3    H253685   1.648   3.579  15.585 -0.4432 -0.8206 -1.2777
10732TIP3   OH253686   3.756   6.764   3.498 -0.4468 -0.0089 -0.0332
10732TIP3    H153687   3.811   6.687   3.496 -0.4459  0.0055 -0.7689
10732TIP3    H253688   3.728   6.771   3.589 -1.5202 -1.6324 -0.1963
10733TIP3   OH253689   6.419   5.901   0.202  0.0546  0.4707  0.2120
10733TIP3    H153690   6.348   5.894   0.266 -0.7107 -0.1663 -0.6617
10733TIP3    H253691   6.498   5.881   0.251 -0.6721 -1.4788  0.6963
10734TIP3   OH253692   5.272   4.920  14.150  0.5191  0.2134  0.0867
10734TIP3    H153693   5.199   4.971  14.117  0.9183  0.3746 -0.5833
10734TIP3    H253694   5.329   4.909  14.074  2.3107  2.0090  1.0701
10735TIP3   OH253695   0.906   2.597  14.578  0.1875  0.1621 -0.1425
10735TIP3    H153696   0.966   2.527  14.605  0.1562  0.1338 -0.1459
10735TIP3    H253697   0.894   2.583  14.485 -0.2226 -0.1372 -0.0471
10736TIP3   OH253698   4.269   5.584   0.569 -0.0001 -0.3953  0.1764
10736TIP3    H153699   4.297   5.495   0.588  5.0422  0.9160  0.1159
10736TIP3    H253700   4.255   5.624   0.655 -0.6750 -0.7328  0.2361
10737TIP3   OH253701   3.714   6.744   3.769 -0.0621 -0.0033 -0.1464
10737TIP3    H153702   3.626   6.713   3.748  0.0590 -0.0114 -0.6606
10737TIP3    H253703   3.701   6.810   3.837 -0.3525 -0.8872  0.6759
10738TIP3   OH253704   4.371   0.163   5.237  0.0656  0.5255  0.1877
10738TIP3    H153705   4.457   0.147   5.198 -0.3437 -1.2508 -0.0690
10738TIP3    H253706   4.309   0.141   5.167 -0.6314 -0.4047  1.0687
10739TIP3   OH253707   3.157   6.059   2.036  0.1952  0.4472  0.1980
10739TIP3    H153708   3.167   6.014   2.120 -1.6164  0.4614  0.4598
10739TIP3    H253709   3.105   5.999   1.983 -0.5674  1.3632 -0.1263
10740TIP3   OH253710   1.668   4.399  13.923  0.0650  0.5665 -0.3432
10740TIP3    H153711   1.695   4.321  13.973  0.4716  0.2049 -1.1121
10740TIP3    H253712   1.608   4.445  13.982 -0.2082 -0.3429  0.1136
10741TIP3   OH253713   2.848   3.697  14.123  0.0265 -0.4973  0.0339
10741TIP3    H153714   2.800   3.615  14.111  0.3586 -0.6513 -0.2739
10741TIP3    H253715   2.782   3.761  14.149 -0.5375 -0.4470 -1.4319
10742TIP3   OH253716   5.025   6.649  11.406 -0.1369  0.4819 -0.5872
10742TIP3    H153717   5.030   6.686  11.494 -0.0710  0.2651 -0.4996
10742TIP3    H253718   5.076   6.568  11.410 -0.4217  0.2901 -0.7292
10743TIP3   OH253719   3.815   6.550   1.265  0.0507  0.6138 -0.4028
10743TIP3    H153720   3.840   6.640   1.245  1.1616  0.1100 -1.3784
10743TIP3    H253721   3.892   6.513   1.308  0.2663 -0.3657 -1.5841
10744TIP3   OH253722   4.068   4.748  16.797  0.0977 -0.2191 -0.0166
10744TIP3    H153723   4.142   4.809  16.792 -0.0337 -0.1503 -2.5834
10744TIP3    H253724   4.100   4.676  16.850  2.4918 -0.7277 -1.9777
10745TIP3   OH253725   2.515   1.432  13.780  0.1548 -0.1786 -0.3441
10745TIP3    H153726   2.575   1.506  13.771  1.6652 -1.2895  0.1609
10745TIP3    H253727   2.568   1.355  13.755 -1.2204 -1.1498 -0.3925
10746TIP3   OH253728   0.665   0.845  15.147 -0.1428  0.8990 -0.2268
10746TIP3    H153729   0.675   0.830  15.241  0.4017  1.8248 -0.1181
10746TIP3    H253730   0.664   0.940  15.139 -0.2183  0.8233 -1.1562
10747TIP3   OH253731   4.373   4.753   0.901  0.0177 -0.6962 -0.0027
10747TIP3    H153732   4.412   4.749   0.989 -1.1032 -0.5881  0.5086
10747TIP3    H253733   4.329   4.838   0.898 -2.9300 -2.0620  0.6578
10748TIP3   OH253734   0.691   6.263  16.553 -0.5866 -0.5772 -0.2307
10748TIP3    H153735   0.700   6.306  16.468  1.9572 -2.0827 -0.8280
10748TIP3    H253736   0.759   6.301  16.608 -1.8665  0.0042  1.0138
10749TIP3   OH253737   4.702   5.353   1.549 -0.0100 -0.2289 -0.9214
10749TIP3    H153738   4.781   5.321   1.592 -0.7686 -2.0186 -0.7455
10749TIP3    H253739   4.731   5.381   1.462  1.0560  0.6731 -0.2928
10750TIP3   OH253740   6.349   0.127   4.171  0.0559  0.1823  0.0810
10750TIP3    H153741   6.386   0.215   4.165 -0.9806  0.7096  1.1042
10750TIP3    H253742   6.266   0.132   4.124  0.4231 -0.5155 -0.6624
10751TIP3   OH253743   6.610   4.625   3.222  0.2222  0.1323  0.3544
10751TIP3    H153744   6.525   4.653   3.257  1.4709  1.7132  2.4143
10751TIP3    H253745   6.614   4.531   3.240 -0.6834  0.2342  1.1762
10752TIP3   OH253746   6.111   1.797  17.153  0.1676  0.0598 -0.0415
10752TIP3    H153747   6.142   1.818  17.064 -3.3163 -0.8305 -1.6284
10752TIP3    H253748   6.062   1.874  17.180 -0.4686 -0.4456  0.2603
10753TIP3   OH253749   0.824   4.681  12.479 -0.6043  0.3375 -0.4020
10753TIP3    H153750   0.803   4.729  12.398 -1.6145 -0.5991 -0.7261
10753TIP3    H253751   0.919   4.683  12.484 -0.5368  0.6573 -1.4690
10754TIP3   OH253752   5.245   3.254   1.663 -0.0372  0.0822  0.1866
10754TIP3    H153753   5.184   3.184   1.640 -0.7332  0.9211 -0.5917
10754TIP3    H253754   5.214   3.331   1.614  1.4424  0.6197  0.0348
10755TIP3   OH253755   4.043   5.256  10.888  0.2352  0.1789  0.1153
10755TIP3    H153756   4.073   5.226  10.802 -0.5502  1.0759 -0.4819
10755TIP3    H253757   4.106   5.323  10.914  0.9643 -0.6776  0.6516
10756TIP3   OH253758   5.474   0.676  13.285  0.4030  0.1353 -0.3281
10756TIP3    H153759   5.496   0.729  13.362  1.6885 -2.6922  1.4119
10756TIP3    H253760   5.497   0.731  13.210  0.6036  2.4058  1.2970
10757TIP3   OH253761   1.461   2.974  14.052  0.0099 -0.3759 -0.7662
10757TIP3    H153762   1.409   2.896  14.031 -0.6877 -0.5444  1.3264
10757TIP3    H253763   1.397   3.036  14.087  0.9514  0.0844  0.1820
10758TIP3   OH253764   6.102   3.129  16.911  0.4484  0.1427 -0.2569
10758TIP3    H153765   6.181   3.129  16.965  0.4260  0.6501 -0.2148
10758TIP3    H253766   6.092   3.039  16.882 -0.4025 -0.4989  1.8514
10759TIP3   OH253767   4.036   5.007  12.627  0.3125 -0.1826 -0.5405
10759TIP3    H153768   4.018   5.011  12.721  1.2784 -2.5260 -0.1876
10759TIP3    H253769   3.960   5.047  12.585  0.1313  1.4461  1.2306
10760TIP3   OH253770   5.659   0.192   1.351 -0.3608 -0.1528 -0.1023
10760TIP3    H153771   5.632   0.281   1.376  3.9992  1.0300  1.3018
10760TIP3    H253772   5.598   0.135   1.397 -2.2432  2.0790  0.3816
10761TIP3   OH253773   3.292   1.660   0.338  0.1234  0.0261  0.0237
10761TIP3    H153774   3.302   1.587   0.276 -0.6504 -0.6883  0.7249
10761TIP3    H253775   3.362   1.647   0.402  0.1044  0.0196  0.0430
10762TIP3   OH253776   2.931   3.432  12.011  0.1675 -0.5003 -0.2286
10762TIP3    H153777   2.865   3.368  12.036 -0.3830 -0.3304 -1.1789
10762TIP3    H253778   2.933   3.429  11.915 -0.4657  1.4516 -0.3543
10763TIP3   OH253779   0.181   5.744  16.950  0.3172  0.2073 -0.5800
10763TIP3    H153780   0.168   5.667  16.894  0.1159 -0.7090  0.6942
10763TIP3    H253781   0.141   5.720  17.033  0.3837  1.6492 -0.1095
10764TIP3   OH253782   6.184   3.638   3.667 -0.3505 -0.7403 -0.9835
10764TIP3    H153783   6.123   3.660   3.596  0.2452 -1.7178 -1.8312
10764TIP3    H253784   6.217   3.551   3.644  1.2386 -0.3088 -0.4719
10765TIP3   OH253785   1.219   2.276   1.057 -0.1076 -0.4296  0.0702
10765TIP3    H153786   1.167   2.247   0.983  0.9069 -0.8107 -0.5236
10765TIP3    H253787   1.287   2.209   1.067  1.5239  1.0333 -0.5328
10766TIP3   OH253788   0.570   1.013  16.233  0.1411 -0.0899 -0.0986
10766TIP3    H153789   0.543   1.075  16.301  0.9817 -0.9134  1.0196
10766TIP3    H253790   0.656   1.045  16.204 -0.2100  0.2532 -0.7957
10767TIP3   OH253791   2.607   6.243  15.714 -0.4843 -0.4162 -0.5912
10767TIP3    H153792   2.570   6.163  15.750 -0.7760 -0.5367 -1.1610
10767TIP3    H253793   2.679   6.265  15.774 -1.0550 -0.5335  0.1478
10768TIP3   OH253794   2.947   0.084   3.224  0.6375 -0.4322 -0.5171
10768TIP3    H153795   2.906   0.103   3.140 -1.9885 -2.3948  0.1828
10768TIP3    H253796   3.033   0.049   3.201 -0.6011 -2.4443 -2.5863
10769TIP3   OH253797   2.265   1.463   1.874 -0.2392  0.5734 -0.4458
10769TIP3    H153798   2.175   1.432   1.862 -0.3764  0.0867  1.4776
10769TIP3    H253799   2.301   1.466   1.786 -1.6410 -0.7803 -1.1250
10770TIP3   OH253800   4.274   4.218  12.841  0.7228 -0.4250 -0.6608
10770TIP3    H153801   4.293   4.312  12.838  0.9769 -0.4329  0.4853
10770TIP3    H253802   4.356   4.177  12.867  0.5140 -0.9376 -0.7960
10771TIP3   OH253803   1.303   1.564  16.297  0.1441 -0.4027  0.5090
10771TIP3    H153804   1.350   1.554  16.380  0.5014  0.5570  0.4379
10771TIP3    H253805   1.304   1.658  16.280 -0.3424 -0.5404 -0.3478
10772TIP3   OH253806   3.505   2.806  11.119 -0.4156 -0.5677 -0.2310
10772TIP3    H153807   3.494   2.806  11.024  1.8325  2.6011 -0.6494
10772TIP3    H253808   3.530   2.896  11.140  0.5719 -1.5052  3.2103
10773TIP3   OH253809   5.842   2.158   0.633  0.2847  0.5230  0.0305
10773TIP3    H153810   5.750   2.176   0.653 -0.2653 -1.0547 -0.9225
10773TIP3    H253811   5.874   2.238   0.591 -0.6620  1.0556  0.2969
10774TIP3   OH253812   2.806   3.355   4.083 -0.1547 -0.0568 -0.2633
10774TIP3    H153813   2.731   3.414   4.080 -0.3678 -0.2903  0.3010
10774TIP3    H253814   2.845   3.369   4.170  0.4470  0.0540 -0.5455
10775TIP3   OH253815   2.679   2.250   1.109 -0.2291 -0.0074  0.5823
10775TIP3    H153816   2.705   2.169   1.066 -1.9704 -0.9770  1.2429
10775TIP3    H253817   2.700   2.236   1.202  0.0118  0.5460  0.6184
10776TIP3   OH253818   4.190   1.721  13.178 -0.0503 -0.4411 -0.5856
10776TIP3    H153819   4.095   1.716  13.184 -0.3303  0.2482 -3.1823
10776TIP3    H253820   4.209   1.815  13.179  0.4644 -0.5275 -1.4081
10777TIP3   OH253821   2.330   5.873   4.597 -0.2699  0.3660  0.7242
10777TIP3    H153822   2.369   5.914   4.674  0.8854 -1.3733  1.1307
10777TIP3    H253823   2.323   5.780   4.620 -1.2796  0.0364 -0.7340
10778TIP3   OH253824   1.416   1.270  11.706 -0.0010  0.6401 -1.0636
10778TIP3    H153825   1.459   1.201  11.656 -0.1323 -1.2227  1.2215
10778TIP3    H253826   1.487   1.328  11.733  0.5511 -0.2631 -0.5373
10779TIP3   OH253827   5.743   2.177   4.406 -0.1468  0.2179 -0.0665
10779TIP3    H153828   5.686   2.105   4.432  0.1995  0.3330  1.0611
10779TIP3    H253829   5.702   2.213   4.327 -1.9119  0.6010  0.9670
10780TIP3   OH253830   3.375   2.625  12.435 -0.1184  0.1963 -0.2216
10780TIP3    H153831   3.452   2.682  12.444  1.4045 -1.6770 -0.6835
10780TIP3    H253832   3.309   2.666  12.491  1.3813  1.5796  0.6504
10781TIP3   OH253833   5.691   4.414  15.953  0.7918  0.2585  0.0995
10781TIP3    H153834   5.628   4.485  15.939 -0.0726 -0.3697  0.6819
10781TIP3    H253835   5.729   4.399  15.866  1.1404  1.5565  0.0069
10782TIP3   OH253836   2.210   1.023   4.672  0.5817 -0.3523 -0.2713
10782TIP3    H153837   2.121   1.057   4.682 -0.0894 -2.0578  0.0921
10782TIP3    H253838   2.203   0.957   4.603  2.0022  0.8034 -1.5781
10783TIP3   OH253839   5.612   1.511   3.115 -0.2667 -0.0220  0.3727
10783TIP3    H153840   5.531   1.554   3.144 -0.6451 -0.1516 -0.4866
10783TIP3    H253841   5.596   1.488   3.024 -0.0999 -2.0834  0.8144
10784TIP3   OH253842   4.090   5.983  10.123 -0.5154  0.9005  0.0096
10784TIP3    H153843   4.067   6.068  10.161 -0.4278  1.3493 -0.9240
10784TIP3    H253844   4.012   5.957  10.075  0.4782  1.9952 -2.4017
10785TIP3   OH253845   1.432   5.473   4.983 -0.3671 -0.2553  0.0792
10785TIP3    H153846   1.471   5.528   4.915 -0.7003 -1.0159 -0.7495
10785TIP3    H253847   1.506   5.427   5.023 -0.1375  0.4312  0.4571
10786TIP3   OH253848   2.410   1.065  14.948  0.3237  0.0507  0.0674
10786TIP3    H153849   2.394   1.155  14.979 -0.6785 -0.0159 -0.2326
10786TIP3    H253850   2.438   1.018  15.027 -1.0831  0.1629  0.6525
10787TIP3   OH253851   6.763   4.517   1.910  0.1034 -0.2073  0.8175
10787TIP3    H153852   6.839   4.556   1.953  0.3322 -1.6197  1.7730
10787TIP3    H253853   6.800   4.446   1.856 -0.3758  0.3047 -0.2120
10788TIP3   OH253854   6.423   5.454  12.511  0.0988  0.3578  0.2851
10788TIP3    H153855   6.422   5.547  12.491  0.8922  0.0773 -1.2279
10788TIP3    H253856   6.497   5.443  12.571  1.3865  0.4285 -1.2249
10789TIP3   OH253857   5.350   0.887   1.803  0.3639 -0.5362 -0.7087
10789TIP3    H153858   5.364   0.981   1.798 -0.5286 -0.4016 -0.7570
10789TIP3    H253859   5.331   0.869   1.895  1.5386 -0.8276 -0.5031
10790TIP3   OH253860   6.376   2.713  14.022  0.1189  0.1453  0.4821
10790TIP3    H153861   6.287   2.729  14.055 -0.4257  1.1491 -1.3131
10790TIP3    H253862   6.415   2.801  14.018  0.9564 -0.2163  0.5879
10791TIP3   OH253863   1.029   1.598  15.226 -0.3056  0.5732  0.4289
10791TIP3    H153864   1.010   1.679  15.273  1.7116  1.2469  0.1572
10791TIP3    H253865   1.106   1.617  15.173 -1.5309 -0.6454 -1.9945
10792TIP3   OH253866   1.759   6.446   0.014 -0.0749 -0.4010 -0.2215
10792TIP3    H153867   1.782   6.487   0.097 -0.3633  0.1344 -0.3975
10792TIP3    H253868   1.840   6.448  -0.037 -0.5711  2.0157 -1.0642
10793TIP3   OH253869   0.448   0.831   5.924 -0.3847  0.1651  0.0203
10793TIP3    H153870   0.534   0.808   5.890 -0.5208  1.6159 -1.4494
10793TIP3    H253871   0.430   0.766   5.992  1.5496 -0.5811 -0.1350
10794TIP3   OH253872   6.552   4.707  11.813 -0.0403 -0.5916  0.2804
10794TIP3    H153873   6.620   4.774  11.819  0.6754 -1.1352 -1.3004
10794TIP3    H253874   6.472   4.757  11.797  0.3008 -0.0519  0.2117
10795TIP3   OH253875   3.186   1.174  14.454  0.4286  1.1483 -0.6195
10795TIP3    H153876   3.136   1.256  14.459  1.4074  1.8300 -1.5561
10795TIP3    H253877   3.268   1.193  14.500  0.8663  0.8496 -1.2684
10796TIP3   OH253878   3.233   1.821  16.644 -0.0063 -0.2253  0.1824
10796TIP3    H153879   3.213   1.915  16.650  0.2513 -0.1584  0.0228
10796TIP3    H253880   3.294   1.805  16.716  2.7222  0.4824 -1.8096
10797TIP3   OH253881   5.352   1.392   3.720 -0.3966 -0.0781 -0.4028
10797TIP3    H153882   5.392   1.423   3.639 -1.6049 -1.0701 -1.4290
10797TIP3    H253883   5.262   1.369   3.695 -0.2944 -2.0456  0.7995
10798TIP3   OH253884   2.293   1.599  13.728 -0.3995 -0.3533 -0.0489
10798TIP3    H153885   2.371   1.550  13.754 -0.3448  0.1472  0.7689
10798TIP3    H253886   2.284   1.666  13.796 -1.1669 -0.0011 -0.4955
10799TIP3   OH253887   4.251   5.029  14.569 -0.6314 -0.2307  0.3372
10799TIP3    H153888   4.212   4.947  14.600  0.6956 -1.3033 -0.7391
10799TIP3    H253889   4.188   5.063  14.505 -1.5493  0.0147  1.3446
10800TIP3   OH253890   4.708   0.559  12.343  0.4546  0.4141 -0.0525
10800TIP3    H153891   4.693   0.534  12.251 -1.3665 -0.3302  0.4080
10800TIP3    H253892   4.626   0.600  12.370  1.0534  0.8244  1.1925
10801TIP3   OH253893   6.193   4.619   2.436  0.0858 -0.5778  0.6808
10801TIP3    H153894   6.210   4.573   2.354  0.9955  2.0001 -0.6621
10801TIP3    H253895   6.127   4.565   2.480 -1.8753 -1.1119 -2.5828
10802TIP3   OH253896   0.485   5.569  16.498 -0.1076  0.2759  0.1314
10802TIP3    H153897   0.578   5.552  16.510 -0.3991 -0.4803  1.5536
10802TIP3    H253898   0.468   5.649  16.548  0.2002  1.8202 -2.0917
10803TIP3   OH253899   2.921   3.055  11.731  0.1163  0.0647 -0.1154
10803TIP3    H153900   3.004   3.098  11.709  0.2676 -0.1729 -0.0140
10803TIP3    H253901   2.944   2.962  11.739 -0.4161 -0.1960 -1.4180
10804TIP3   OH253902   1.258   4.897  15.966  0.5567  0.9812  0.5861
10804TIP3    H153903   1.290   4.879  15.877  0.4851  0.3711  0.6780
10804TIP3    H253904   1.327   4.866  16.024  0.3209  0.7756  0.7579
10805TIP3   OH253905   1.365   6.796  15.511  0.4481 -1.1549 -0.0510
10805TIP3    H153906   1.313   6.732  15.464 -1.2593 -2.5154  3.3424
10805TIP3    H253907   1.301   6.851  15.556  1.8877 -0.7385  1.6048
10806TIP3   OH253908   6.338   0.179  15.465  0.1153  0.4053 -0.0281
10806TIP3    H153909   6.421   0.175  15.418 -1.2180 -1.7441 -2.4232
10806TIP3    H253910   6.349   0.116  15.537 -0.5828 -2.9844 -2.6306
10807TIP3   OH253911   2.048   5.241  13.088  0.3499  0.2934  0.4234
10807TIP3    H153912   2.096   5.213  13.165 -0.7882  0.2210  1.1344
10807TIP3    H253913   2.002   5.320  13.116 -2.2119 -1.1925  0.7045
10808TIP3   OH253914   0.590   0.979   2.294 -0.8567 -0.5224 -0.5810
10808TIP3    H153915   0.604   0.913   2.362 -2.6509 -1.3899 -1.0050
10808TIP3    H253916   0.495   0.990   2.291 -0.7105  0.5771 -1.9558
10809TIP3   OH253917   5.603   4.561   1.496  0.1032  0.3578  0.5762
10809TIP3    H153918   5.662   4.519   1.558 -1.1299 -0.0590  1.5125
10809TIP3    H253919   5.607   4.505   1.418  1.0601  0.4355  0.5558
10810TIP3   OH253920   6.232   6.386  14.762  0.2645  0.1927 -0.4227
10810TIP3    H153921   6.218   6.301  14.720  1.3102 -0.3639  0.3148
10810TIP3    H253922   6.145   6.413  14.791 -0.1378 -0.4153 -1.0394
10811TIP3   OH253923   3.064   5.518   9.997  0.1709 -0.1057 -0.3450
10811TIP3    H153924   3.122   5.575   9.946 -1.1375  0.7235 -0.9707
10811TIP3    H253925   3.017   5.578  10.054 -0.3819 -0.7086 -0.1597
10812TIP3   OH253926   6.828   4.278   3.217  0.0491 -0.2893 -0.2794
10812TIP3    H153927   6.894   4.211   3.233  1.3660  0.9335 -0.4073
10812TIP3    H253928   6.758   4.232   3.169 -0.7483 -2.3572  2.6334
10813TIP3   OH253929   2.271   0.540   4.767 -0.0421 -0.1621 -0.3078
10813TIP3    H153930   2.224   0.529   4.849 -0.9088 -1.0504 -0.8895
10813TIP3    H253931   2.316   0.457   4.754  0.2514  0.0458 -0.6314
10814TIP3   OH253932   4.973   0.302  15.866  0.8272  0.2936  0.4678
10814TIP3    H153933   4.884   0.284  15.834  1.1489 -0.9688  0.2326
10814TIP3    H253934   4.967   0.292  15.961  0.5654  0.9177  0.5198
10815TIP3   OH253935   2.302   4.701  16.730 -0.1289 -0.1771 -0.0584
10815TIP3    H153936   2.300   4.681  16.824  1.0751 -2.0927 -0.3811
10815TIP3    H253937   2.289   4.616  16.688  2.6905  0.0450 -1.5933
10816TIP3   OH253938   3.723   2.256  11.174  0.1625 -0.4377 -0.0355
10816TIP3    H153939   3.753   2.186  11.232 -0.2295 -0.5413  0.0416
10816TIP3    H253940   3.800   2.277  11.121  0.1687 -1.2178 -0.3490
10817TIP3   OH253941   6.438   2.863   2.095 -0.2272  0.3188  0.3884
10817TIP3    H153942   6.393   2.845   2.177  1.3422  0.3259  1.3009
10817TIP3    H253943   6.414   2.790   2.038 -2.5515  1.1072  0.2880
10818TIP3   OH253944   2.332   3.901  15.290 -0.1186  0.0976 -0.1895
10818TIP3    H153945   2.343   3.843  15.366 -1.4436  0.9058  0.6663
10818TIP3    H253946   2.270   3.854  15.234 -1.0463  0.5623  0.4156
10819TIP3   OH253947   1.752   3.443  11.924  0.4151  0.3180  0.5103
10819TIP3    H153948   1.763   3.453  11.829  0.1538 -0.5394  0.3816
10819TIP3    H253949   1.722   3.529  11.954  0.3600  0.5542 -0.2045
10820TIP3   OH253950   0.530   2.608   3.075 -0.1152 -0.2206 -1.1374
10820TIP3    H153951   0.611   2.651   3.049  0.0906  0.1370  0.0418
10820TIP3    H253952   0.475   2.609   2.997  0.4688  0.8209 -1.5384
10821TIP3   OH253953   1.091   0.407  13.720  0.1336  0.0922  0.1256
10821TIP3    H153954   1.159   0.373  13.779  0.2699 -0.4392 -0.3316
10821TIP3    H253955   1.121   0.384  13.632 -0.2361  0.5838 -0.1337
10822TIP3   OH253956   5.838   3.339   1.738 -0.7266 -0.3472  0.0045
10822TIP3    H153957   5.899   3.289   1.683 -0.7233  0.8955 -1.1843
10822TIP3    H253958   5.894   3.379   1.805 -0.0915  1.2547 -1.4239
10823TIP3   OH253959   2.661   4.467   0.950  0.2696  0.2437 -0.3686
10823TIP3    H153960   2.648   4.528   0.877  1.9737 -0.9078 -1.7487
10823TIP3    H253961   2.732   4.505   1.001  2.5348 -1.2409 -2.1897
10824TIP3   OH253962   3.793   6.715   5.232 -0.4898 -0.5740  0.5100
10824TIP3    H153963   3.791   6.683   5.142 -0.1855  1.0371 -0.1009
10824TIP3    H253964   3.841   6.798   5.227 -1.5175  0.1435  1.9585
10825TIP3   OH253965   5.573   2.096  16.004 -0.1161  0.4806  0.2522
10825TIP3    H153966   5.568   2.131  15.915  1.6379  1.1728  0.3754
10825TIP3    H253967   5.599   2.170  16.058  0.4962 -0.2980  1.0607
10826TIP3   OH253968   0.413   4.110   1.288 -0.4867 -0.5396  0.9111
10826TIP3    H153969   0.394   4.147   1.374 -1.1696  0.2141  0.4478
10826TIP3    H253970   0.333   4.066   1.261 -1.0511  1.1249 -0.2780
10827TIP3   OH253971   0.335   2.711  15.047 -0.2302  0.0566 -0.0082
10827TIP3    H153972   0.309   2.637  14.994 -2.6166  0.0097  1.1045
10827TIP3    H253973   0.390   2.674  15.116 -0.2471 -0.4602 -0.2730
10828TIP3   OH253974   1.380   5.498  13.655 -0.0912 -0.0855 -0.5028
10828TIP3    H153975   1.288   5.500  13.681  0.0984  0.0462  0.1595
10828TIP3    H253976   1.382   5.546  13.572 -0.7353 -0.7164 -0.8920
10829TIP3   OH253977   6.380   1.499  14.506  0.0867  0.4797 -0.3175
10829TIP3    H153978   6.333   1.417  14.518  1.1363 -0.4702 -2.2178
10829TIP3    H253979   6.472   1.475  14.514  0.3689  1.9143  1.2960
10830TIP3   OH253980   6.093   0.737   5.373  0.2694  0.2911 -0.6372
10830TIP3    H153981   6.051   0.803   5.318 -0.4938  0.4921  0.1672
10830TIP3    H253982   6.057   0.751   5.460 -0.2726 -1.4698 -0.5284
10831TIP3   OH253983   4.032   6.433   1.412  0.4703 -0.1402 -0.3974
10831TIP3    H153984   4.011   6.462   1.501 -0.8140 -4.2700  0.8936
10831TIP3    H253985   4.123   6.458   1.399  0.4591  1.2803  1.7798
10832TIP3   OH253986   4.947   6.452  14.056 -0.7243 -0.3946 -0.2441
10832TIP3    H153987   4.944   6.525  13.994  0.1359  0.6649  0.9176
10832TIP3    H253988   5.034   6.459  14.096 -0.8809 -1.6782  0.3538
10833TIP3   OH253989   2.540   2.949   1.485 -0.8506 -0.3414  0.2056
10833TIP3    H153990   2.490   3.030   1.481 -0.5279 -0.1695 -0.6845
10833TIP3    H253991   2.623   2.974   1.525 -0.9428 -0.3294  0.3864
10834TIP3   OH253992   0.796   3.206   5.080 -0.4768  0.1176 -0.5779
10834TIP3    H153993   0.857   3.218   5.154  1.3342 -1.6380 -1.6879
10834TIP3    H253994   0.801   3.288   5.032 -0.9417  0.9227  0.6758
10835TIP3   OH253995   5.900   2.039   4.261  0.0382  0.2638  0.0174
10835TIP3    H153996   5.852   2.098   4.319 -0.8629  0.8126 -1.2488
10835TIP3    H253997   5.979   2.017   4.310  0.7522  3.0684  0.3048
10836TIP3   OH253998   5.216   6.519   2.660 -0.0223 -0.1597 -0.1838
10836TIP3    H153999   5.129   6.557   2.647 -0.7172 -1.9967 -1.1760
10836TIP3    H254000   5.207   6.468   2.741 -0.5380 -2.0583 -1.3824
10837TIP3   OH254001   0.579   3.601   5.195 -0.1248  0.4857  0.8584
10837TIP3    H154002   0.647   3.566   5.252 -1.0335 -0.4440  1.3966
10837TIP3    H254003   0.527   3.659   5.251 -2.6351 -2.4190  1.8315
10838TIP3   OH254004   3.181   5.774   3.880 -0.2761  0.1018  0.0944
10838TIP3    H154005   3.211   5.856   3.840 -1.0055  0.3482  0.0252
10838TIP3    H254006   3.260   5.722   3.890  0.8083  2.0509  3.1685
10839TIP3   OH254007   0.317   3.045   3.408 -0.1519 -0.8466 -0.1366
10839TIP3    H154008   0.349   3.002   3.329 -0.1307 -1.0838  0.0021
10839TIP3    H254009   0.392   3.096   3.440 -0.2965 -0.3722 -0.5275
10840TIP3   OH254010   3.655   2.591   4.294 -0.4198 -0.5221  0.2746
10840TIP3    H154011   3.751   2.600   4.294 -0.5974  2.5214  0.5514
10840TIP3    H254012   3.634   2.568   4.203  0.5917 -2.3592  0.4549
10841TIP3   OH254013   0.006   2.957  15.522  0.7042 -0.6072  0.0785
10841TIP3    H154014  -0.047   2.973  15.443 -0.6549  1.6263  1.3423
10841TIP3    H254015   0.089   3.001  15.504 -0.0092  0.8927  0.2673
10842TIP3   OH254016   1.271   3.428   4.334  0.3754  0.2052  0.5861
10842TIP3    H154017   1.328   3.504   4.333  1.6755 -0.7332 -0.2441
10842TIP3    H254018   1.327   3.356   4.362 -0.8560 -0.4500  1.4779
10843TIP3   OH254019   6.661   0.918  17.034 -0.6301 -0.8876  0.6089
10843TIP3    H154020   6.596   0.880  17.093 -1.2044  1.1639  1.3873
10843TIP3    H254021   6.658   1.012  17.053  1.8167 -0.6058 -0.0892
10844TIP3   OH254022   3.318   3.723  12.053 -0.2288  0.2953 -0.4143
10844TIP3    H154023   3.350   3.640  12.088 -0.9535 -0.2587 -1.0464
10844TIP3    H254024   3.395   3.763  12.013  0.0766 -0.1710 -0.2973
10845TIP3   OH254025   5.859   0.127  16.117  0.0850  0.0120 -0.4245
10845TIP3    H154026   5.914   0.166  16.049  0.2468  0.0692 -0.2621
10845TIP3    H254027   5.769   0.153  16.093  0.1315 -0.0556 -0.6724
10846TIP3   OH254028   6.231   5.507   5.871  0.1526  0.2762 -0.2327
10846TIP3    H154029   6.175   5.441   5.912 -0.2306 -0.1635 -1.4299
10846TIP3    H254030   6.318   5.491   5.909 -0.2172 -0.0257  0.4994
10847TIP3   OH254031   6.043   0.288  11.094  0.0708  0.1253  0.8308
10847TIP3    H154032   5.956   0.250  11.099 -0.0470  0.2893  0.1344
10847TIP3    H254033   6.028   0.381  11.077  0.3749  0.2056  0.9842
10848TIP3   OH254034   4.575   6.684  17.013  0.2655 -0.4071 -0.1212
10848TIP3    H154035   4.485   6.716  17.016  0.6123  0.5392  0.7944
10848TIP3    H254036   4.628   6.758  17.042  1.0947 -1.8004  2.2304
10849TIP3   OH254037   2.160   4.767   1.988  0.2085  0.2772  0.3718
10849TIP3    H154038   2.083   4.711   1.997 -1.7065  2.2834 -2.0039
10849TIP3    H254039   2.178   4.798   2.077 -0.7403 -1.4253  1.2072
10850TIP3   OH254040   3.981   0.311  12.869  0.5506  0.1975 -0.5252
10850TIP3    H154041   4.063   0.268  12.892  0.7234  0.7044 -0.1905
10850TIP3    H254042   3.916   0.271  12.927  0.8894  1.0939  0.4854
10851TIP3   OH254043   3.062   4.558   5.727 -0.3469  0.2360  0.8857
10851TIP3    H154044   3.079   4.514   5.644 -3.3322 -0.4806  0.5546
10851TIP3    H254045   3.057   4.488   5.792 -2.2709  0.2738  0.8526
10852TIP3   OH254046   6.023   1.886   3.727 -0.2403  0.4100  0.1112
10852TIP3    H154047   5.936   1.914   3.698 -1.4258 -1.7645  1.2799
10852TIP3    H254048   6.072   1.876   3.646 -2.0126 -1.0453 -0.8718
10853TIP3   OH254049   1.436   1.745  10.973 -0.0035  0.2430  0.4447
10853TIP3    H154050   1.357   1.698  10.948  0.0478 -0.7279  1.9765
10853TIP3    H254051   1.453   1.804  10.899 -1.4668 -0.3710 -0.4338
10854TIP3   OH254052   3.082   5.514   1.017 -0.6712 -0.6286 -0.4337
10854TIP3    H154053   3.011   5.521   0.954  0.0276  0.4195 -1.1388
10854TIP3    H254054   3.114   5.424   1.007  0.5635 -0.0167 -2.8874
10855TIP3   OH254055   5.962   2.615  10.255  0.1686 -0.2601  0.0646
10855TIP3    H154056   6.044   2.566  10.249 -0.5837 -1.7366  0.9208
10855TIP3    H254057   5.894   2.547  10.248 -0.9471  0.7783  0.4964
10856TIP3   OH254058   0.082   2.551  11.083 -0.1661  0.0304  0.4648
10856TIP3    H154059   0.173   2.526  11.097 -0.3779  0.1225  2.3533
10856TIP3    H254060   0.039   2.471  11.052  0.3093 -0.3615  0.8061
10857TIP3   OH254061   5.758   0.739  15.932  0.3236  0.1900 -0.1850
10857TIP3    H154062   5.825   0.804  15.910  0.2507 -0.2851 -2.0051
10857TIP3    H254063   5.747   0.688  15.851 -0.7872 -1.0402  0.6975
10858TIP3   OH254064   1.425   4.160  11.632  0.0955  0.3627 -0.2217
10858TIP3    H154065   1.495   4.217  11.601  0.3514 -0.0331 -0.3722
10858TIP3    H254066   1.373   4.141  11.554 -0.3889  0.9405 -0.0479
10859TIP3   OH254067   5.609   5.250   4.063  0.2247 -0.4825 -0.6339
10859TIP3    H154068   5.634   5.282   3.977  0.3602  4.6564  0.9901
10859TIP3    H254069   5.517   5.226   4.054  0.1237  0.3895 -2.1012
10860TIP3   OH254070   0.057   0.714   3.942  0.1057 -0.2208  0.0824
10860TIP3    H154071   0.015   0.800   3.951  0.4524  0.1389 -1.4421
10860TIP3    H254072   0.042   0.671   4.026 -3.8929 -0.3886 -0.5160
10861TIP3   OH254073   5.679   1.136   2.523 -0.4126 -0.5728  0.5717
10861TIP3    H154074   5.686   1.206   2.588  1.8702 -0.9554  0.8345
10861TIP3    H254075   5.675   1.182   2.439  2.4053 -0.0243  0.6366
10862TIP3   OH254076   6.625   3.188  14.169 -0.4647  0.0406 -0.0161
10862TIP3    H154077   6.581   3.266  14.204 -1.2489 -0.9050  1.1660
10862TIP3    H254078   6.707   3.221  14.133 -1.1389  1.5318 -0.2651
10863TIP3   OH254079   2.819   0.577  16.674  0.0152  0.2551  0.0807
10863TIP3    H154080   2.870   0.496  16.679  0.7331  0.7072  0.1629
10863TIP3    H254081   2.769   0.580  16.756  0.4510  0.2013  0.3478
10864TIP3   OH254082   5.572   5.772   0.574 -0.1597  0.0862  0.0612
10864TIP3    H154083   5.504   5.812   0.521 -1.3040 -0.7298  0.8591
10864TIP3    H254084   5.557   5.805   0.663 -0.8447 -1.6694  0.6467
10865TIP3   OH254085   3.758   3.385   5.399 -0.0026  0.5771  0.2895
10865TIP3    H154086   3.668   3.419   5.395  0.3916  1.7126  0.6484
10865TIP3    H254087   3.784   3.377   5.308 -1.0366 -1.4370  0.0987
10866TIP3   OH254088   1.793   1.949  10.405 -0.0196 -0.2592  0.0295
10866TIP3    H154089   1.769   1.859  10.381 -3.5742  0.7110 -0.5741
10866TIP3    H254090   1.852   1.978  10.335 -0.9366 -1.2862 -1.2168
10867TIP3   OH254091   5.987   2.983   0.042 -0.0722 -0.1295  0.2498
10867TIP3    H154092   6.016   2.978  -0.049 -0.3816 -1.3421  0.1951
10867TIP3    H254093   6.051   3.039   0.085  0.1759  0.3138 -0.6798
10868TIP3   OH254094   2.060   3.266  12.360 -0.4261  0.0046  0.4408
10868TIP3    H154095   2.108   3.349  12.357 -1.6239  0.6927 -0.2576
10868TIP3    H254096   2.116   3.205  12.312 -0.8014  1.1057 -1.4781
10869TIP3   OH254097   6.579   5.063  11.520  0.2575  0.5210  0.4657
10869TIP3    H154098   6.583   5.027  11.431 -3.4087  0.9477 -0.0534
10869TIP3    H254099   6.564   5.157  11.506 -1.7253  0.3949  1.4023
10870TIP3   OH254100   5.571   4.576   2.473  0.5064  0.0543 -0.5818
10870TIP3    H154101   5.560   4.630   2.394  0.2830  0.4086 -0.3108
10870TIP3    H254102   5.549   4.634   2.545 -2.1924 -1.0441 -0.3893
10871TIP3   OH254103   1.351   1.122  10.849 -0.0476 -0.4950 -0.1545
10871TIP3    H154104   1.317   1.109  10.938 -1.5016 -2.2007 -0.8948
10871TIP3    H254105   1.350   1.217  10.836 -1.3124 -0.3130  1.0989
10872TIP3   OH254106   6.648   4.317  13.265  0.0239  0.6058  0.0391
10872TIP3    H154107   6.712   4.249  13.287  0.1426 -1.3724 -4.9334
10872TIP3    H254108   6.697   4.380  13.213 -0.9973  2.2162  0.9614
10873TIP3   OH254109   0.431   5.039  12.654 -0.1163  0.1439 -0.1973
10873TIP3    H154110   0.435   5.023  12.748  0.2060 -2.9126 -0.6468
10873TIP3    H254111   0.520   5.022  12.623 -0.5986 -0.5901 -1.2493
10874TIP3   OH254112   2.388   6.764  14.174  0.1125 -0.8572 -0.7361
10874TIP3    H154113   2.316   6.797  14.228  1.7935 -0.0457  1.1363
10874TIP3    H254114   2.393   6.824  14.100 -0.7261 -0.5526 -0.5495
10875TIP3   OH254115   6.179   3.831  10.703  0.2025 -0.0037 -0.2881
10875TIP3    H154116   6.224   3.785  10.632 -0.3251 -0.6503 -0.2140
10875TIP3    H254117   6.112   3.769  10.733 -0.3736  0.7285 -0.0331
10876TIP3   OH254118   0.348   4.281  16.096  0.2908  0.2801 -0.4280
10876TIP3    H154119   0.309   4.365  16.120  1.8247  1.0377 -0.4462
10876TIP3    H254120   0.441   4.290  16.119  0.3019 -1.7923  0.5183
10877TIP3   OH254121   5.110   1.963  10.578 -0.2485  0.2139  0.5562
10877TIP3    H154122   5.117   2.053  10.608  0.3206  0.6313 -0.7453
10877TIP3    H254123   5.085   1.970  10.486 -1.4798 -0.9960  0.7652
10878TIP3   OH254124   6.699   4.802  12.511 -0.1490 -0.4955  0.4019
10878TIP3    H154125   6.687   4.734  12.445 -1.2687 -1.1764  1.2699
10878TIP3    H254126   6.722   4.880  12.461  1.0340 -1.4590 -0.6192
10879TIP3   OH254127   4.009   2.381  13.638 -0.3192 -0.2555  0.3078
10879TIP3    H154128   3.996   2.296  13.595 -0.8927  0.3563 -0.7574
10879TIP3    H254129   4.074   2.363  13.706 -1.1913 -1.7742  0.7980
10880TIP3   OH254130   6.468   1.950   5.048  0.1272  0.2304  0.1449
10880TIP3    H154131   6.401   1.926   4.984 -1.6061  0.4108  1.7739
10880TIP3    H254132   6.464   2.045   5.052  0.3834  0.2319  0.3511
10881TIP3   OH254133   1.509   3.030  16.012  0.1888  0.2093 -0.1928
10881TIP3    H154134   1.464   3.015  16.095 -0.7111  0.2510 -0.6482
10881TIP3    H254135   1.555   3.113  16.024  0.8687 -0.2630  0.5743
10882TIP3   OH254136   0.096   5.388  11.207  0.0971 -0.3649 -0.2449
10882TIP3    H154137   0.012   5.401  11.163  0.8564  0.4006 -1.5290
10882TIP3    H254138   0.108   5.293  11.207 -0.3707 -0.4307 -0.8222
10883TIP3   OH254139   5.225   0.113   5.815  0.1225  0.1536 -0.1277
10883TIP3    H154140   5.233   0.179   5.747 -0.8769  0.0844 -0.3269
10883TIP3    H254141   5.198   0.034   5.769 -0.2361  0.0199  0.3024
10884TIP3   OH254142   1.132   3.204  15.753  0.3089  0.1770  0.4266
10884TIP3    H154143   1.194   3.262  15.709  0.2389 -0.3946 -0.4497
10884TIP3    H254144   1.187   3.150  15.811  0.5549  0.1006  0.1217
10885TIP3   OH254145   3.302   6.048  12.832 -0.0412 -0.3879  0.1335
10885TIP3    H154146   3.273   6.032  12.922  0.2564 -0.1558  0.2687
10885TIP3    H254147   3.242   5.995  12.779 -1.7109  1.2292  0.2901
10886TIP3   OH254148   6.752   2.731   3.906 -0.8821  0.7410 -0.1248
10886TIP3    H154149   6.801   2.674   3.847  0.0471  0.8356  0.5397
10886TIP3    H254150   6.715   2.672   3.971  1.1817  0.9641  1.3470
10887TIP3   OH254151   2.758   1.533  12.148 -0.8159  0.5407  0.0816
10887TIP3    H154152   2.763   1.522  12.053  0.9917 -1.1941  0.3123
10887TIP3    H254153   2.666   1.517  12.170 -0.7551 -1.8875 -1.1124
10888TIP3   OH254154   4.880   3.657  13.988  0.2110  0.3711  0.0110
10888TIP3    H154155   4.867   3.745  13.954  1.4130  0.3688 -0.4934
10888TIP3    H254156   4.836   3.600  13.925 -1.3308  0.6293  0.7908
10889TIP3   OH254157   0.450   1.439   2.406 -0.7883  0.2149 -0.3001
10889TIP3    H154158   0.513   1.372   2.379  0.8627  0.3103  2.8200
10889TIP3    H254159   0.482   1.519   2.365  1.0978  0.2105  1.0139
10890TIP3   OH254160   4.219   0.990  12.795  0.3986  0.2269  0.2006
10890TIP3    H154161   4.134   1.011  12.834  0.4170  0.9090 -0.0956
10890TIP3    H254162   4.250   1.074  12.759  1.3446  0.0617  0.5860
10891TIP3   OH254163   2.214   0.263   0.290  0.6727 -0.1778 -0.1563
10891TIP3    H154164   2.240   0.236   0.378 -0.1766  1.4532  0.6568
10891TIP3    H254165   2.125   0.229   0.280  0.0248  1.2292  0.4353
10892TIP3   OH254166   6.083   2.599  15.428  0.4250  0.0943  0.1488
10892TIP3    H154167   6.172   2.628  15.448  0.5067  0.1079 -0.2220
10892TIP3    H254168   6.094   2.528  15.365  0.1418  0.9117 -0.8619
10893TIP3   OH254169   2.028   2.186   2.357  0.2983 -0.2608  0.2537
10893TIP3    H154170   2.030   2.271   2.313 -0.0661  0.3706  1.4046
10893TIP3    H254171   2.056   2.124   2.290 -2.1781  0.3698 -1.5214
10894TIP3   OH254172   3.276   0.290  12.149  0.6000 -0.0105  0.1590
10894TIP3    H154173   3.312   0.220  12.202 -0.6014 -0.0748  0.9280
10894TIP3    H254174   3.252   0.247  12.067 -0.0052 -0.4857  0.5738
10895TIP3   OH254175   0.224   0.318   0.894  0.4114  0.4915  0.6395
10895TIP3    H154176   0.266   0.281   0.971  2.4895  0.1239 -0.5935
10895TIP3    H254177   0.296   0.356   0.843 -1.0017  1.4691 -0.7167
10896TIP3   OH254178   3.844   6.824  14.800 -0.3847 -0.1703 -0.0122
10896TIP3    H154179   3.800   6.908  14.791  0.0408 -0.0194 -0.7660
10896TIP3    H254180   3.934   6.846  14.822 -1.2316 -0.4937  4.8198
10897TIP3   OH254181   4.282   5.100  12.836  0.5513 -0.0029  0.0229
10897TIP3    H154182   4.204   5.154  12.836  1.1523  0.8995  0.7936
10897TIP3    H254183   4.279   5.053  12.753 -0.5448  0.3915 -0.1729
10898TIP3   OH254184   4.458   4.693   3.304  0.2303 -0.5441 -0.1792
10898TIP3    H154185   4.379   4.651   3.272 -0.5166  0.4545  0.2897
10898TIP3    H254186   4.511   4.621   3.339 -0.0218 -1.3356 -1.3777
10899TIP3   OH254187   4.581   2.771  14.108  0.2570 -0.0458  0.3790
10899TIP3    H154188   4.509   2.734  14.159  0.7810 -1.9312 -0.1422
10899TIP3    H254189   4.629   2.825  14.171 -0.5458 -0.2914  1.2282
10900TIP3   OH254190   2.665   1.120  15.870 -0.5409  0.2677  0.3353
10900TIP3    H154191   2.634   1.088  15.785 -1.3070  1.0755  0.2963
10900TIP3    H254192   2.694   1.209  15.853  0.5222 -0.0024  0.6696
10901TIP3   OH254193   2.123   4.935   1.013  0.4356  0.3348 -1.0778
10901TIP3    H154194   2.086   4.911   1.098  1.8286  0.2521 -0.4824
10901TIP3    H254195   2.078   5.016   0.989  0.1470  0.4373 -0.1999
10902TIP3   OH254196   1.204   2.600   3.806  0.4066 -0.6780 -0.6540
10902TIP3    H154197   1.273   2.546   3.767 -1.4106 -2.4598 -1.6290
10902TIP3    H254198   1.213   2.586   3.901  1.6780 -0.4578 -0.7281
10903TIP3   OH254199   6.051   1.325   3.902 -0.2644  0.4897 -0.1798
10903TIP3    H154200   6.144   1.321   3.923  0.2935 -1.2984 -2.5377
10903TIP3    H254201   6.037   1.414   3.870  1.5143 -0.0858 -2.9503
10904TIP3   OH254202   2.812   4.574   4.182 -0.3506  0.0306  0.0097
10904TIP3    H154203   2.724   4.601   4.156 -1.2095 -1.6376  0.9769
10904TIP3    H254204   2.810   4.478   4.175  1.2694 -0.0555  0.4261
10905TIP3   OH254205   6.448   4.256   0.908  0.2161  0.0305  0.7292
10905TIP3    H154206   6.450   4.324   0.975  0.6105 -0.1961  0.9524
10905TIP3    H254207   6.450   4.304   0.825  1.4808  0.2834  0.8780
10906TIP3   OH254208   3.682   0.458  15.490  0.1344  1.0474 -0.4986
10906TIP3    H154209   3.709   0.442  15.580  1.4419 -1.5758 -1.2693
10906TIP3    H254210   3.715   0.546  15.470  1.9845  0.7210  0.8506
10907TIP3   OH254211   6.424   5.686  16.262  0.2311 -0.3851  0.3526
10907TIP3    H154212   6.505   5.654  16.222  0.1382 -0.9933  0.6430
10907TIP3    H254213   6.362   5.614  16.253  0.3119 -0.6976  1.9115
10908TIP3   OH254214   1.239   0.328   5.343  0.0344  0.4662  0.3941
10908TIP3    H154215   1.289   0.379   5.407 -1.0835  0.2581  1.4554
10908TIP3    H254216   1.306   0.283   5.291  0.9461  0.0061  1.9299
10909TIP3   OH254217   1.414   6.269   5.786 -0.3259  0.0308  0.2695
10909TIP3    H154218   1.344   6.203   5.793  0.0391 -0.2667  1.3647
10909TIP3    H254219   1.373   6.350   5.815 -0.0498 -0.2916  1.6450
10910TIP3   OH254220   2.439   1.547  15.344  0.2238  0.1702  0.4063
10910TIP3    H154221   2.483   1.520  15.425  0.6869  0.3547  0.2179
10910TIP3    H254222   2.464   1.638  15.332 -0.4853  0.3795  0.4728
10911TIP3   OH254223   5.118   5.403  15.866  0.3147 -0.1396 -0.0876
10911TIP3    H154224   5.062   5.374  15.794 -0.1954 -1.0998  0.6783
10911TIP3    H254225   5.192   5.447  15.823 -1.4020  1.9388 -1.1117
10912TIP3   OH254226   1.751   0.877  13.610  0.4251  0.7427 -0.0292
10912TIP3    H154227   1.816   0.902  13.676  0.3495 -1.9516  1.1972
10912TIP3    H254228   1.680   0.837  13.660  0.7786 -2.2879 -1.6738
10913TIP3   OH254229   2.017   2.656  14.255 -0.2597  0.0990 -0.0840
10913TIP3    H154230   2.043   2.661  14.162  0.1770  0.3236  0.0452
10913TIP3    H254231   1.939   2.600  14.255 -0.6716  0.6538 -0.6716
10914TIP3   OH254232   3.341   1.366  13.534 -0.5718  0.2203  0.0541
10914TIP3    H154233   3.367   1.283  13.574 -1.1269  0.3896  0.7976
10914TIP3    H254234   3.416   1.392  13.481  0.0796 -0.1608  0.7627
10915TIP3   OH254235   2.017   2.669   2.096  0.5871 -0.6551 -0.7287
10915TIP3    H154236   1.936   2.716   2.074  0.5684 -0.1466  0.3909
10915TIP3    H254237   2.050   2.639   2.011  0.7770  1.6688 -1.5545
10916TIP3   OH254238   2.543   5.629  11.324 -0.1718 -0.3516  0.3496
10916TIP3    H154239   2.602   5.629  11.249 -1.1677 -0.4720 -0.4538
10916TIP3    H254240   2.470   5.685  11.297 -2.1500 -2.9818 -0.0724
10917TIP3   OH254241   5.744   0.773  12.207 -0.0913  0.1077 -0.1020
10917TIP3    H154242   5.751   0.741  12.296  1.1561 -0.2099 -0.2938
10917TIP3    H254243   5.833   0.799  12.183 -0.5402  0.9278 -0.9867
10918TIP3   OH254244   3.607   4.661  13.111  0.6152  0.0609  0.0412
10918TIP3    H154245   3.558   4.601  13.055 -1.4487  0.7062  1.0824
10918TIP3    H254246   3.590   4.631  13.200 -0.4446  2.1226  0.5891
10919TIP3   OH254247   2.277   1.851   4.568  0.3415  0.3926 -0.0701
10919TIP3    H154248   2.239   1.924   4.519 -1.1870 -1.7628 -2.3429
10919TIP3    H254249   2.355   1.828   4.519  0.4649  0.1115  0.2582
10920TIP3   OH254250   5.774   2.754  13.671 -0.3331 -0.5206  0.3928
10920TIP3    H154251   5.829   2.801  13.609  1.0023 -0.7338  1.3914
10920TIP3    H254252   5.737   2.682  13.620  0.5141 -0.5246 -0.2294
10921TIP3   OH254253   0.092   5.607   0.748  0.6181  0.2198  0.1494
10921TIP3    H154254   0.148   5.552   0.693  0.4882  0.7394 -0.5199
10921TIP3    H254255   0.122   5.590   0.837  0.8243 -0.6557 -0.0712
10922TIP3   OH254256   4.012   0.448   3.555 -0.0405  0.6869 -0.1453
10922TIP3    H154257   4.060   0.484   3.629  0.9324 -0.0301 -0.4089
10922TIP3    H254258   4.069   0.464   3.479  1.0827 -2.4727 -0.1190
10923TIP3   OH254259   5.855   0.096  12.437  0.1478 -1.0106 -0.0738
10923TIP3    H154260   5.932   0.074  12.490 -0.9234 -3.9340  0.4545
10923TIP3    H254261   5.818   0.173  12.480  1.8540 -0.5238  0.6174
10924TIP3   OH254262   5.646   1.765  13.763 -0.2724  0.3388 -0.4541
10924TIP3    H154263   5.552   1.779  13.779 -0.1639 -0.0922  0.6895
10924TIP3    H254264   5.665   1.816  13.685 -1.4023  0.6783 -0.5271
10925TIP3   OH254265   0.280   1.635   0.880  0.4394 -0.0037  0.2928
10925TIP3    H154266   0.327   1.704   0.833  1.8327 -2.5144 -2.4075
10925TIP3    H254267   0.348   1.589   0.929 -0.2807 -0.0547  1.2650
10926TIP3   OH254268   2.536   1.636   2.057 -0.1092  0.4993 -0.4920
10926TIP3    H154269   2.516   1.574   1.987  1.1493 -0.7893  0.2469
10926TIP3    H254270   2.614   1.601   2.100 -1.7148  0.3277  2.6116
10927TIP3   OH254271   4.642   1.520  13.294 -0.3112 -0.6452  0.4675
10927TIP3    H154272   4.640   1.597  13.351  1.5312  0.5734 -0.9907
10927TIP3    H254273   4.732   1.487  13.301 -0.6220 -1.6774 -0.1956
10928TIP3   OH254274   5.143   5.094   3.815  0.1296  0.3545  0.0240
10928TIP3    H154275   5.098   5.010   3.814  0.2264  0.2748  1.3346
10928TIP3    H254276   5.074   5.158   3.797 -0.6317  0.2712  2.4002
10929TIP3   OH254277   0.797   4.936  14.387  0.0365  0.0062 -0.2241
10929TIP3    H154278   0.785   4.890  14.470  1.7376 -1.7398 -0.8501
10929TIP3    H254279   0.781   4.869  14.321 -0.7838  1.2301 -1.3079
10930TIP3   OH254280   0.947   2.879  15.454 -0.8060 -0.7437  0.2285
10930TIP3    H154281   0.910   2.890  15.367 -0.7589 -0.1421  0.2852
10930TIP3    H254282   0.921   2.957  15.502 -0.1243 -0.6789  0.5059
10931TIP3   OH254283   6.753   1.008  10.216  0.2931  0.7138  0.2374
10931TIP3    H154284   6.766   0.914  10.230 -1.4445  0.5762  1.1986
10931TIP3    H254285   6.790   1.025  10.129  1.7268 -0.5969  0.5452
10932TIP3   OH254286   6.674   3.916  14.783  0.3594 -0.0167 -0.2206
10932TIP3    H154287   6.760   3.926  14.744 -0.1941  1.4240 -1.1515
10932TIP3    H254288   6.622   3.988  14.747 -0.3253  1.2071  2.8153
10933TIP3   OH254289   2.859   4.020  15.569  0.1245 -0.3866 -0.1630
10933TIP3    H154290   2.917   4.047  15.641  0.4427 -0.3468 -0.4325
10933TIP3    H254291   2.906   4.045  15.490 -0.8429  0.8571 -0.3771
10934TIP3   OH254292   1.059   0.905  11.050 -0.4249 -0.0343 -0.6036
10934TIP3    H154293   1.043   0.817  11.084  1.5711 -0.2679 -0.1476
10934TIP3    H254294   1.034   0.964  11.121 -1.1420 -0.2348 -0.6737
10935TIP3   OH254295   2.466   3.101  12.160 -0.0601  0.4426 -0.2319
10935TIP3    H154296   2.501   3.127  12.075  0.2979  1.4636  0.2026
10935TIP3    H254297   2.459   3.183  12.209 -0.3247 -0.1140  0.6988
10936TIP3   OH254298   6.479   6.058   1.983 -0.7350 -0.2906 -0.2206
10936TIP3    H154299   6.573   6.066   1.999 -1.1019  2.1080  1.3271
10936TIP3    H254300   6.470   6.069   1.889  0.5264 -0.6326 -0.4042
10937TIP3   OH254301   5.013   0.960   6.550  0.2197  0.2678 -0.1405
10937TIP3    H154302   5.061   1.041   6.571  1.5252 -0.3832 -0.5406
10937TIP3    H254303   4.928   0.991   6.519  0.8245  1.5150 -0.6422
10938TIP3   OH254304   2.475   0.768   1.822 -0.2631 -0.2357 -0.2327
10938TIP3    H154305   2.433   0.853   1.806 -1.2269 -0.4721  0.9030
10938TIP3    H254306   2.495   0.734   1.735  2.0671  2.0563 -0.7303
10939TIP3   OH254307   4.941   0.739  16.879  0.2596 -0.4109  0.3158
10939TIP3    H154308   5.000   0.756  16.952  0.5889  1.6974 -0.3723
10939TIP3    H254309   4.993   0.759  16.801 -0.5810 -1.0236 -0.4178
10940TIP3   OH254310   0.072   2.495   2.619  0.3519  0.1588 -0.3056
10940TIP3    H154311   0.054   2.479   2.526  2.0088  2.8516 -1.1983
10940TIP3    H254312   0.008   2.561   2.645  0.2015 -0.2366  0.3521
10941TIP3   OH254313   0.253   0.738  12.967 -0.1454 -0.3573  0.1011
10941TIP3    H154314   0.265   0.823  13.009  0.2075  1.0494 -2.6456
10941TIP3    H254315   0.337   0.694  12.978  1.4924  1.7429 -2.6532
10942TIP3   OH254316   6.743   3.961  12.759  0.4160 -0.3461  0.2717
10942TIP3    H154317   6.744   4.033  12.822 -0.5666  0.0180 -0.1103
10942TIP3    H254318   6.749   3.882  12.812  0.3627 -0.0146  0.7738
10943TIP3   OH254319   5.676   1.474  14.606 -0.2373 -0.2535 -0.0837
10943TIP3    H154320   5.689   1.547  14.667 -0.4843  0.9160 -1.3505
10943TIP3    H254321   5.588   1.442  14.625 -0.6456  0.6616 -0.3592
10944TIP3   OH254322   4.802   4.847   4.780 -0.2819 -0.0755  0.4333
10944TIP3    H154323   4.863   4.918   4.762  1.6350 -1.7597 -0.0794
10944TIP3    H254324   4.810   4.788   4.705 -0.3279 -1.7891  1.7085
10945TIP3   OH254325   4.184   4.578   3.524  0.0825  0.5986  0.0503
10945TIP3    H154326   4.185   4.501   3.467  0.7598  0.9089 -0.3711
10945TIP3    H254327   4.266   4.574   3.572 -1.0441 -0.3655  1.9999
10946TIP3   OH254328   1.815   0.208  11.508 -0.3073  0.5625  0.3079
10946TIP3    H154329   1.879   0.146  11.475 -1.3315  0.0921 -0.8778
10946TIP3    H254330   1.778   0.249  11.429 -0.3522  1.9735  1.0199
10947TIP3   OH254331   6.407   1.458  13.240 -0.5022 -0.6182 -0.3568
10947TIP3    H154332   6.415   1.518  13.166  1.7082 -1.1154 -0.6111
10947TIP3    H254333   6.356   1.507  13.305 -1.4363  0.2921 -1.7201
10948TIP3   OH254334   2.815   0.529  15.781 -0.4116 -0.0782  0.3320
10948TIP3    H154335   2.858   0.445  15.800 -0.4264 -0.5292 -1.4212
10948TIP3    H254336   2.865   0.594  15.830  2.4262 -0.5507 -1.7318
10949TIP3   OH254337   4.702   2.798   2.944  0.3466 -0.6110 -0.3856
10949TIP3    H154338   4.685   2.707   2.966 -0.3366 -0.6286 -0.9440
10949TIP3    H254339   4.682   2.847   3.024 -0.0919 -0.8741 -0.3321
10950TIP3   OH254340   6.431   0.793  17.119 -0.1062 -0.3658  0.2487
10950TIP3    H154341   6.354   0.809  17.064  1.1724 -0.2630 -1.6177
10950TIP3    H254342   6.470   0.713  17.083  1.1504  0.0862  0.5396
10951TIP3   OH254343   0.256   5.117  14.378 -1.0257 -0.0447 -0.1418
10951TIP3    H154344   0.297   5.031  14.368 -1.6232 -0.1230 -2.7204
10951TIP3    H254345   0.318   5.178  14.337 -0.7131  0.7721  1.4564
10952TIP3   OH254346   2.066   2.545   3.106 -0.6053  0.6144 -0.0449
10952TIP3    H154347   2.032   2.633   3.088 -0.1515  0.2900 -2.8738
10952TIP3    H254348   1.990   2.487   3.094 -0.8933  0.5542  1.7764
10953TIP3   OH254349   1.884   3.179   0.272  0.4185 -0.1024  0.2918
10953TIP3    H154350   1.972   3.203   0.300  0.2338 -0.7487  1.5093
10953TIP3    H254351   1.840   3.151   0.353 -1.1818  1.0359 -0.1369
10954TIP3   OH254352   2.032   4.393  12.013 -0.8661  0.0618 -0.5693
10954TIP3    H154353   2.105   4.452  12.027 -1.0571 -0.0147  0.8471
10954TIP3    H254354   2.073   4.307  12.001 -0.6824  0.1795 -0.7952
10955TIP3   OH254355   0.606   5.317  10.011 -0.6531  0.6110 -0.5747
10955TIP3    H154356   0.669   5.336  10.080 -1.2906  1.4500 -0.2078
10955TIP3    H254357   0.650   5.253   9.955  0.4646  1.0956 -0.2617
10956TIP3   OH254358   0.202   1.007   4.802  0.2109 -0.9688  0.2212
10956TIP3    H154359   0.176   0.934   4.859 -0.8426 -1.7928 -1.2466
10956TIP3    H254360   0.119   1.050   4.780  0.5885 -0.7065 -0.7197
10957TIP3   OH254361   5.046   2.966   3.017 -0.3232  0.3656 -0.1410
10957TIP3    H154362   5.102   2.942   2.943  1.3792  0.1127  1.1741
10957TIP3    H254363   5.102   2.957   3.094 -2.0613  0.5469  1.2131
10958TIP3   OH254364   1.728   0.478  10.144 -0.8359 -0.3884  0.4174
10958TIP3    H154365   1.713   0.437  10.059  0.7019  1.5329 -0.8824
10958TIP3    H254366   1.822   0.469  10.159 -0.9565  0.0387  1.4969
10959TIP3   OH254367   6.340   6.788   0.077 -0.1147  0.1718 -0.3098
10959TIP3    H154368   6.330   6.838   0.159  1.2671  1.9983 -1.1747
10959TIP3    H254369   6.355   6.855   0.010  0.9537 -1.3860 -1.7042
10960TIP3   OH254370   3.335   3.481   4.794 -0.2530  0.0473 -0.4676
10960TIP3    H154371   3.386   3.401   4.810  0.8678  0.2184 -2.7814
10960TIP3    H254372   3.351   3.502   4.702 -0.6008  2.8899  0.0221
10961TIP3   OH254373   1.161   6.745   4.692 -0.4383 -0.7471  0.3293
10961TIP3    H154374   1.198   6.830   4.667 -0.8533 -0.4063  0.8555
10961TIP3    H254375   1.228   6.706   4.749 -1.3362  0.3803  2.2609
10962TIP3   OH254376   2.280   5.739  10.431 -0.4674 -0.3113 -0.0008
10962TIP3    H154377   2.351   5.677  10.417 -1.5503 -1.8954  1.1497
10962TIP3    H254378   2.200   5.687  10.415 -1.3908  1.1941 -0.4558
10963TIP3   OH254379   1.624   5.329   0.131  0.6019 -0.1895  0.3527
10963TIP3    H154380   1.715   5.332   0.161 -0.1702 -0.3254  2.8963
10963TIP3    H254381   1.614   5.241   0.094  0.7584 -1.3428  2.8448
10964TIP3   OH254382   4.480   3.134  13.589  0.0446  0.3798 -0.0979
10964TIP3    H154383   4.548   3.201  13.600  1.3523 -0.7986 -0.7018
10964TIP3    H254384   4.446   3.119  13.677  0.4240  1.1329  0.1853
10965TIP3   OH254385   2.590   3.502  10.799  0.4764  0.6006  0.4499
10965TIP3    H154386   2.546   3.429  10.755 -0.0497  0.8470  0.5610
10965TIP3    H254387   2.622   3.466  10.881  0.3234  0.4667  0.4489
10966TIP3   OH254388   1.577   2.840   1.102 -0.0293 -0.8353  0.1277
10966TIP3    H154389   1.635   2.912   1.125  0.0151 -1.2255  1.2759
10966TIP3    H254390   1.628   2.761   1.120  0.5308 -1.2153 -2.6556
10967TIP3   OH254391   2.239   3.294   1.068 -0.4593 -0.0078 -0.1462
10967TIP3    H154392   2.173   3.364   1.067  0.4970  0.9231 -1.1188
10967TIP3    H254393   2.204   3.229   1.128 -1.5901  1.1179  0.4674
10968TIP3   OH254394   2.538   1.113   4.406  0.0138  0.3064 -0.7137
10968TIP3    H154395   2.555   1.107   4.312 -0.7859 -0.2757 -0.8332
10968TIP3    H254396   2.457   1.163   4.413  2.2342  4.2357 -0.0934
10969TIP3   OH254397   4.158   5.543  14.369 -0.0948  0.0065 -0.0468
10969TIP3    H154398   4.155   5.572  14.460  0.8607  0.0870 -0.0374
10969TIP3    H254399   4.204   5.460  14.371  1.2426  0.6934 -0.6076
10970TIP3   OH254400   6.772   4.927  12.066  0.5817 -0.1520 -0.7295
10970TIP3    H154401   6.833   4.990  12.029  1.6019 -0.1662  0.8297
10970TIP3    H254402   6.814   4.842  12.053 -0.7037 -0.5576 -2.6618
10971TIP3   OH254403   6.243   3.948   2.686  0.2252 -0.0370 -0.4136
10971TIP3    H154404   6.262   3.901   2.605  3.0599  2.8127 -1.6325
10971TIP3    H254405   6.184   4.019   2.660  1.0382  0.8094 -0.0277
10972TIP3   OH254406   5.864   6.740   2.883 -0.2343  0.5214  0.7190
10972TIP3    H154407   5.794   6.693   2.928 -1.0117  1.0832  0.1491
10972TIP3    H254408   5.916   6.779   2.953 -0.2584 -0.2233  1.1617
10973TIP3   OH254409   1.129   3.954   2.720 -0.0777 -0.1649 -0.1788
10973TIP3    H154410   1.060   4.016   2.698 -0.1882  0.2347  1.2341
10973TIP3    H254411   1.082   3.874   2.746 -0.0087 -0.0257  0.3864
10974TIP3   OH254412   6.333   0.363  10.752 -0.1165 -0.3598  0.2673
10974TIP3    H154413   6.334   0.268  10.738 -1.0376 -0.3031 -0.3499
10974TIP3    H254414   6.380   0.377  10.834  0.1812 -1.3342  0.2676
10975TIP3   OH254415   1.179   3.686   1.111 -0.1650 -0.1138  0.4393
10975TIP3    H154416   1.219   3.617   1.163  1.1115  1.3027  1.4445
10975TIP3    H254417   1.244   3.757   1.111 -0.9010  0.6331 -1.5742
10976TIP3   OH254418   2.915   6.419   1.019  0.0084  0.0417 -0.2367
10976TIP3    H154419   2.983   6.472   0.976 -0.0340  1.5509  1.4565
10976TIP3    H254420   2.872   6.374   0.946  1.6107  0.4608 -1.5303
10977TIP3   OH254421   6.335   3.399  13.774  0.6486 -0.0441 -0.0543
10977TIP3    H154422   6.416   3.374  13.729  0.3806  0.5386 -0.8748
10977TIP3    H254423   6.356   3.481  13.818 -0.0145  1.1762 -1.8803
10978TIP3   OH254424   1.990   6.165  15.094  0.2046 -0.2060 -0.2537
10978TIP3    H154425   1.997   6.261  15.096 -0.8121 -0.0446 -2.0107
10978TIP3    H254426   1.999   6.138  15.185 -1.3341  1.7215  0.5249
10979TIP3   OH254427   0.480   0.516  12.921  0.0045 -0.0054 -0.3906
10979TIP3    H154428   0.546   0.498  12.854  0.8649 -0.7299  0.6249
10979TIP3    H254429   0.530   0.543  12.998 -0.8087 -1.2476  0.6219
10980TIP3   OH254430   6.574   0.949  16.607 -0.3713  0.6528 -0.0919
10980TIP3    H154431   6.530   1.032  16.589  0.3695  0.5133 -2.9635
10980TIP3    H254432   6.564   0.898  16.527  1.9603 -0.7368  0.4042
10981TIP3   OH254433   2.631   0.223  16.670 -0.0198  0.0999 -0.1368
10981TIP3    H154434   2.622   0.293  16.604 -0.8345  2.3437  2.1816
10981TIP3    H254435   2.699   0.254  16.729 -2.6530  0.7498  2.8779
10982TIP3   OH254436   1.213   3.356   1.729 -0.7851  0.2842  0.1143
10982TIP3    H154437   1.213   3.267   1.764 -3.5912  0.8192  1.7523
10982TIP3    H254438   1.235   3.412   1.804 -1.9142  1.1238 -0.1375
10983TIP3   OH254439   0.460   5.273   3.204  0.4629 -0.0780 -0.0128
10983TIP3    H154440   0.497   5.278   3.116  1.4803  3.0222  0.4895
10983TIP3    H254441   0.525   5.223   3.255  1.0088  0.1239 -0.5056
10984TIP3   OH254442   4.976   5.592   5.665 -0.4921  0.6124  0.1307
10984TIP3    H154443   4.986   5.683   5.694 -1.0253  0.9789 -0.7764
10984TIP3    H254444   4.925   5.550   5.733  0.1426  0.8689  0.7836
10985TIP3   OH254445   1.978   3.937  10.658 -0.3903  0.2312  0.1077
10985TIP3    H154446   1.937   3.972  10.737  0.0684  0.8305  0.0924
10985TIP3    H254447   2.030   4.010  10.624 -1.4771  0.3718 -1.3808
10986TIP3   OH254448   4.555   5.728  13.955  0.4291  0.1174  0.4956
10986TIP3    H154449   4.626   5.719  13.892  0.2018 -0.7870  0.3496
10986TIP3    H254450   4.574   5.810  14.001 -1.1140  2.5317 -2.8372
10987TIP3   OH254451   3.311   5.073   0.382 -0.2100 -0.2479 -0.1358
10987TIP3    H154452   3.257   5.102   0.309 -0.6679 -1.0935 -0.1479
10987TIP3    H254453   3.249   5.053   0.452 -0.0809 -2.5646 -0.5977
10988TIP3   OH254454   0.572   1.709  16.807  0.0379 -0.3054  0.2558
10988TIP3    H154455   0.548   1.793  16.769 -0.0560  0.3053  1.5990
10988TIP3    H254456   0.489   1.661  16.812 -0.4669  0.6422  2.0817
10989TIP3   OH254457   6.441   1.780   4.700  0.3626  0.0646  0.1680
10989TIP3    H154458   6.373   1.748   4.642  0.7349 -0.6922  0.1359
10989TIP3    H254459   6.403   1.856   4.743 -1.5289 -1.9036  2.2074
10990TIP3   OH254460   5.217   0.481   3.621 -0.2442  0.5491  0.7669
10990TIP3    H154461   5.211   0.502   3.714 -0.2975  2.4648  0.3576
10990TIP3    H254462   5.152   0.412   3.607  1.0052 -1.0783  2.4722
10991TIP3   OH254463   4.591   0.419  13.979  0.7333 -0.3191  0.5987
10991TIP3    H154464   4.596   0.515  13.973  1.3287 -0.3381  0.7256
10991TIP3    H254465   4.509   0.397  13.936  2.1313 -0.0246 -2.4751
10992TIP3   OH254466   6.423   4.033   4.986  0.3738 -0.1658 -0.0457
10992TIP3    H154467   6.491   4.054   4.922  0.3002  0.3092  0.0312
10992TIP3    H254468   6.386   3.950   4.955  2.6524 -1.7895  1.2515
10993TIP3   OH254469   4.379   1.402  16.962  0.8216  0.4835  0.1335
10993TIP3    H154470   4.331   1.324  16.989  0.4511  0.2600 -1.0809
10993TIP3    H254471   4.471   1.377  16.967  0.7894  0.5609  1.4349
10994TIP3   OH254472   2.082   2.078  12.135 -0.0701  0.1886 -0.4307
10994TIP3    H154473   1.989   2.072  12.114  0.4778  0.2328 -3.2564
10994TIP3    H254474   2.084   2.114  12.224 -2.7480 -2.2738  0.7817
10995TIP3   OH254475   4.192   2.114  11.394  0.9889 -0.4973 -0.3162
10995TIP3    H154476   4.265   2.111  11.332 -0.7706 -0.8396 -2.4611
10995TIP3    H254477   4.139   2.037  11.374 -1.1105  0.8724 -0.2999
10996TIP3   OH254478   4.212   1.284   5.153  0.2973 -0.0957  0.3528
10996TIP3    H154479   4.208   1.336   5.073  2.2144 -0.7198 -0.2154
10996TIP3    H254480   4.286   1.321   5.201  0.9678 -1.5278  0.4719
10997TIP3   OH254481   1.581   0.328  16.087  1.0193  0.2749  0.2641
10997TIP3    H154482   1.510   0.306  16.028 -0.8760  0.6344  2.2852
10997TIP3    H254483   1.586   0.254  16.148  2.1841  0.4021  0.3592
10998TIP3   OH254484   3.070   6.657  15.055  0.0961 -0.5254 -0.2426
10998TIP3    H154485   3.143   6.708  15.089  0.4606 -0.2269 -1.4235
10998TIP3    H254486   3.011   6.646  15.130 -0.2678  2.0958 -0.0718
10999TIP3   OH254487   6.436   4.218  10.641 -0.2869 -0.1135  0.0789
10999TIP3    H154488   6.454   4.263  10.558  0.1974  0.8879  0.7124
10999TIP3    H254489   6.416   4.288  10.702 -0.5175 -0.8414  0.8466
11000TIP3   OH254490   3.014   6.657   0.281  0.3014 -0.3904 -0.3014
11000TIP3    H154491   2.982   6.576   0.321  1.7600  0.2005  2.3102
11000TIP3    H254492   3.107   6.640   0.265  0.1640  0.0879 -1.7580
11001TIP3   OH254493   1.054   2.626   2.993  0.1157 -0.4389 -0.8337
11001TIP3    H154494   1.116   2.612   3.064  0.1310 -0.8244 -0.9222
11001TIP3    H254495   1.060   2.547   2.939  0.9657  0.3516 -1.9230
11002TIP3   OH254496   0.956   3.373   3.072  0.6714 -0.4483 -0.4395
11002TIP3    H154497   1.019   3.320   3.121 -0.8680 -0.5571  1.5905
11002TIP3    H254498   0.926   3.316   3.001 -0.5778 -2.2240  1.3965
11003TIP3   OH254499   2.663   1.998  15.306  0.3614  0.7631  0.9939
11003TIP3    H154500   2.673   2.083  15.349 -0.4947  1.1498  0.4627
11003TIP3    H254501   2.571   1.975  15.320  0.3160  0.4380  0.2068
11004TIP3   OH254502   6.464   5.264  15.259 -0.3510 -0.1374 -0.5534
11004TIP3    H154503   6.453   5.199  15.329 -0.5567  0.1725 -0.2914
11004TIP3    H254504   6.558   5.265  15.241 -0.4024 -0.8382 -0.8795
11005TIP3   OH254505   0.606   6.168   1.205  0.4037 -0.4050 -0.2273
11005TIP3    H154506   0.695   6.177   1.169 -0.4141  0.7902 -2.1056
11005TIP3    H254507   0.611   6.209   1.291  1.8167 -0.9043 -0.0437
11006TIP3   OH254508   0.933   3.470  10.955 -0.2504  0.4731  0.1445
11006TIP3    H154509   0.990   3.479  10.879 -0.9942  0.4343 -0.4343
11006TIP3    H254510   0.964   3.536  11.017  0.5443  0.3127 -0.0677
11007TIP3   OH254511   4.955   6.005  15.978  0.0091 -0.4967  0.1217
11007TIP3    H154512   4.967   6.082  15.923 -1.6816 -0.1361  0.1971
11007TIP3    H254513   5.025   5.945  15.952  0.3400  0.3900 -1.1090
11008TIP3   OH254514   6.378   0.317   5.829  0.1595  0.1743 -0.1027
11008TIP3    H154515   6.336   0.233   5.849 -0.5752  0.6405  0.3420
11008TIP3    H254516   6.459   0.316   5.880  0.9389 -0.8987 -1.2703
11009TIP3   OH254517   4.593   0.829   5.949  0.0980 -0.1299  0.0220
11009TIP3    H154518   4.640   0.882   6.013  0.4940 -0.4491  0.0040
11009TIP3    H254519   4.550   0.761   6.000 -1.2459  0.7731  0.1581
11010TIP3   OH254520   6.836   0.203  14.932  0.0175  0.2039  0.0233
11010TIP3    H154521   6.858   0.247  14.849 -1.0113 -1.2552 -1.0724
11010TIP3    H254522   6.832   0.274  14.996 -0.3290  1.5523 -1.4208
11011TIP3   OH254523   2.648   0.193  14.633  0.1402 -0.6152 -1.0192
11011TIP3    H154524   2.631   0.279  14.670  0.8541 -0.7533 -0.3432
11011TIP3    H254525   2.572   0.141  14.658 -0.0643 -0.3155 -1.0128
11012TIP3   OH254526   3.581   6.249   5.453  0.7331 -0.3665 -0.2217
11012TIP3    H154527   3.632   6.209   5.383  1.5878  0.3910 -0.0631
11012TIP3    H254528   3.496   6.268   5.414  1.6581  1.3936 -1.5562
11013TIP3   OH254529   3.274   2.490  14.787  0.7750 -0.0260 -0.0831
11013TIP3    H154530   3.186   2.471  14.754  1.2803 -1.2285 -0.7852
11013TIP3    H254531   3.273   2.457  14.877  1.0053 -1.6182 -0.6326
11014TIP3   OH254532   6.165   4.493  16.287  0.8431 -0.2074  0.3153
11014TIP3    H154533   6.231   4.509  16.219 -0.3902  0.9500 -0.6694
11014TIP3    H254534   6.082   4.494  16.240  0.0028 -0.0937  1.7449
11015TIP3   OH254535   1.061   5.059  12.978 -0.7521 -0.5881 -0.0557
11015TIP3    H154536   1.022   5.012  12.904 -2.5502 -0.4516  0.7552
11015TIP3    H254537   1.156   5.051  12.965 -1.0066  0.0204 -2.7292
11016TIP3   OH254538   4.668   3.082  12.027  0.2845 -0.3583 -0.3470
11016TIP3    H154539   4.731   3.016  12.056  0.7818  0.0748 -0.4289
11016TIP3    H254540   4.607   3.091  12.100  0.5715 -0.4676 -0.0935
11017TIP3   OH254541   3.617   5.646  12.633  0.1447  0.1635 -0.0311
11017TIP3    H154542   3.581   5.732  12.651  2.9004  1.4217 -0.0825
11017TIP3    H254543   3.631   5.645  12.538 -0.6046 -0.6812 -0.1483
11018TIP3   OH254544   3.403   2.140   3.100  0.3145  0.5657  0.0818
11018TIP3    H154545   3.415   2.076   3.171 -0.3785 -1.0211 -1.1559
11018TIP3    H254546   3.352   2.210   3.140  1.7454  0.7576  1.6969
11019TIP3   OH254547   4.441   3.003   3.440  0.0644 -0.5152  0.5293
11019TIP3    H154548   4.521   3.034   3.397 -0.3341 -1.3682 -0.8538
11019TIP3    H254549   4.381   3.077   3.436  0.7425  0.1264  1.5585
11020TIP3   OH254550   1.653   1.929  14.583 -0.2407  0.4335  0.0286
11020TIP3    H154551   1.746   1.950  14.581  0.3665 -1.3618  2.9447
11020TIP3    H254552   1.638   1.875  14.505  0.6279  2.3603 -1.5364
11021TIP3   OH254553   0.308   0.600   4.270 -0.0385  0.5865  0.4704
11021TIP3    H154554   0.400   0.584   4.292 -0.3561 -0.8839  0.8313
11021TIP3    H254555   0.273   0.513   4.248 -1.4793  1.0302  0.8989
11022TIP3   OH254556   3.687   5.082   4.659 -0.1656  0.8068  0.5556
11022TIP3    H154557   3.769   5.115   4.697 -0.4658  0.3308  1.6755
11022TIP3    H254558   3.656   5.017   4.722 -2.1149  1.9770  0.8887
11023TIP3   OH254559   1.451   3.125  12.389 -0.9583 -0.1144  0.0816
11023TIP3    H154560   1.522   3.064  12.371  1.0495  1.7034  1.4326
11023TIP3    H254561   1.375   3.087  12.345  0.7494 -2.2880 -1.1604
11024TIP3   OH254562   6.822   3.291   5.082 -0.0940 -0.8510  0.7308
11024TIP3    H154563   6.818   3.321   5.173 -3.0233 -1.5220  0.9374
11024TIP3    H254564   6.900   3.333   5.046  0.8051 -0.0635  3.3585
11025TIP3   OH254565   3.482   6.002  16.238 -0.1382  0.2038 -0.3633
11025TIP3    H154566   3.416   5.989  16.171  0.5874  0.3472 -1.1245
11025TIP3    H254567   3.454   5.946  16.311 -0.9651  0.0994 -0.7548
11026TIP3   OH254568   6.586   1.182   0.940 -0.1340  0.0565 -0.4671
11026TIP3    H154569   6.559   1.095   0.969 -0.5059  0.1036 -0.6708
11026TIP3    H254570   6.505   1.232   0.937  0.0405  0.3262 -0.6415
11027TIP3   OH254571   0.631   2.443  11.184  0.1897 -0.1612 -0.2441
11027TIP3    H154572   0.684   2.478  11.256  0.5109 -0.0225 -0.5498
11027TIP3    H254573   0.671   2.478  11.105 -0.1360 -0.3546 -0.4958
11028TIP3   OH254574   3.182   1.736   4.491 -0.3769 -0.0261  0.2354
11028TIP3    H154575   3.272   1.709   4.511 -0.5156  0.5600  1.7735
11028TIP3    H254576   3.170   1.817   4.541 -1.6923  0.0195 -0.1316
11029TIP3   OH254577   4.403   3.953  12.911  0.2858 -0.1112  0.0306
11029TIP3    H154578   4.320   3.958  12.864  1.3081  1.8075 -1.7741
11029TIP3    H254579   4.450   3.880  12.870  0.6862  0.7890 -1.1809
11030TIP3   OH254580   4.562   3.323   5.585  0.1732 -0.1828  0.1728
11030TIP3    H154581   4.480   3.278   5.604  0.9888 -2.5195 -1.4483
11030TIP3    H254582   4.623   3.290   5.652  0.4966 -0.6488 -0.3478
11031TIP3   OH254583   6.115   6.264  15.182 -0.3327  0.3207  0.0564
11031TIP3    H154584   6.146   6.241  15.094 -0.9028  0.8487 -0.2899
11031TIP3    H254585   6.184   6.319  15.219  1.7391 -2.9278  1.4404
11032TIP3   OH254586   5.066   4.104  14.085  0.0762 -0.5231  0.1401
11032TIP3    H154587   5.041   4.017  14.115  1.3323 -1.1311 -0.5050
11032TIP3    H254588   5.151   4.120  14.127  0.2325  0.0501 -0.3750
11033TIP3   OH254589   6.133   0.835  11.633 -0.4625  0.2003 -0.4836
11033TIP3    H154590   6.186   0.771  11.680 -1.0057  0.6934  0.8372
11033TIP3    H254591   6.045   0.796  11.631 -0.3163 -0.1136 -1.6987
11034TIP3   OH254592   6.151   2.182  14.715  0.0013 -0.1293  0.1309
11034TIP3    H154593   6.138   2.274  14.692  2.7475  0.4115  0.3457
11034TIP3    H254594   6.083   2.163  14.780 -1.0663  1.5171 -0.4576
11035TIP3   OH254595   5.159   2.775  17.116 -0.0825 -0.3184  0.2581
11035TIP3    H154596   5.085   2.715  17.128 -0.7139  0.4198  0.1339
11035TIP3    H254597   5.211   2.734  17.047 -3.0180  1.5033 -3.4080
11036TIP3   OH254598   1.482   5.334   1.655  0.2486  0.4558 -0.3241
11036TIP3    H154599   1.486   5.308   1.747 -0.8151  0.7804 -0.1779
11036TIP3    H254600   1.556   5.394   1.644  0.2178  0.6247  0.3769
11037TIP3   OH254601   4.254   1.163  14.463  0.0334 -0.3375 -0.3152
11037TIP3    H154602   4.281   1.099  14.529  1.7563 -1.7020 -2.1984
11037TIP3    H254603   4.182   1.120  14.417 -1.2426  0.6586  0.6555
11038TIP3   OH254604   5.472   6.028   4.848  0.0560 -0.2225  0.0100
11038TIP3    H154605   5.455   5.941   4.884 -2.1275 -0.1916 -0.7484
11038TIP3    H254606   5.469   6.086   4.924  1.8878 -0.7955  0.5714
11039TIP3   OH254607   4.587   0.745   0.294  0.2230  0.2792  0.0589
11039TIP3    H154608   4.668   0.722   0.247  0.0152  1.4923 -0.9697
11039TIP3    H254609   4.598   0.707   0.381  1.3856 -0.5816 -0.4336
11040TIP3   OH254610   5.094   3.560  11.299  0.1400  0.0316 -0.3730
11040TIP3    H154611   5.020   3.618  11.281 -0.7191 -0.7645  0.4892
11040TIP3    H254612   5.099   3.557  11.394 -0.8558 -2.4949 -0.3059
11041TIP3   OH254613   1.912   0.441   5.636  0.3377  0.7013  0.3002
11041TIP3    H154614   1.841   0.435   5.572  0.8305 -1.1611 -0.1542
11041TIP3    H254615   1.991   0.457   5.583  0.6954 -0.5153  0.4162
11042TIP3   OH254616   3.744   1.496   6.266  0.1126 -0.0016 -0.4074
11042TIP3    H154617   3.798   1.575   6.268 -0.8285  0.8510 -3.2787
11042TIP3    H254618   3.796   1.429   6.310  0.6658  2.2839  2.7928
11043TIP3   OH254619   4.759   1.955  10.899  0.0797  0.1950  0.8465
11043TIP3    H154620   4.842   1.990  10.932 -0.5991  2.0019  0.7461
11043TIP3    H254621   4.716   2.030  10.859 -0.1629 -1.3938 -2.1130
11044TIP3   OH254622   6.204   2.402  16.192 -0.1442  0.1880  0.5982
11044TIP3    H154623   6.173   2.492  16.206  1.2720  0.8237 -0.1879
11044TIP3    H254624   6.129   2.358  16.151 -0.4123  1.3784 -0.2530
11045TIP3   OH254625   4.502   2.023   1.900 -0.5214  0.0226 -0.1262
11045TIP3    H154626   4.518   2.113   1.926  0.6567 -0.4357  0.8020
11045TIP3    H254627   4.577   1.974   1.933  0.1448 -0.9349 -2.7797
11046TIP3   OH254628   0.628   4.495   0.337 -0.3655  0.6527 -0.0106
11046TIP3    H154629   0.543   4.453   0.324 -0.7010  1.5492 -0.9016
11046TIP3    H254630   0.650   4.478   0.428 -0.3916 -1.5840 -0.3632
11047TIP3   OH254631   6.714   2.877  13.879 -0.4875 -0.0937  0.3120
11047TIP3    H154632   6.771   2.805  13.849 -0.0828 -0.4575  1.8633
11047TIP3    H254633   6.773   2.951  13.890 -1.1903  1.1643 -3.1648
11048TIP3   OH254634   2.645   2.994   0.816 -0.0657  0.3018  0.1157
11048TIP3    H154635   2.708   3.032   0.754 -1.6914  1.1606 -1.0727
11048TIP3    H254636   2.671   3.030   0.901  1.5727 -0.0716 -0.1939
11049TIP3   OH254637   5.934   2.993  10.457  0.0934 -0.7075  0.7312
11049TIP3    H154638   5.844   2.965  10.469  0.9451 -3.6609  0.8966
11049TIP3    H254639   5.959   2.961  10.371  0.9175  0.3602  0.5499
11050TIP3   OH254640   4.008   2.129  15.089 -0.7717  0.1304  0.1926
11050TIP3    H154641   4.000   2.038  15.118 -3.8986  0.1800 -0.2053
11050TIP3    H254642   3.940   2.139  15.023  0.2226  2.5035 -0.5589
11051TIP3   OH254643   4.671   5.801  11.832 -0.0667  0.2374  0.4130
11051TIP3    H154644   4.761   5.769  11.840 -0.1710 -0.3453 -0.5530
11051TIP3    H254645   4.672   5.859  11.756 -0.6038 -0.1950  0.0604
11052TIP3   OH254646   1.512   0.360   2.797 -0.5308 -0.3637 -0.2429
11052TIP3    H154647   1.536   0.397   2.882 -0.7714 -1.1423  0.1722
11052TIP3    H254648   1.567   0.282   2.789 -1.0801 -0.7325 -0.4434
11053TIP3   OH254649   2.668   1.275  11.431 -0.2962 -0.2848  0.1805
11053TIP3    H154650   2.721   1.202  11.463  3.4395  2.3679  0.6572
11053TIP3    H254651   2.672   1.341  11.501 -1.5198  1.3374 -1.1759
11054TIP3   OH254652   5.960   2.860  11.960 -0.7444 -0.4091 -0.4409
11054TIP3    H154653   5.909   2.920  12.014  0.6117  0.3969 -0.0025
11054TIP3    H254654   5.949   2.894  11.871  0.2731  0.7344 -0.1626
11055TIP3   OH254655   5.585   1.689  12.415 -0.0394  0.2667  0.0732
11055TIP3    H154656   5.596   1.688  12.510  2.3790 -1.3328 -0.1566
11055TIP3    H254657   5.662   1.734  12.382 -0.2423 -0.2721 -1.1940
11056TIP3   OH254658   0.340   4.216  11.038  0.3372 -0.3643 -0.1133
11056TIP3    H154659   0.381   4.183  11.118  1.4367 -0.9960 -0.9143
11056TIP3    H254660   0.286   4.143  11.007 -1.5762  0.4895  0.9896
11057TIP3   OH254661   2.620   5.572  12.003  0.2618  0.0367 -0.4421
11057TIP3    H154662   2.672   5.645  12.036 -1.1925 -0.1535  2.6239
11057TIP3    H254663   2.685   5.508  11.972  1.5658  2.1814 -2.4212
11058TIP3   OH254664   1.941   4.903  12.575 -0.3126  0.1867  0.6716
11058TIP3    H154665   2.013   4.841  12.566 -1.0354 -0.5477 -0.3525
11058TIP3    H254666   1.905   4.886  12.662  0.3968  0.1844  0.9695
11059TIP3   OH254667   3.062   2.928   3.436 -0.2249 -0.2016 -0.0839
11059TIP3    H154668   3.099   3.004   3.482 -1.4323 -1.3045  2.9402
11059TIP3    H254669   3.130   2.861   3.442 -0.3947 -0.3557  0.1347
11060TIP3   OH254670   5.246   3.253   0.049  0.3122  0.6282 -0.3859
11060TIP3    H154671   5.164   3.257  -0.001 -0.9054 -0.1470  1.4167
11060TIP3    H254672   5.273   3.161   0.043 -1.0744 -0.0501  2.0571
11061TIP3   OH254673   6.536   1.541   6.038  0.5354  0.1855 -0.0627
11061TIP3    H154674   6.491   1.457   6.029 -1.5213  1.0666  1.2355
11061TIP3    H254675   6.544   1.554   6.132  1.1404  1.3028 -0.2558
11062TIP3   OH254676   4.208   0.435  12.119 -0.4143  0.9461  0.4240
11062TIP3    H154677   4.211   0.514  12.173 -2.7154  0.4587  1.4017
11062TIP3    H254678   4.124   0.440  12.074  0.7714  0.5524 -1.9835
11063TIP3   OH254679   1.969   5.250  14.015  0.2063 -0.2083  0.1761
11063TIP3    H154680   1.940   5.298  13.937  1.0256  2.4322  1.3517
11063TIP3    H254681   1.888   5.231  14.063 -0.3315 -2.0801 -1.3360
11064TIP3   OH254682   2.541   6.752  10.858 -0.5677 -0.3525  0.0998
11064TIP3    H154683   2.516   6.837  10.895 -1.1004  0.1001 -1.2130
11064TIP3    H254684   2.460   6.718  10.820  0.0111 -0.6080 -0.9526
11065TIP3   OH254685   3.806   1.736  16.561  0.1165 -0.5535  0.6980
11065TIP3    H154686   3.835   1.652  16.596 -1.8779 -0.9580  1.5028
11065TIP3    H254687   3.804   1.794  16.637  1.5803  0.2813  0.1307
11066TIP3   OH254688   3.488   3.003  12.479 -0.1989  0.0436  0.7871
11066TIP3    H154689   3.581   2.994  12.459 -0.1177  1.7667  0.2185
11066TIP3    H254690   3.484   3.010  12.575 -0.0093 -2.3502  1.0141
11067TIP3   OH254691   0.652   0.409   3.107 -0.0641 -0.7994  0.1689
11067TIP3    H154692   0.574   0.417   3.162  0.1599 -0.4380  0.4311
11067TIP3    H254693   0.704   0.341   3.149  0.9007  0.6279  1.3667
11068TIP3   OH254694   5.608   0.258   4.276  0.4762  0.0604  0.3364
11068TIP3    H154695   5.545   0.240   4.345  0.2223 -0.0720  0.0746
11068TIP3    H254696   5.682   0.201   4.295  0.1205 -0.4800  0.1149
11069TIP3   OH254697   3.671   2.678  10.617  0.5444 -0.2240  0.2301
11069TIP3    H154698   3.639   2.588  10.618 -0.3960  0.0957  0.7263
11069TIP3    H254699   3.652   2.711  10.705  3.9628 -0.5545  1.2211
11070TIP3   OH254700   4.758   4.718  17.110 -0.4870  0.0962  0.4745
11070TIP3    H154701   4.766   4.625  17.130  0.2502  0.4259  1.8213
11070TIP3    H254702   4.847   4.745  17.086 -0.5712  0.5735  0.6882
11071TIP3   OH254703   5.731   3.363   4.734 -0.5516  0.3111  0.7411
11071TIP3    H154704   5.734   3.373   4.829  0.6069 -0.2036  0.7723
11071TIP3    H254705   5.822   3.370   4.706 -0.8613  0.2738 -0.3165
11072TIP3   OH254706   0.001   3.241   2.280  0.0406  0.2696 -0.9354
11072TIP3    H154707   0.002   3.169   2.217  0.0102  0.2680 -0.9340
11072TIP3    H254708  -0.013   3.198   2.365 -0.0830  0.2861 -0.9469
11073TIP3   OH254709   0.938   5.865  16.918  1.1313 -0.3368  0.0126
11073TIP3    H154710   0.961   5.783  16.962 -0.0651 -0.7887 -0.1571
11073TIP3    H254711   0.903   5.921  16.987  1.1412 -0.2908 -0.0196
11074TIP3   OH254712   2.986   0.100   2.194  0.4138 -0.4360 -0.0496
11074TIP3    H154713   2.895   0.108   2.165  0.0809 -1.0846  0.7532
11074TIP3    H254714   3.036   0.085   2.113 -0.3916 -1.5411 -0.3747
11075TIP3   OH254715   1.151   0.905  12.068  0.4685  0.3940 -0.2081
11075TIP3    H154716   1.089   0.952  12.013  1.4651  1.0830 -0.7938
11075TIP3    H254717   1.098   0.861  12.134 -0.6162  0.9973 -0.6664
11076TIP3   OH254718   4.653   5.654  13.367 -0.4650 -0.4358 -0.1645
11076TIP3    H154719   4.624   5.742  13.390 -0.2214 -0.8779  2.0298
11076TIP3    H254720   4.692   5.664  13.280 -2.5948  1.1321 -1.0443
11077TIP3   OH254721   0.496   4.563   4.771  1.2312 -0.1021 -0.5060
11077TIP3    H154722   0.417   4.598   4.811  1.2316 -1.0049  0.3238
11077TIP3    H254723   0.564   4.627   4.791  1.3584 -0.7979  1.4759
11078TIP3   OH254724   3.881   3.288  15.732  0.2203  0.1807 -0.2983
11078TIP3    H154725   3.947   3.236  15.777 -1.0887 -0.0644  1.4272
11078TIP3    H254726   3.876   3.249  15.644  0.5813 -1.4017  0.3485
11079TIP3   OH254727   0.153   0.661   6.365  0.1160 -0.5777 -0.1541
11079TIP3    H154728   0.212   0.681   6.292 -0.2880  0.2960 -0.2529
11079TIP3    H254729   0.210   0.625   6.432  0.6301 -0.5486 -0.5666
11080TIP3   OH254730   5.419   4.061  14.722 -0.4721 -0.3830 -0.5342
11080TIP3    H154731   5.380   3.974  14.727  1.0274 -1.0686 -0.3455
11080TIP3    H254732   5.362   4.110  14.663 -0.7798 -1.7913 -1.4458
11081TIP3   OH254733   2.181   6.499  11.749 -0.4409  0.2023  0.3313
11081TIP3    H154734   2.175   6.406  11.727  2.2685  0.0579 -0.1708
11081TIP3    H254735   2.121   6.542  11.688  1.1365 -0.9179 -2.1500
11082TIP3   OH254736   6.782   5.440  14.157  0.1224 -0.6073  0.2402
11082TIP3    H154737   6.807   5.509  14.218  0.2398  0.7479 -1.2526
11082TIP3    H254738   6.838   5.366  14.179 -0.5203 -0.5175  2.3712
11083TIP3   OH254739   2.554   5.903  15.979  0.3079  0.1142 -0.0336
11083TIP3    H154740   2.587   5.840  16.043  2.6046 -0.7402 -1.9091
11083TIP3    H254741   2.577   5.989  16.016 -0.8115 -0.1978  1.4760
11084TIP3   OH254742   2.404   0.427  15.897 -0.0890  0.1079 -0.0484
11084TIP3    H154743   2.403   0.487  15.822  0.5430  0.7901  0.4692
11084TIP3    H254744   2.317   0.389  15.898 -0.1679  0.2183 -1.0256
11085TIP3   OH254745   3.767   1.025  11.466  0.0410  0.1429  0.0351
11085TIP3    H154746   3.722   0.984  11.539  2.4457 -1.2000  0.8350
11085TIP3    H254747   3.808   1.104  11.503 -0.7895  0.8369 -0.4738
11086TIP3   OH254748   6.032   3.869  16.725  1.1217 -0.2914 -0.3070
11086TIP3    H154749   6.029   3.775  16.745  0.8111  0.0333  1.3886
11086TIP3    H254750   6.092   3.905  16.790  0.3268  0.8321 -0.1601
11087TIP3   OH254751   5.057   0.331  15.250  0.3071 -0.1753  0.0662
11087TIP3    H154752   5.119   0.395  15.284  0.7356 -0.9685  0.8289
11087TIP3    H254753   5.084   0.315  15.160  0.2238  0.6700 -0.1090
11088TIP3   OH254754   4.051   1.307  10.753 -0.7070  0.0031 -0.2384
11088TIP3    H154755   3.985   1.355  10.703 -1.0016 -0.8937 -0.7418
11088TIP3    H254756   4.046   1.218  10.719  1.2943  0.0635 -0.8272
11089TIP3   OH254757   1.932   3.111   1.028 -0.0621 -0.5752 -0.3035
11089TIP3    H154758   1.997   3.084   0.963  0.9342  2.8929 -0.9355
11089TIP3    H254759   1.930   3.207   1.021 -3.5449 -0.3939  1.3779
11090TIP3   OH254760   5.357   0.917  12.844  0.0897 -0.1251 -0.1535
11090TIP3    H154761   5.268   0.890  12.820  1.5559 -3.4572 -2.6208
11090TIP3    H254762   5.373   0.996  12.793 -1.3482  0.4379  0.2081
11091TIP3   OH254763   5.666   4.116   0.068  0.6016  0.9014 -0.5496
11091TIP3    H154764   5.699   4.105  -0.021  0.3350  1.9986 -0.7943
11091TIP3    H254765   5.714   4.050   0.119  0.9284  0.4196 -1.4491
11092TIP3   OH254766   6.651   6.008   1.326 -0.3196 -0.0377  0.2677
11092TIP3    H154767   6.607   6.092   1.311  0.8277  0.7568  1.1686
11092TIP3    H254768   6.744   6.026   1.309 -0.1395 -1.3007 -0.1693
11093TIP3   OH254769   3.490   6.123  13.080  0.2385  0.4017 -0.4245
11093TIP3    H154770   3.478   6.028  13.081  2.3741  0.0896  0.1000
11093TIP3    H254771   3.523   6.142  12.992  1.7086  0.3569  0.0985
11094TIP3   OH254772   4.700   5.087   3.716  0.0458 -0.6308  0.1178
11094TIP3    H154773   4.742   5.063   3.634 -2.6535  1.6647 -2.1921
11094TIP3    H254774   4.627   5.026   3.725 -0.6048  0.0909 -0.1008
11095TIP3   OH254775   6.244   2.485   2.206 -0.0504  0.0657 -0.3112
11095TIP3    H154776   6.214   2.457   2.293  2.2088 -0.6340  0.3200
11095TIP3    H254777   6.287   2.569   2.221  0.2089  0.0224 -0.7816
11096TIP3   OH254778   0.950   2.345  10.757  0.4219  0.1175  0.7190
11096TIP3    H154779   0.951   2.360  10.663 -0.0639  0.0492  0.6976
11096TIP3    H254780   0.860   2.317  10.776  1.3198 -3.1868  0.6720
11097TIP3   OH254781   5.150   1.279   3.438  0.1066 -0.0106  0.4770
11097TIP3    H154782   5.076   1.340   3.448  0.3448  0.6666 -1.5927
11097TIP3    H254783   5.227   1.336   3.430  0.1515 -0.3523 -3.2318
11098TIP3   OH254784   4.176   1.197   5.979 -0.3236 -0.6145 -0.3424
11098TIP3    H154785   4.167   1.102   5.981 -0.8584 -0.5507  1.1713
11098TIP3    H254786   4.253   1.215   6.034 -0.4312 -0.1515 -0.3371
11099TIP3   OH254787   3.073   0.489   0.848 -0.5449 -0.0544  1.0431
11099TIP3    H154788   3.108   0.462   0.933 -0.7943  0.3820  1.2891
11099TIP3    H254789   3.150   0.510   0.796 -0.4112  0.1924  1.3382
11100TIP3   OH254790   5.398   1.200  16.659 -0.0320  0.0589  0.6031
11100TIP3    H154791   5.407   1.220  16.565 -0.3559  0.5005  0.6656
11100TIP3    H254792   5.316   1.241  16.684  0.1704  0.1383  1.1369
11101TIP3   OH254793   5.301   0.315   2.831  0.0674  0.1759 -0.3005
11101TIP3    H154794   5.364   0.340   2.899  1.2587  0.1497 -1.3441
11101TIP3    H254795   5.216   0.340   2.867  0.5404 -0.7539  1.6028
11102TIP3   OH254796   0.623   5.019   4.227 -0.2887 -0.5600 -0.4118
11102TIP3    H154797   0.547   5.004   4.283 -1.3628  0.2707 -1.6000
11102TIP3    H254798   0.670   5.091   4.268  0.1142 -1.3508  0.5561
11103TIP3   OH254799   5.903   3.567   0.989  0.5244  0.2917 -0.1570
11103TIP3    H154800   5.823   3.619   0.994  0.3651  0.0093  0.3833
11103TIP3    H254801   5.970   3.622   1.028  0.3816  0.1480  0.3020
11104TIP3   OH254802   2.197   3.753  10.693 -0.2253  0.4585  0.2581
11104TIP3    H154803   2.124   3.815  10.689  0.2264  1.0171  0.6091
11104TIP3    H254804   2.176   3.689  10.625 -0.1495  1.6063 -0.9022
11105TIP3   OH254805   6.636   2.362  14.771  0.0227  0.2498  0.2081
11105TIP3    H154806   6.604   2.350  14.682  0.7034 -0.7263  0.0829
11105TIP3    H254807   6.600   2.447  14.798 -0.9265  0.1440 -0.6607
11106TIP3   OH254808   1.558   3.927   0.388  0.4438  0.3186 -0.3144
11106TIP3    H154809   1.480   3.918   0.444 -1.7174  0.7827 -3.0019
11106TIP3    H254810   1.631   3.907   0.446 -1.7128 -1.1933  2.1522
11107TIP3   OH254811   6.345   1.314  16.951 -0.4137  0.1585  0.1308
11107TIP3    H154812   6.420   1.366  16.979 -2.3659  3.4426 -0.3347
11107TIP3    H254813   6.316   1.355  16.870 -1.8917 -1.9564 -0.5065
11108TIP3   OH254814   2.899   4.454  14.000 -0.4730 -0.1875 -0.0057
11108TIP3    H154815   2.993   4.464  14.016  0.2335 -2.4000 -2.1913
11108TIP3    H254816   2.874   4.380  14.055 -0.8592  0.0959  0.2050
11109TIP3   OH254817   1.804   3.679  12.106  0.3664 -0.5530 -0.1201
11109TIP3    H154818   1.780   3.628  12.183  0.8131 -0.6919 -0.0703
11109TIP3    H254819   1.891   3.714  12.126  1.3496 -2.1451 -1.3208
11110TIP3   OH254820   2.941   4.817  13.171 -0.1368  0.1793  0.4167
11110TIP3    H154821   2.862   4.816  13.226 -0.3918  0.3308  0.0571
11110TIP3    H254822   2.936   4.899  13.123  1.8490  1.7293  2.6692
11111TIP3   OH254823   0.136   6.154  11.747  0.2148  0.1895 -0.4273
11111TIP3    H154824   0.189   6.158  11.826  0.5287  0.5004 -0.6510
11111TIP3    H254825   0.190   6.195  11.679 -0.4451  0.8219 -0.5843
11112TIP3   OH254826   6.286   0.604   3.063 -0.5366  0.1082 -0.2929
11112TIP3    H154827   6.197   0.634   3.043 -0.9485 -0.3802  0.7544
11112TIP3    H254828   6.339   0.684   3.059 -0.9439  0.3402 -1.3171
11113TIP3   OH254829   3.465   6.608  15.757 -0.0044 -0.0843 -0.7993
11113TIP3    H154830   3.452   6.595  15.851 -0.0777  0.7008 -0.6898
11113TIP3    H254831   3.505   6.695  15.750  1.7780 -0.8923 -1.3777
11114TIP3   OH254832   4.223   3.334   2.977  0.1341 -0.5783 -0.3388
11114TIP3    H154833   4.232   3.378   2.893 -1.8147 -0.5399 -0.5801
11114TIP3    H254834   4.247   3.400   3.042 -0.1578 -0.0054 -0.8062
11115TIP3   OH254835   4.196   3.837   1.681  0.0410  1.1673 -0.0434
11115TIP3    H154836   4.240   3.874   1.604  0.0326  0.5878 -0.3300
11115TIP3    H254837   4.145   3.910   1.716  0.2661  1.5157 -0.4213
11116TIP3   OH254838   5.470   5.211   2.655 -0.4774  0.0044  0.3913
11116TIP3    H154839   5.512   5.185   2.737  0.2724 -1.4030 -0.3979
11116TIP3    H254840   5.469   5.306   2.658 -0.7975 -0.0234  2.1917
11117TIP3   OH254841   6.686   0.925  14.552 -0.1846  0.1497  0.1923
11117TIP3    H154842   6.761   0.865  14.545  0.5394  1.0698 -0.1228
11117TIP3    H254843   6.621   0.888  14.493  0.4424 -0.0703 -0.3780
11118TIP3   OH254844   4.913   5.748   2.434 -0.0414 -0.0150 -0.6008
11118TIP3    H154845   4.992   5.714   2.476 -1.3729 -0.5142  1.6551
11118TIP3    H254846   4.881   5.815   2.494 -2.1790 -0.9389 -0.6138
11119TIP3   OH254847   6.018   0.402   4.599 -0.3322 -0.1660 -0.3112
11119TIP3    H154848   6.006   0.409   4.505 -1.1514  0.6167 -0.1678
11119TIP3    H254849   6.095   0.456   4.618 -1.4039  1.4229 -0.2987
11120TIP3   OH254850   0.768   5.653  15.687  0.3961  0.0076 -0.2730
11120TIP3    H154851   0.832   5.589  15.719  1.0747  0.8746  0.1417
11120TIP3    H254852   0.774   5.646  15.591  2.1136  0.9947 -0.2890
11121TIP3   OH254853   6.801   0.105  12.245 -0.5945  0.9011  0.1104
11121TIP3    H154854   6.713   0.108  12.283 -0.9595  0.4204 -0.6634
11121TIP3    H254855   6.825   0.012  12.248  0.3689  1.1728  1.3656
11122TIP3   OH254856   2.153   4.989   5.931  0.1342 -0.1883  0.0505
11122TIP3    H154857   2.074   4.936   5.927 -0.1266  0.2308 -0.5306
11122TIP3    H254858   2.142   5.054   5.862  1.1863 -0.3904 -0.3201
11123TIP3   OH254859   3.790   5.167  13.273  0.1690  0.2960 -0.0546
11123TIP3    H154860   3.765   5.125  13.355  0.7118  0.9100  0.4388
11123TIP3    H254861   3.885   5.169  13.276  0.2214 -0.3270 -1.0417
11124TIP3   OH254862   3.946   2.637   5.475  0.0778 -0.1286  0.1462
11124TIP3    H154863   3.992   2.677   5.401  0.3854 -1.2680 -0.3076
11124TIP3    H254864   3.918   2.711   5.529 -2.3104  0.9371 -2.3152
11125TIP3   OH254865   1.272   6.178   1.481 -0.0563  0.1852  0.3678
11125TIP3    H154866   1.193   6.123   1.484 -1.7889  2.5295  3.1001
11125TIP3    H254867   1.279   6.205   1.390 -2.0932 -0.5579 -0.0659
11126TIP3   OH254868   0.167   3.748  16.606 -0.4552  0.3950 -0.3346
11126TIP3    H154869   0.158   3.691  16.530 -2.2521 -1.1389  0.9405
11126TIP3    H254870   0.242   3.713  16.654 -1.1236 -0.4817  0.0842
11127TIP3   OH254871   5.457   1.532   2.081 -0.6594 -0.0704 -0.4051
11127TIP3    H154872   5.512   1.510   2.005 -0.8669 -1.1565 -0.2568
11127TIP3    H254873   5.519   1.545   2.152 -0.5312 -0.3687 -0.4582
11128TIP3   OH254874   1.110   1.837   4.205  0.3544  0.3752 -0.3111
11128TIP3    H154875   1.182   1.773   4.204  0.2724  0.2851 -0.6503
11128TIP3    H254876   1.066   1.824   4.121 -0.5070 -0.0804  0.1995
11129TIP3   OH254877   4.386   6.637  12.243  0.2368 -1.0313 -0.0880
11129TIP3    H154878   4.292   6.631  12.230 -0.1826  2.0054  0.6001
11129TIP3    H254879   4.419   6.676  12.162  0.3373  0.8295  0.7695
11130TIP3   OH254880   0.948   5.182   3.350 -0.2564 -0.0465  0.1320
11130TIP3    H154881   1.016   5.144   3.295 -0.4066 -1.7743  1.0829
11130TIP3    H254882   0.968   5.151   3.438 -3.1321 -1.9344  0.2395
11131TIP3   OH254883   1.671   3.134   2.031 -0.1550  0.1865 -0.2022
11131TIP3    H154884   1.578   3.154   2.025 -0.5354 -0.8317  1.7285
11131TIP3    H254885   1.676   3.056   2.086  2.0079  1.9383  2.3286
11132TIP3   OH254886   0.292   2.732  11.308 -0.2162  0.3238  0.7099
11132TIP3    H154887   0.365   2.751  11.249 -0.3511  3.2151  1.3482
11132TIP3    H254888   0.266   2.817  11.343 -3.8801 -0.5644  0.5851
11133TIP3   OH254889   2.130   4.526   4.945  0.2863 -0.0117  0.4140
11133TIP3    H154890   2.124   4.578   4.865  1.8411 -0.0492  0.2413
11133TIP3    H254891   2.166   4.586   5.010 -1.1441  0.0657  1.1468
11134TIP3   OH254892   1.513   0.979   0.779  0.3591 -0.1429  0.4272
11134TIP3    H154893   1.608   0.988   0.775  0.5523 -1.6972  0.9081
11134TIP3    H254894   1.480   1.053   0.728  1.7512  1.4432  1.7154
11135TIP3   OH254895   6.782   0.599  15.885  0.4517  0.0495  0.0691
11135TIP3    H154896   6.861   0.650  15.901  0.6058  0.3990 -1.6054
11135TIP3    H254897   6.777   0.539  15.959  1.0712  1.4766  1.3238
11136TIP3   OH254898   5.045   0.920   4.233 -0.1279  0.7186 -0.1774
11136TIP3    H154899   5.131   0.954   4.254  0.4117 -0.1477 -0.8805
11136TIP3    H254900   4.985   0.963   4.294  0.4307  3.1721 -1.2561
11137TIP3   OH254901   1.907   3.862  11.126 -0.1139  0.5397  0.6578
11137TIP3    H154902   1.988   3.833  11.168 -0.9562 -0.5761  1.5521
11137TIP3    H254903   1.878   3.787  11.075 -0.6407  0.8978  0.4271
11138TIP3   OH254904   1.053   0.313   1.965 -0.0038 -0.3688 -0.5400
11138TIP3    H154905   1.135   0.347   1.930 -0.5479  1.0781 -0.4456
11138TIP3    H254906   1.039   0.231   1.918  1.7079 -0.8688 -0.2476
11139TIP3   OH254907   0.574   6.429  14.631 -0.8979  0.1479  0.0251
11139TIP3    H154908   0.589   6.518  14.662  0.9861 -0.0572 -0.2021
11139TIP3    H254909   0.576   6.375  14.710  0.1900  0.0591 -0.0545
11140TIP3   OH254910   3.823   3.821  11.961  0.4960  0.0452 -0.6050
11140TIP3    H154911   3.804   3.727  11.956 -0.9898  0.3763 -1.9157
11140TIP3    H254912   3.880   3.838  11.886  0.1677  0.3162 -0.7954
11141TIP3   OH254913   4.521   1.205  12.483 -0.0022 -0.3124  0.7073
11141TIP3    H154914   4.484   1.128  12.439  1.0066  0.6531 -2.1070
11141TIP3    H254915   4.475   1.279  12.443  2.0477  0.7066  0.1086
11142TIP3   OH254916   4.297   5.244   5.905 -0.1895 -0.1820 -0.4258
11142TIP3    H154917   4.219   5.237   5.960  0.7745  0.4328  1.0829
11142TIP3    H254918   4.349   5.314   5.945  2.0390 -1.8539 -0.2292
11143TIP3   OH254919   1.309   1.205  16.699  0.2263 -0.1411  0.2204
11143TIP3    H154920   1.321   1.143  16.770  0.4236 -1.1147 -0.6442
11143TIP3    H254921   1.388   1.198  16.647  1.0636  2.1394  1.0486
11144TIP3   OH254922   6.741   3.131   3.031 -0.6296 -0.3436  0.4569
11144TIP3    H154923   6.827   3.091   3.047  0.6033  1.4506 -1.2037
11144TIP3    H254924   6.726   3.120   2.937 -2.0087 -0.2021  0.6369
11145TIP3   OH254925   3.355   5.649  10.968 -0.7317 -0.3864  0.0746
11145TIP3    H154926   3.278   5.651  10.911 -1.1359 -1.6831  0.5439
11145TIP3    H254927   3.407   5.576  10.935 -0.9873 -1.1837  1.3565
11146TIP3   OH254928   5.669   6.495  13.067 -0.0680  0.7534 -0.6186
11146TIP3    H154929   5.721   6.445  13.004  0.1226  0.9116 -0.5873
11146TIP3    H254930   5.587   6.513  13.020 -0.2403  0.1984 -0.5411
11147TIP3   OH254931   1.968   4.956   2.363  0.0755  0.2537 -0.1613
11147TIP3    H154932   2.050   4.966   2.410  1.0652 -1.6956 -1.3662
11147TIP3    H254933   1.914   4.899   2.418 -0.8436  2.1539  1.0014
11148TIP3   OH254934   4.158   5.338  16.523 -0.2752 -0.7826 -0.2058
11148TIP3    H154935   4.213   5.382  16.588  0.1169  0.5357 -1.3841
11148TIP3    H254936   4.086   5.400  16.507  0.4919 -0.3318 -2.1773
11149TIP3   OH254937   6.429   0.867  14.991 -0.3762 -0.0534 -0.3801
11149TIP3    H154938   6.439   0.899  14.901 -1.3855  1.0411 -0.1233
11149TIP3    H254939   6.518   0.867  15.027 -0.2470  1.8226 -0.6222
11150TIP3   OH254940   3.937   0.280   4.978  0.0241 -0.2718  0.1912
11150TIP3    H154941   4.001   0.331   4.929  0.2618 -0.7371  0.0077
11150TIP3    H254942   3.853   0.304   4.940 -0.0646  1.3521  1.3206
11151TIP3   OH254943   2.561   6.081  12.601  0.2039 -0.9222 -0.6178
11151TIP3    H154944   2.524   6.062  12.515  1.6735  0.5390 -1.6328
11151TIP3    H254945   2.656   6.086  12.586  0.4178  0.2532  0.8703
11152TIP3   OH254946   5.877   3.680   5.271 -0.6150 -0.5008 -0.3555
11152TIP3    H154947   5.872   3.630   5.352 -2.1746 -0.3569 -0.3405
11152TIP3    H254948   5.886   3.771   5.300 -0.4259 -0.5175 -0.3591
11153TIP3   OH254949   5.671   0.171   0.008 -0.5495 -0.0060 -0.4614
11153TIP3    H154950   5.634   0.117  -0.061 -0.4970 -0.2760 -0.2795
11153TIP3    H254951   5.744   0.120   0.043  0.4271  0.7974 -1.2528
11154TIP3   OH254952   1.740   1.917   0.702 -0.2948  0.0175  0.2636
11154TIP3    H154953   1.833   1.922   0.723  0.2666 -1.1818 -1.7150
11154TIP3    H254954   1.698   1.970   0.770  1.8514  1.0341  0.9023
11155TIP3   OH254955   2.485   1.869  12.707 -0.0596 -0.3562 -0.2537
11155TIP3    H154956   2.528   1.885  12.623 -2.1037  1.1559 -1.1176
11155TIP3    H254957   2.480   1.774  12.714  1.7292 -0.5341 -0.9650
11156TIP3   OH254958   5.613   5.550   9.612  0.5261  0.4206  0.5986
11156TIP3    H154959   5.544   5.509   9.665  0.7188 -0.9096 -0.1407
11156TIP3    H254960   5.642   5.481   9.553 -0.3729  2.0929 -1.9746
11157TIP3   OH254961   1.551   2.979   2.790  0.0880 -0.5510  0.3495
11157TIP3    H154962   1.627   2.981   2.847 -0.2261 -2.3789  0.8939
11157TIP3    H254963   1.541   2.887   2.766  0.6187  0.1852 -3.2557
11158TIP3   OH254964   0.319   1.174  11.915  0.0622  0.0157 -0.0303
11158TIP3    H154965   0.341   1.169  11.821  1.8984  0.8978  0.2989
11158TIP3    H254966   0.339   1.264  11.939 -1.3499  0.0713  1.0315
11159TIP3   OH254967   0.887   4.661  15.897 -0.1414  0.6278 -0.3386
11159TIP3    H154968   0.946   4.701  15.834  0.4068 -1.2435 -1.0994
11159TIP3    H254969   0.838   4.596  15.847  0.5934 -1.2009  1.1537
11160TIP3   OH254970   6.060   2.265  14.209  0.6212 -0.1480  0.5237
11160TIP3    H154971   6.136   2.292  14.157 -1.6952  1.1898 -2.4552
11160TIP3    H254972   6.038   2.341  14.261  0.0693  0.2579 -0.2799
11161TIP3   OH254973   0.156   5.364  17.140 -0.0944 -0.0229 -0.7782
11161TIP3    H154974   0.064   5.343  17.125 -0.2695 -0.0534  0.2609
11161TIP3    H254975   0.196   5.282  17.169 -0.5521  0.7019  2.2600
11162TIP3   OH254976   2.853   6.227  16.981 -0.5118 -0.1558  0.1084
11162TIP3    H154977   2.784   6.294  16.983 -0.2404  0.1150  2.1882
11162TIP3    H254978   2.818   6.155  17.034 -0.6360 -1.5555 -1.7806
11163TIP3   OH254979   4.897   6.124  10.938 -1.4274  0.3211 -0.4932
11163TIP3    H154980   4.806   6.102  10.961 -1.8752  1.6463 -0.9083
11163TIP3    H254981   4.891   6.165  10.852 -0.6203  1.7309  0.0868
11164TIP3   OH254982   2.260   0.287  14.238  0.3996  0.2214  0.1336
11164TIP3    H154983   2.265   0.196  14.267  1.0498 -0.0255 -0.7052
11164TIP3    H254984   2.240   0.337  14.317 -0.7415 -0.7241  0.4648
11165TIP3   OH254985   5.404   4.521   1.682 -0.5579  0.4703  0.1928
11165TIP3    H154986   5.481   4.538   1.627  0.1760  0.1438  1.0959
11165TIP3    H254987   5.367   4.607   1.698  0.6231  0.8374  1.1420
11166TIP3   OH254988   3.981   3.362   4.137  0.0635 -0.1743  0.1249
11166TIP3    H154989   4.020   3.282   4.101  0.9460 -0.0033  0.6545
11166TIP3    H254990   3.944   3.335   4.221  0.9731  0.0963  0.6279
11167TIP3   OH254991   2.587   0.294  10.689  0.2973  0.2073 -0.2535
11167TIP3    H154992   2.550   0.253  10.611 -0.6885 -1.7448  1.1381
11167TIP3    H254993   2.673   0.252  10.699  0.2868  0.2145 -0.1306
11168TIP3   OH254994   1.813   5.660  12.074  0.1794 -0.1510  0.5713
11168TIP3    H154995   1.738   5.624  12.028  0.1222  1.5617 -0.7768
11168TIP3    H254996   1.802   5.631  12.165 -1.4583 -0.9148  0.1608
11169TIP3   OH254997   5.397   3.720  11.844 -0.4029 -0.2818 -0.6476
11169TIP3    H154998   5.457   3.671  11.900 -1.3128 -0.6364  0.0453
11169TIP3    H254999   5.435   3.808  11.839 -0.6738 -0.0364  1.1273
11170TIP3   OH255000   6.767   4.181  15.816 -0.3837 -0.7648 -0.0171
11170TIP3    H155001   6.823   4.180  15.738 -3.0524  0.8290 -2.1771
11170TIP3    H255002   6.790   4.262  15.861 -0.3890 -0.4863 -0.4993
11171TIP3   OH255003   2.573   5.620   5.907 -0.5443  0.2709  0.3984
11171TIP3    H155004   2.668   5.631   5.910 -0.2914 -1.5657  0.4320
11171TIP3    H255005   2.544   5.674   5.834  0.4389  1.2887  0.7336
11172TIP3   OH255006   6.568   5.459  15.893  0.6307 -0.4346  0.3825
11172TIP3    H155007   6.517   5.537  15.872  0.4818 -0.0088  2.1228
11172TIP3    H255008   6.506   5.386  15.881  0.0877 -0.0718  0.9025
11173TIP3   OH255009   3.394   4.742   2.930 -0.4155 -0.0215 -0.3240
11173TIP3    H155010   3.466   4.763   2.871  0.7159  0.7319  1.2491
11173TIP3    H255011   3.339   4.682   2.881  1.1985 -0.4900 -1.6393
11174TIP3   OH255012   4.881   4.884   2.461 -0.3710  0.4777  0.8073
11174TIP3    H155013   4.966   4.848   2.488 -0.3360  0.4409  0.6489
11174TIP3    H255014   4.883   4.975   2.493 -0.6298  0.2215  1.5701
11175TIP3   OH255015   1.747   4.196  11.383  0.5197  0.0350  0.5437
11175TIP3    H155016   1.838   4.203  11.356  0.3757  0.3767  0.1308
11175TIP3    H255017   1.706   4.139  11.318 -0.2202  2.2148 -1.0491
11176TIP3   OH255018   0.662   4.314  11.263 -0.0310  0.6989 -0.0872
11176TIP3    H155019   0.671   4.281  11.173 -0.6719  0.8434 -0.2165
11176TIP3    H255020   0.660   4.409  11.252  1.2437  0.7747  0.2229
11177TIP3   OH255021   0.012   1.840   3.706  0.6455  0.1711 -0.1489
11177TIP3    H155022   0.027   1.761   3.654 -2.2629  0.1559 -1.1117
11177TIP3    H255023   0.007   1.809   3.797 -0.4867 -0.7798 -0.5180
11178TIP3   OH255024   5.563   1.390  16.990 -0.3462 -0.1582 -0.2909
11178TIP3    H155025   5.491   1.409  16.929  0.7716 -0.0616 -1.6134
11178TIP3    H255026   5.596   1.305  16.963  0.5313  0.1437 -0.2056
11179TIP3   OH255027   5.424   0.266   0.358  0.2217  0.1968 -0.4671
11179TIP3    H155028   5.368   0.211   0.413  0.3766  0.7461  0.2412
11179TIP3    H255029   5.507   0.218   0.354 -0.6544 -1.3077 -2.6219
11180TIP3   OH255030   2.553   0.549   4.947 -0.2921  0.1407 -0.2243
11180TIP3    H155031   2.557   0.502   5.030 -0.5370  0.3432 -0.0948
11180TIP3    H255032   2.459   0.563   4.933 -0.1965  1.3650  0.1823
11181TIP3   OH255033   1.141   1.928   1.201 -0.4743 -0.2400 -0.0050
11181TIP3    H155034   1.159   1.886   1.117  0.6262 -1.8199  0.9486
11181TIP3    H255035   1.060   1.887   1.231 -0.9498  0.4366 -0.3607
11182TIP3   OH255036   5.778   2.016  13.200  0.1122 -0.2320 -0.0945
11182TIP3    H155037   5.771   1.921  13.195 -0.6319 -0.3040  1.7083
11182TIP3    H255038   5.688   2.047  13.210  0.3414  0.6723 -0.6706
11183TIP3   OH255039   2.039   6.700   4.710 -0.0120 -0.0686  0.2683
11183TIP3    H155040   2.109   6.745   4.663 -2.4411  3.2654 -0.5371
11183TIP3    H255041   2.061   6.710   4.802  1.3361 -0.5251  0.0171
11184TIP3   OH255042   1.075   2.955  10.455 -0.0752 -0.0565 -0.5873
11184TIP3    H155043   1.147   2.983  10.397  0.9299  0.5384  0.8944
11184TIP3    H255044   1.069   2.861  10.442 -0.4933  0.1743 -2.3216
11185TIP3   OH255045   3.349   2.187   0.540  0.2901 -0.5357  0.0580
11185TIP3    H155046   3.253   2.193   0.548  0.3552 -0.5048  0.9758
11185TIP3    H255047   3.372   2.107   0.588  0.7952 -0.1120  0.5324
11186TIP3   OH255048   0.039   0.172   4.983 -0.4542  0.1286  0.3382
11186TIP3    H155049   0.028   0.234   5.055  0.5073 -0.4114  0.9687
11186TIP3    H255050   0.132   0.149   4.984 -0.3425  0.3606 -1.3001
11187TIP3   OH255051   0.547   4.544  16.792  0.1354  0.1367  0.0756
11187TIP3    H155052   0.589   4.459  16.807 -1.1400 -0.1266  2.5632
11187TIP3    H255053   0.485   4.529  16.721 -1.9366 -1.7977  2.1375
11188TIP3   OH255054   3.093   4.439  14.753 -0.4806 -0.0661 -0.2601
11188TIP3    H155055   3.097   4.353  14.711 -2.4422  0.1144 -0.9323
11188TIP3    H255056   3.092   4.420  14.847  0.1446 -0.7085 -0.3788
11189TIP3   OH255057   0.089   0.486  11.629  0.6999  1.1640 -0.1285
11189TIP3    H155058   0.106   0.467  11.721  0.2617  0.1558 -0.2432
11189TIP3    H255059   0.154   0.552  11.606  2.6170 -0.5175  0.2059
11190TIP3   OH255060   4.102   1.367   6.195 -0.0698  0.5556 -0.8836
11190TIP3    H155061   4.034   1.389   6.131 -1.6666  0.7449  0.7931
11190TIP3    H255062   4.108   1.444   6.251 -2.4069 -1.2950  2.2420
11191TIP3   OH255063   4.442   1.288   2.925 -0.5787  0.1818 -0.2641
11191TIP3    H155064   4.409   1.269   2.837  1.8742 -2.4406 -0.7597
11191TIP3    H255065   4.520   1.341   2.910 -0.3592  0.0359  0.3665
11192TIP3   OH255066   0.075   5.257   0.666 -0.8370 -0.4962 -0.4015
11192TIP3    H155067   0.128   5.321   0.619 -0.2207  0.9758  2.1325
11192TIP3    H255068   0.139   5.200   0.710 -1.3090  0.3910  1.5032
11193TIP3   OH255069   1.959   4.897   9.991  0.2212  0.2871 -0.4689
11193TIP3    H155070   1.876   4.855  10.012  2.2201 -3.0197  1.8683
11193TIP3    H255071   2.008   4.897  10.074  2.2836  2.9154 -1.5220
11194TIP3   OH255072   0.179   1.182   0.659 -0.0305  0.4584  0.1199
11194TIP3    H155073   0.123   1.182   0.737  0.3754 -0.3910  0.4160
11194TIP3    H255074   0.183   1.091   0.632  0.4635  0.6418 -0.4471
11195TIP3   OH255075   1.590   4.879   3.562 -0.4928  0.5708 -0.2516
11195TIP3    H155076   1.635   4.960   3.584 -1.5759  0.5900  2.1522
11195TIP3    H255077   1.498   4.904   3.552 -0.8669 -0.3750  0.6925
11196TIP3   OH255078   6.123   2.154   1.990 -0.2163 -0.2684  0.0405
11196TIP3    H155079   6.030   2.174   1.988  0.1144  1.3477 -1.0229
11196TIP3    H255080   6.140   2.108   1.908  0.1158  0.4757 -0.3186
11197TIP3   OH255081   3.556   3.132  10.166 -0.2486 -0.0085  0.1751
11197TIP3    H155082   3.629   3.193  10.163 -0.1066 -0.1634  0.5067
11197TIP3    H255083   3.482   3.181  10.129 -0.3801  0.7097  1.3549
11198TIP3   OH255084   4.384   4.944  16.386  0.0717  0.6550  0.0955
11198TIP3    H155085   4.472   4.979  16.393 -1.1191  3.6184  3.0212
11198TIP3    H255086   4.332   5.015  16.348 -1.3303 -0.5055 -0.2843
11199TIP3   OH255087   1.974   3.030   5.332  0.3029 -0.0243  0.2740
11199TIP3    H155088   1.930   3.114   5.331 -2.1379 -1.1936 -1.8517
11199TIP3    H255089   2.002   3.018   5.423 -0.5252  2.4071  0.9097
11200TIP3   OH255090   3.415   0.494   2.318  0.0754 -0.0986  0.1084
11200TIP3    H155091   3.436   0.408   2.283  0.5999 -1.0565  2.5784
11200TIP3    H255092   3.500   0.536   2.332 -0.1220  0.3125  0.0979
11201TIP3   OH255093   6.210   2.484   4.413  0.0705  0.5390 -0.0199
11201TIP3    H155094   6.203   2.433   4.494  0.0829  0.0630 -0.3151
11201TIP3    H255095   6.122   2.521   4.401 -0.3905 -0.6988 -0.6348
11202TIP3   OH255096   0.413   1.616  15.917 -0.8935 -0.5909 -0.4320
11202TIP3    H155097   0.444   1.525  15.920  1.0461  0.0272  2.0523
11202TIP3    H255098   0.472   1.660  15.855 -0.3568 -0.5947  0.0635
11203TIP3   OH255099   0.174   5.105   3.920 -0.5065 -0.4110  0.2360
11203TIP3    H155100   0.248   5.055   3.953 -0.9384 -2.1606 -1.2955
11203TIP3    H255101   0.098   5.073   3.969 -0.4190  0.7544  1.1825
11204TIP3   OH255102   4.360   5.721  16.007  0.6457  0.0350 -0.0436
11204TIP3    H155103   4.307   5.777  16.064  0.3333  0.4283 -0.7169
11204TIP3    H255104   4.327   5.738  15.919 -0.0858 -1.8881 -0.1890
11205TIP3   OH255105   5.952   0.500  12.643  0.5263  0.2371 -0.6444
11205TIP3    H155106   6.009   0.577  12.641  0.5976  0.1810 -0.7834
11205TIP3    H255107   5.929   0.485  12.552 -2.1274  2.0373 -0.3785
11206TIP3   OH255108   6.002   2.337  12.262  0.5156 -0.1730  0.3808
11206TIP3    H155109   5.923   2.387  12.242  0.1963 -0.4088  1.0373
11206TIP3    H255110   6.004   2.269  12.194  0.3729  0.0767  0.1246
11207TIP3   OH255111   3.682   6.467   6.030  0.1711  0.1220  0.0700
11207TIP3    H155112   3.632   6.401   6.079 -0.7201  0.4286 -0.4216
11207TIP3    H255113   3.761   6.420   6.001 -0.2209 -0.5923  0.1453
11208TIP3   OH255114   4.518   3.950   2.377 -0.8214  0.3267  0.7603
11208TIP3    H155115   4.452   4.002   2.422 -2.3304 -0.1013 -0.8487
11208TIP3    H255116   4.492   3.859   2.393  0.1034  0.1238  1.1391
11209TIP3   OH255117   5.640   2.130  15.404  0.0206 -0.2459 -0.3517
11209TIP3    H155118   5.622   2.205  15.347 -1.4913 -0.0322  0.3542
11209TIP3    H255119   5.610   2.054  15.354 -4.3152  0.1828  1.2058
11210TIP3   OH255120   2.690   6.250   2.386 -0.3386 -0.3020  0.6778
11210TIP3    H155121   2.735   6.281   2.307 -0.0157  0.1671  1.0457
11210TIP3    H255122   2.671   6.329   2.436 -1.2669 -0.5222  0.6966
11211TIP3   OH255123   1.899   2.648  13.189 -1.1023  0.0644  0.0626
11211TIP3    H155124   1.874   2.560  13.162 -0.4171  0.2464 -1.2785
11211TIP3    H255125   1.995   2.649  13.184 -1.0988  0.8771  0.0300
11212TIP3   OH255126   1.102   1.469   3.574 -0.0559 -0.0548  0.4173
11212TIP3    H155127   1.106   1.407   3.648 -1.1830 -1.6468 -0.7853
11212TIP3    H255128   1.021   1.447   3.529  0.4077  1.1416 -1.0788
11213TIP3   OH255129   1.977   5.603  16.622 -0.1901  0.0327 -0.7297
11213TIP3    H155130   1.918   5.545  16.574 -0.3732 -0.4400  0.0486
11213TIP3    H255131   1.921   5.650  16.683  0.3898 -1.5955  1.1674
11214TIP3   OH255132   3.755   0.464  15.734  0.3401  0.0099 -1.1865
11214TIP3    H155133   3.820   0.508  15.789 -0.2080 -0.9448  0.3081
11214TIP3    H255134   3.792   0.377  15.719  0.5967  0.3408 -2.5861
11215TIP3   OH255135   4.430   5.351   1.143 -0.0281  0.2132 -0.1958
11215TIP3    H155136   4.337   5.356   1.164 -0.0136  0.7858 -0.2533
11215TIP3    H255137   4.468   5.297   1.213 -0.1724  1.1386  0.6088
11216TIP3   OH255138   4.009   6.380   0.733  0.2080 -0.3617  0.0324
11216TIP3    H155139   4.094   6.405   0.771 -0.4610  1.0235  0.6963
11216TIP3    H255140   4.017   6.402   0.640  0.8164 -0.9140 -0.0514
11217TIP3   OH255141   6.363   4.560  11.352  0.5613 -0.1834 -0.6423
11217TIP3    H155142   6.440   4.615  11.366 -0.1636  0.7878 -0.3947
11217TIP3    H255143   6.397   4.471  11.355  1.6641  0.2274 -0.4552
11218TIP3   OH255144   5.014   1.964  11.706 -0.1394 -0.0402  0.7969
11218TIP3    H155145   4.949   2.034  11.699 -0.5080 -0.4834 -0.6423
11218TIP3    H255146   5.096   2.006  11.680 -0.4412 -0.2185 -0.5295
11219TIP3   OH255147   1.162   6.708   3.216 -0.2682 -0.1620 -0.7800
11219TIP3    H155148   1.252   6.686   3.194 -0.1477 -3.3796  2.0643
11219TIP3    H255149   1.111   6.675   3.142  0.7945  1.7751 -2.4652
11220TIP3   OH255150   4.518   6.005  12.401  0.3548 -0.3797  0.5447
11220TIP3    H155151   4.610   5.990  12.422  0.9071  1.7292 -0.0738
11220TIP3    H255152   4.493   6.079  12.457  0.0667  1.2867 -1.6602
11221TIP3   OH255153   0.177   5.067   2.580 -0.3737 -0.1176  0.2927
11221TIP3    H155154   0.190   5.152   2.622  1.2236  0.0216 -0.4142
11221TIP3    H255155   0.083   5.050   2.590 -0.3647  0.7322  2.2822
11222TIP3   OH255156   5.758   2.510  12.575 -0.3141  0.3160 -0.1816
11222TIP3    H155157   5.785   2.534  12.663  0.4835  1.4476 -0.7146
11222TIP3    H255158   5.790   2.421  12.563 -0.2393  0.2340  0.5901
11223TIP3   OH255159   5.354   2.481  16.520 -0.5069  0.0897 -0.1125
11223TIP3    H155160   5.415   2.473  16.447 -1.1428  0.4243 -0.7012
11223TIP3    H255161   5.367   2.570  16.552  0.9561 -0.5924  1.2911
11224TIP3   OH255162   3.421   1.745   0.983  0.3350  0.3506  0.0801
11224TIP3    H155163   3.337   1.771   1.020 -0.1912  1.0403 -1.5096
11224TIP3    H255164   3.398   1.684   0.913  1.1628  0.4552 -0.2939
11225TIP3   OH255165   1.024   4.226  12.156  0.0896  0.7399  0.1521
11225TIP3    H155166   1.049   4.314  12.128 -0.0455  0.9661  0.7227
11225TIP3    H255167   0.932   4.234  12.181  0.0200  0.3882  0.0164
11226TIP3   OH255168   6.473   5.426   1.964  0.4908 -0.3711 -0.0613
11226TIP3    H155169   6.560   5.467   1.963  0.1765  0.3120  0.2318
11226TIP3    H255170   6.416   5.492   2.003 -0.5225 -0.0781 -1.9363
11227TIP3   OH255171   4.437   0.137  16.098 -0.2037 -0.5293 -0.2798
11227TIP3    H155172   4.424   0.053  16.054 -1.6318  0.0537 -1.0723
11227TIP3    H255173   4.373   0.137  16.169 -0.8080  0.1984 -0.8025
11228TIP3   OH255174   6.329   4.276  15.499  0.7481 -0.2271 -0.2035
11228TIP3    H155175   6.324   4.180  15.504  0.2965 -0.1434  1.1344
11228TIP3    H255176   6.422   4.293  15.484  0.7987 -0.8769 -0.7158
11229TIP3   OH255177   1.126   2.994   5.862 -0.3748 -0.4759 -0.3401
11229TIP3    H155178   1.104   2.914   5.814 -1.2171 -0.6098  0.2341
11229TIP3    H255179   1.080   2.984   5.946  0.4967  0.0611  0.2182
11230TIP3   OH255180   5.238   1.242  12.502  0.2287 -0.1680  0.2184
11230TIP3    H155181   5.301   1.311  12.482  0.6905  0.0036  2.0239
11230TIP3    H255182   5.288   1.176  12.550 -0.6725 -0.6811  0.4892
11231TIP3   OH255183   6.191   2.866  10.847  0.4186  0.0218  0.5917
11231TIP3    H155184   6.234   2.906  10.771 -1.9881 -0.4689 -1.1684
11231TIP3    H255185   6.098   2.884  10.834 -0.1819 -0.9788  2.9264
11232TIP3   OH255186   5.154   4.745  11.649 -0.0569  0.3815  0.4718
11232TIP3    H155187   5.118   4.830  11.623 -0.1746  1.0453  2.6398
11232TIP3    H255188   5.087   4.682  11.623 -0.1357  0.9508 -0.8224
11233TIP3   OH255189   1.935   2.416   4.458 -0.2955  0.6107  0.0158
11233TIP3    H155190   1.869   2.374   4.513 -0.8573  0.4795 -0.7383
11233TIP3    H255191   1.933   2.508   4.484 -0.7243  0.5942  0.0427
11234TIP3   OH255192   5.491   4.362   1.890  0.3108 -0.3033 -0.0606
11234TIP3    H155193   5.411   4.333   1.933  0.4366  1.2649  1.3634
11234TIP3    H255194   5.461   4.410   1.812 -0.0886 -0.4374  0.0096
11235TIP3   OH255195   3.532   0.930   0.692 -0.1599 -0.1876 -0.7685
11235TIP3    H155196   3.528   0.888   0.606 -0.0478 -2.7136  0.3638
11235TIP3    H255197   3.480   0.873   0.749  2.1977 -0.3117  1.4517
11236TIP3   OH255198   3.557   3.615   0.395 -0.3352 -0.1773 -0.0980
11236TIP3    H155199   3.474   3.637   0.437 -0.3683 -0.2302 -0.1354
11236TIP3    H255200   3.589   3.540   0.444 -0.2617 -0.0961 -0.0213
11237TIP3   OH255201   2.094   6.748   2.344 -0.0715 -0.2638  0.0860
11237TIP3    H155202   2.181   6.737   2.306 -0.1586  1.0186 -0.5359
11237TIP3    H255203   2.035   6.751   2.269 -0.1508  3.2015  0.1094
11238TIP3   OH255204   3.633   5.783  16.081  0.5145  0.1795  0.6787
11238TIP3    H155205   3.605   5.874  16.088 -1.4401 -0.1284 -1.7929
11238TIP3    H255206   3.560   5.733  16.116  1.0695 -0.4810  0.9174
11239TIP3   OH255207   0.953   3.414   1.214 -0.0905  0.3891  0.0201
11239TIP3    H155208   1.045   3.387   1.220  0.1474  0.9377 -0.9746
11239TIP3    H255209   0.957   3.503   1.181 -1.0022  0.3022 -0.3350
11240TIP3   OH255210   3.390   0.529  16.806  0.2371 -0.3435 -0.2627
11240TIP3    H155211   3.350   0.442  16.806 -1.8069  0.5143  0.6038
11240TIP3    H255212   3.324   0.585  16.847  1.2280  1.7497 -1.3890
11241TIP3   OH255213   2.012   0.988  16.340 -0.1623  0.3881 -0.2738
11241TIP3    H155214   1.977   0.928  16.406 -1.5234  1.4612  0.0276
11241TIP3    H255215   2.020   0.935  16.261  1.4710 -0.9232  0.6790
11242TIP3   OH255216   2.152   3.917  16.280 -0.1939  0.2008 -0.1953
11242TIP3    H155217   2.223   3.928  16.217  1.3754 -3.5338  0.6463
11242TIP3    H255218   2.194   3.928  16.365 -0.5031 -2.0959  0.3190
11243TIP3   OH255219   4.407   1.627  14.672  0.1843 -0.1252  0.8225
11243TIP3    H155220   4.352   1.705  14.660 -0.9846 -0.9250  0.8888
11243TIP3    H255221   4.445   1.610  14.586  1.4861  1.2482  1.0786
11244TIP3   OH255222   5.567   0.986   3.172  0.0709  0.3997  0.2622
11244TIP3    H155223   5.580   1.072   3.212 -0.2028  0.3248  0.5130
11244TIP3    H255224   5.475   0.966   3.186 -0.5966  1.3089 -2.2623
11245TIP3   OH255225   2.464   4.383  13.763  0.1777  0.1162  0.6725
11245TIP3    H155226   2.506   4.358  13.680  1.9885  2.0167  0.9659
11245TIP3    H255227   2.535   4.415  13.818 -0.9088 -1.5105  3.2042
11246TIP3   OH255228   4.187   1.748   1.600  0.4090 -0.2582  0.0990
11246TIP3    H155229   4.262   1.801   1.626 -0.1606  0.7233 -0.1883
11246TIP3    H255230   4.164   1.781   1.513 -0.7192 -0.1148  0.4403
11247TIP3   OH255231   1.124   1.542  12.144  0.2965 -0.2372  0.8069
11247TIP3    H155232   1.073   1.541  12.225 -2.8342  0.3818 -1.0081
11247TIP3    H255233   1.102   1.625  12.102  0.9774 -0.9799 -1.1558
11248TIP3   OH255234   3.785   0.685   4.549  0.1008 -0.5646 -0.4163
11248TIP3    H155235   3.750   0.598   4.571  1.1934 -0.4278  2.2244
11248TIP3    H255236   3.880   0.674   4.555  0.3700  0.3629 -2.1872
11249TIP3   OH255237   1.236   0.088  15.137 -0.1519  0.8258  0.3605
11249TIP3    H155238   1.270   0.159  15.192 -0.0521  0.9317  0.1614
11249TIP3    H255239   1.313   0.035  15.118 -0.1685  0.8456  0.2388
11250TIP3   OH255240   0.360   0.628  17.131  0.5682 -0.2016 -0.0256
11250TIP3    H155241   0.311   0.598  17.208 -2.0550 -0.9834 -1.8549
11250TIP3    H255242   0.308   0.701  17.097  2.6998  1.4034 -0.0544
11251TIP3   OH255243   1.414   0.388   1.723 -0.2062  0.0462  0.0539
11251TIP3    H155244   1.423   0.437   1.642 -0.4392  1.6841  0.9780
11251TIP3    H255245   1.409   0.296   1.696  0.8841  0.4632 -1.6845
11252TIP3   OH255246   2.974   4.272   5.168 -0.1396 -0.2419  0.3903
11252TIP3    H155247   2.986   4.354   5.122  0.7675 -0.1163  0.8155
11252TIP3    H255248   2.880   4.266   5.185 -0.2121  0.6779  0.3180
11253TIP3   OH255249   6.364   6.578  14.502  0.4432 -0.1318  0.1228
11253TIP3    H155250   6.315   6.592  14.583  1.1552  0.0309  0.5309
11253TIP3    H255251   6.314   6.625  14.435  0.5316  0.7983  0.7037
11254TIP3   OH255252   5.064   1.765   2.712  0.1475  0.1049  0.1623
11254TIP3    H155253   5.061   1.853   2.747  2.3757  0.1887  0.2688
11254TIP3    H255254   5.157   1.744   2.707 -0.1750 -1.0733 -2.7863
11255TIP3   OH255255   1.615   4.211  11.837  0.2251  0.2306 -0.3845
11255TIP3    H155256   1.532   4.175  11.804  0.3312 -0.3581 -0.0273
11255TIP3    H255257   1.597   4.231  11.929  0.9787 -1.5879  0.1992
11256TIP3   OH255258   2.823   5.318   1.847  0.0473  0.2878 -0.0165
11256TIP3    H155259   2.735   5.352   1.862 -0.4777 -1.1961  0.5340
11256TIP3    H255260   2.850   5.356   1.763 -2.6210 -1.9494 -2.0897
11257TIP3   OH255261   5.141   3.865  11.103  0.3698  0.1983  0.3474
11257TIP3    H155262   5.132   3.810  11.025  0.2460 -1.0769  1.2296
11257TIP3    H255263   5.060   3.852  11.151  0.5387  0.8076  0.8074
11258TIP3   OH255264   1.894   4.743   1.463 -0.6249  0.0464 -0.2209
11258TIP3    H155265   1.966   4.690   1.498 -0.5232  0.0456 -0.4315
11258TIP3    H255266   1.897   4.824   1.515 -1.9990 -0.8983  1.4532
11259TIP3   OH255267   3.427   4.836   4.125 -0.3419 -0.0549 -0.5386
11259TIP3    H155268   3.515   4.805   4.105 -0.3630 -0.4929  0.0166
11259TIP3    H255269   3.441   4.916   4.175 -0.2863  0.8189 -1.8821
11260TIP3   OH255270   0.215   5.594  14.476  0.3488  0.1250 -0.0896
11260TIP3    H155271   0.161   5.627  14.404  0.5382  2.8772  0.9036
11260TIP3    H255272   0.154   5.543  14.530 -0.7503  1.2926 -0.1779
11261TIP3   OH255273   3.284   4.218   1.654  0.4841 -0.4538 -0.4423
11261TIP3    H155274   3.238   4.146   1.611 -1.6014  0.1066  0.6848
11261TIP3    H255275   3.329   4.177   1.728 -1.6439 -0.5320  0.8900
11262TIP3   OH255276   1.609   5.328   5.607  0.3623  0.0380 -1.0397
11262TIP3    H155277   1.627   5.252   5.662 -0.8572  1.4782  1.5010
11262TIP3    H255278   1.691   5.341   5.558  0.8688 -2.3834 -0.9583
11263TIP3   OH255279   5.402   4.416  13.239 -0.3046  0.2403 -0.0367
11263TIP3    H155280   5.345   4.370  13.301 -1.4432  0.2606 -1.0277
11263TIP3    H255281   5.444   4.347  13.188 -1.5661  0.2441 -1.1321
11264TIP3   OH255282   1.855   3.292   1.410  0.0359  0.1504  0.3177
11264TIP3    H155283   1.896   3.237   1.477  0.2578 -1.0830 -0.7870
11264TIP3    H255284   1.774   3.247   1.388  0.4260  0.0134 -0.9133
11265TIP3   OH255285   1.348   3.240  15.103 -0.1384  0.7532 -0.5169
11265TIP3    H155286   1.346   3.317  15.047 -1.3526  0.4939 -0.8430
11265TIP3    H255287   1.282   3.257  15.170 -1.1742 -0.4404 -1.1934
11266TIP3   OH255288   4.902   6.785   2.528 -0.3018  0.1949  0.4964
11266TIP3    H155289   4.811   6.815   2.524 -1.1331 -2.1597 -0.9637
11266TIP3    H255290   4.952   6.851   2.480 -1.1921  1.5309  1.3299
11267TIP3   OH255291   2.874   3.304  12.910 -0.5029  0.3596  0.1157
11267TIP3    H155292   2.917   3.316  12.826 -1.3461  1.1827 -0.2193
11267TIP3    H255293   2.937   3.255  12.963  1.1283  2.0978 -0.1207
11268TIP3   OH255294   3.844   1.967   1.194  0.0688 -0.2503 -0.2369
11268TIP3    H155295   3.891   1.907   1.252 -1.8192 -1.1149  0.4950
11268TIP3    H255296   3.755   1.931   1.189 -1.0864  2.3146  0.0186
11269TIP3   OH255297   5.788   4.267  14.930  0.1979 -0.4891  0.6093
11269TIP3    H155298   5.768   4.313  15.011 -1.6057  1.0892 -0.6245
11269TIP3    H255299   5.867   4.309  14.897 -0.0010  0.0195  0.7615
11270TIP3   OH255300   2.131   4.676   3.564  0.0499  0.4432  0.2833
11270TIP3    H155301   2.192   4.676   3.638  1.5298  0.7939 -0.8854
11270TIP3    H255302   2.185   4.702   3.489 -1.6199  1.0126 -0.7561
11271TIP3   OH255303   3.670   4.679  14.957 -0.0783 -0.1749  0.5413
11271TIP3    H155304   3.702   4.723  15.036 -1.6481  0.5695  0.8045
11271TIP3    H255305   3.580   4.711  14.946 -0.8184 -2.2864 -0.0622
11272TIP3   OH255306   0.390   5.386   0.785  0.5658 -0.1182  0.4563
11272TIP3    H155307   0.336   5.361   0.859  0.9964  0.5585  1.0085
11272TIP3    H255308   0.415   5.477   0.802  1.9727 -0.4369  0.2863
11273TIP3   OH255309   1.020   3.602  14.951 -0.3553 -0.2448 -0.6622
11273TIP3    H155310   0.957   3.604  15.022 -0.9871  0.5357 -1.2325
11273TIP3    H255311   0.973   3.561  14.878 -0.6406  1.4288 -1.4708
11274TIP3   OH255312   0.558   2.679   1.971 -0.1618 -0.2825  0.3164
11274TIP3    H155313   0.556   2.606   2.032 -0.3660 -0.6331 -0.1020
11274TIP3    H255314   0.650   2.685   1.944 -0.6225 -2.6601 -2.3034
11275TIP3   OH255315   5.653   4.741  16.733 -0.6070 -0.8776 -0.3785
11275TIP3    H155316   5.563   4.759  16.761 -0.4849 -1.1802  0.2207
11275TIP3    H255317   5.671   4.808  16.668 -0.8548 -0.0773  0.3612
11276TIP3   OH255318   4.431   1.583  15.314 -0.3767  0.3452 -0.0919
11276TIP3    H155319   4.445   1.676  15.294 -1.1672  0.4481 -0.2162
11276TIP3    H255320   4.407   1.582  15.407 -0.7136  0.3002 -0.1808
11277TIP3   OH255321   0.822   5.023  15.783  0.0500 -0.2295 -0.4674
11277TIP3    H155322   0.782   5.108  15.802 -0.8002 -0.2361 -2.0623
11277TIP3    H255323   0.886   5.011  15.852  1.4115  2.5127 -1.1165
11278TIP3   OH255324   4.463   4.729  16.196 -0.2919  0.4818  0.3988
11278TIP3    H155325   4.414   4.771  16.266 -3.0001 -0.6648 -0.6338
11278TIP3    H255326   4.527   4.674  16.240  0.1741  2.1326  1.8414
11279TIP3   OH255327   3.036   1.778   4.920 -0.5353 -0.0893 -0.0418
11279TIP3    H155328   3.084   1.821   4.991 -0.1360  0.1941 -0.4783
11279TIP3    H255329   3.063   1.826   4.841 -0.8735 -0.4870 -0.3984
11280TIP3   OH255330   3.883   1.117  16.005  0.1640  0.0742 -0.0579
11280TIP3    H155331   3.963   1.084  16.045  0.9379  1.2031 -0.6104
11280TIP3    H255332   3.857   1.191  16.060 -0.2806 -0.0420 -0.1060
11281TIP3   OH255333   4.337   6.515  11.805  0.3952 -0.0759 -0.0832
11281TIP3    H155334   4.334   6.446  11.872 -1.1715 -2.5557 -2.4733
11281TIP3    H255335   4.300   6.592  11.847 -0.4041 -1.4676  1.9254
11282TIP3   OH255336   4.155   0.687   4.053 -0.0109 -0.4815  0.2970
11282TIP3    H155337   4.083   0.628   4.077  0.4561 -1.5404 -0.8192
11282TIP3    H255338   4.127   0.726   3.971  0.4198 -0.4135  0.1816
11283TIP3   OH255339   0.291   3.087  12.055  0.5307  0.3066 -0.3778
11283TIP3    H155340   0.211   3.070  12.004  0.6811  0.2276 -0.5885
11283TIP3    H255341   0.276   3.172  12.095 -0.3808 -0.4339  0.9718
11284TIP3   OH255342   3.348   1.154   4.231 -0.2985 -0.2437 -0.8335
11284TIP3    H155343   3.275   1.203   4.193  0.1605  0.2131 -1.1273
11284TIP3    H255344   3.353   1.186   4.321 -2.1774 -2.2033  0.0548
11285TIP3   OH255345   5.420   5.533  12.964  0.4910 -0.8243 -0.2623
11285TIP3    H155346   5.336   5.579  12.962  1.1243  0.3267 -1.8064
11285TIP3    H255347   5.397   5.443  12.988 -1.2521 -0.6531 -1.1276
11286TIP3   OH255348   1.683   0.661   4.412  0.1799  0.8534  0.3493
11286TIP3    H155349   1.652   0.585   4.363 -0.9063 -0.8289  3.4025
11286TIP3    H255350   1.625   0.732   4.384  0.3533  0.3032 -1.5692
11287TIP3   OH255351   6.090   3.821  13.689 -0.6654  0.1021  0.1871
11287TIP3    H155352   6.088   3.757  13.618  1.4824  1.3630 -1.1136
11287TIP3    H255353   6.181   3.849  13.694 -1.1873  1.7135  1.9680
11288TIP3   OH255354   4.930   2.091   2.521  0.1488 -0.0417 -0.0915
11288TIP3    H155355   4.899   2.015   2.572 -0.4024 -0.9310 -1.6695
11288TIP3    H255356   4.964   2.152   2.587  0.4434 -1.5769  1.2523
11289TIP3   OH255357   3.998   2.128   4.371  0.4390  0.4715  0.1312
11289TIP3    H155358   4.064   2.196   4.386  1.7321 -0.8390  0.6485
11289TIP3    H255359   3.920   2.159   4.415  1.1374  1.4342  0.7175
11290TIP3   OH255360   0.333   3.371   4.593  0.2330  0.4888  0.1688
11290TIP3    H155361   0.247   3.328   4.591  0.4600  0.0259  0.2167
11290TIP3    H255362   0.324   3.445   4.532 -0.2991  0.6427  0.4234
11291TIP3   OH255363   0.220   2.265  11.642 -0.2213  0.2463 -0.3812
11291TIP3    H155364   0.161   2.291  11.571  1.2265  1.0384 -1.3395
11291TIP3    H255365   0.180   2.302  11.721 -2.1235 -1.0668 -0.6593
11292TIP3   OH255366   0.404   4.334   0.674  0.6426  0.0701 -0.1304
11292TIP3    H155367   0.457   4.255   0.683  0.1383 -0.3832 -0.9935
11292TIP3    H255368   0.337   4.325   0.741  0.9274  0.0456  0.1541
11293TIP3   OH255369   2.400   6.216  13.638 -0.4918  0.3937 -0.2956
11293TIP3    H155370   2.472   6.217  13.575  0.6432  0.9654  0.9910
11293TIP3    H255371   2.397   6.304  13.674 -1.7863  0.3534 -0.2321
11294TIP3   OH255372   0.971   4.015  13.975  0.4047  0.3732  0.2752
11294TIP3    H155373   1.013   4.059  13.902 -0.6657  1.0314  0.0471
11294TIP3    H255374   1.010   3.927  13.976  1.1961  0.7096 -0.4092
11295TIP3   OH255375   1.013   1.444  11.433  0.2592 -0.1236 -0.0531
11295TIP3    H155376   1.002   1.420  11.341  0.4714  1.0690 -0.3929
11295TIP3    H255377   1.038   1.536  11.432 -1.2363  0.3544  1.2495
11296TIP3   OH255378   1.735   4.580  14.847  0.0100  0.1969 -0.0875
11296TIP3    H155379   1.719   4.495  14.887 -3.0700 -0.0555 -1.5562
11296TIP3    H255380   1.752   4.639  14.921 -1.6839 -0.9602  1.3018
11297TIP3   OH255381   6.143   1.687   5.691  0.3328  0.3386 -0.1089
11297TIP3    H155382   6.219   1.739   5.665 -0.1036  0.4534 -1.2218
11297TIP3    H255383   6.094   1.743   5.752 -0.2252  1.3265 -1.4312
11298TIP3   OH255384   0.747   4.339   4.772 -0.0024 -0.4196  0.1730
11298TIP3    H155385   0.675   4.401   4.757 -0.4614 -1.0983 -0.4937
11298TIP3    H255386   0.803   4.349   4.695  1.2174  0.8745  1.1762
11299TIP3   OH255387   2.093   6.057  14.417 -0.0745  0.0233  0.4084
11299TIP3    H155388   2.024   6.082  14.355  0.9997  2.5689  0.1451
11299TIP3    H255389   2.080   5.963  14.429 -2.7220  0.1495 -0.6831
11300TIP3   OH255390   5.840   5.031   5.455  0.0828  0.4990  0.3693
11300TIP3    H155391   5.850   5.011   5.549  1.1892 -1.7660 -0.1512
11300TIP3    H255392   5.746   5.026   5.440 -0.0448  0.0597  1.2217
11301TIP3   OH255393   3.340   1.292  16.021  0.5156 -0.1263 -0.6679
11301TIP3    H155394   3.337   1.334  15.935  0.0351  0.0582 -0.5612
11301TIP3    H255395   3.353   1.364  16.083  1.4001 -0.3145 -0.6282
11302TIP3   OH255396   6.096   5.136  11.197 -0.3565 -0.3647 -0.4580
11302TIP3    H155397   6.051   5.198  11.254 -0.5859  0.9954 -2.0505
11302TIP3    H255398   6.140   5.076  11.257 -2.3834 -0.3457  1.1332
11303TIP3   OH255399   0.114   3.386  16.705 -0.2505  0.4730 -0.0533
11303TIP3    H155400   0.193   3.337  16.724 -1.0399 -0.4973  0.8542
11303TIP3    H255401   0.137   3.478  16.722  1.4109  0.5555 -2.3520
11304TIP3   OH255402   5.551   0.031  12.704 -0.0756  0.8304  0.1433
11304TIP3    H155403   5.632   0.082  12.709 -0.0873  0.8933 -0.2554
11304TIP3    H255404   5.529   0.012  12.795  1.7356 -1.3086  0.2059
11305TIP3   OH255405   5.084   4.472  11.207  0.4296 -0.2388 -0.1554
11305TIP3    H155406   5.005   4.493  11.257 -0.3609 -0.0399 -1.4429
11305TIP3    H255407   5.153   4.464  11.273 -0.6122 -0.1666  0.9692
11306TIP3   OH255408   0.792   0.738   3.484 -0.2509  0.1235  0.2924
11306TIP3    H155409   0.741   0.818   3.468  0.4321  0.5497  0.2291
11306TIP3    H255410   0.730   0.667   3.469 -0.9573  0.6449  0.6636
11307TIP3   OH255411   1.389   1.814   6.412 -0.4572  0.0454 -0.2352
11307TIP3    H155412   1.432   1.729   6.406 -1.3275 -0.5038  1.0279
11307TIP3    H255413   1.443   1.864   6.473 -0.5191  0.0239 -0.1618
11308TIP3   OH255414   6.609   2.954  11.881 -0.2811  0.5488  0.3190
11308TIP3    H155415   6.645   2.951  11.793  0.0165  2.2909  0.3403
11308TIP3    H255416   6.600   2.862  11.907  0.7546  0.0247 -1.0620
11309TIP3   OH255417   1.327   0.370  12.804 -0.2123  0.0422  0.2947
11309TIP3    H155418   1.262   0.339  12.867 -1.4793 -0.2664 -1.0864
11309TIP3    H255419   1.286   0.353  12.719  0.1677  3.0761 -0.5800
11310TIP3   OH255420   6.380   3.914   6.172 -0.3547 -0.2188  0.7261
11310TIP3    H155421   6.346   3.974   6.238  0.8156  2.5114 -1.0261
11310TIP3    H255422   6.315   3.916   6.102 -2.0313 -3.7518  1.8845
11311TIP3   OH255423   5.306   0.265   1.292  0.0375  0.3648  0.0411
11311TIP3    H155424   5.248   0.327   1.247  0.6530  2.1073  1.5089
11311TIP3    H255425   5.348   0.216   1.222 -1.1776  0.9686 -1.1521
11312TIP3   OH255426   5.605   6.508   1.024  0.0523 -0.4673  0.3014
11312TIP3    H155427   5.572   6.442   0.964 -0.8501 -0.5237  0.8365
11312TIP3    H255428   5.557   6.588   1.002  1.4729  0.1612 -0.6559
11313TIP3   OH255429   2.145   4.532  11.501  0.0764  0.2004  0.1080
11313TIP3    H155430   2.107   4.549  11.588 -1.3001 -0.1811 -0.4029
11313TIP3    H255431   2.139   4.437  11.490  1.3651  0.1052  0.0770
11314TIP3   OH255432   2.275   2.838  14.995 -0.0896  0.2790  0.4233
11314TIP3    H155433   2.183   2.860  14.978  0.0742  0.4877 -0.2199
11314TIP3    H255434   2.276   2.806  15.085 -1.2555 -2.4205 -0.4473
11315TIP3   OH255435   1.840   1.335  12.317 -0.0647 -0.6349 -0.0660
11315TIP3    H155436   1.853   1.241  12.333  0.2168 -0.2323  2.5888
11315TIP3    H255437   1.762   1.356  12.368 -0.3591  0.5210 -0.9674
11316TIP3   OH255438   1.010   2.572  16.945 -0.4771 -0.9158 -0.6177
11316TIP3    H155439   1.065   2.645  16.973 -1.4381 -1.1061  2.1523
11316TIP3    H255440   0.921   2.607  16.947 -0.7172 -1.2400 -2.7912
11317TIP3   OH255441   6.562   2.578   2.952  0.0481 -0.0108  0.4428
11317TIP3    H155442   6.501   2.543   2.887 -1.0581  0.3449  1.2728
11317TIP3    H255443   6.558   2.673   2.940 -0.5431  0.0899  1.3516
11318TIP3   OH255444   6.179   1.151  10.965  0.2026  0.3359 -0.1464
11318TIP3    H155445   6.155   1.231  10.919 -1.1876  0.5981  0.9801
11318TIP3    H255446   6.204   1.090  10.895 -0.2868  1.2344 -1.1263
11319TIP3   OH255447   3.249   3.886   0.506 -0.0415 -0.1208  0.2332
11319TIP3    H155448   3.248   3.915   0.597  0.6906  0.9909 -0.0924
11319TIP3    H255449   3.331   3.920   0.471  0.9439 -2.7164 -0.1799
11320TIP3   OH255450   3.316   5.593  12.783 -0.2834 -0.1067  0.2082
11320TIP3    H155451   3.361   5.619  12.702 -0.2307 -0.5291  0.1002
11320TIP3    H255452   3.262   5.518  12.758 -0.5201 -0.0343  0.4942
11321TIP3   OH255453   5.228   1.979   4.937  0.1735 -0.3609  0.4561
11321TIP3    H155454   5.161   1.932   4.986  0.8547 -1.3807  0.4427
11321TIP3    H255455   5.267   2.039   5.000 -0.0259 -0.5305  0.7405
11322TIP3   OH255456   3.326   0.928  12.751  0.0676 -0.0722  0.1065
11322TIP3    H155457   3.254   0.894  12.803  0.1700 -1.4971 -0.6363
11322TIP3    H255458   3.324   1.023  12.766 -3.4645  0.3171 -1.7496
11323TIP3   OH255459   0.321   4.823  16.257 -0.4742 -0.1975  0.5946
11323TIP3    H155460   0.253   4.845  16.193 -1.7458 -2.4192  1.0739
11323TIP3    H255461   0.286   4.855  16.341 -0.2947 -0.1219  0.6397
11324TIP3   OH255462   5.741   1.479   4.998 -0.7431 -0.4791  0.1231
11324TIP3    H155463   5.732   1.530   4.918 -0.4080 -0.3766  0.1488
11324TIP3    H255464   5.704   1.534   5.067 -0.1051 -0.1339  0.2016
11325TIP3   OH255465   4.906   0.365   3.385  0.5472  0.3609  0.8405
11325TIP3    H155466   4.864   0.439   3.429 -0.6804 -0.1895  0.6319
11325TIP3    H255467   4.835   0.320   3.341  1.4847 -0.1779 -0.1657
11326TIP3   OH255468   3.567   2.549  14.738  0.2906 -0.0446 -0.2226
11326TIP3    H155469   3.491   2.494  14.720 -1.3076  1.9382  0.1535
11326TIP3    H255470   3.563   2.619  14.673  0.8605  0.9798  0.8074
11327TIP3   OH255471   4.329   6.649   4.591 -0.6751  0.4355 -0.2276
11327TIP3    H155472   4.239   6.681   4.594 -1.0632 -0.5825 -0.6667
11327TIP3    H255473   4.338   6.592   4.667 -0.4550  0.3887 -0.2868
11328TIP3   OH255474   5.614   5.980   2.513 -0.4833  0.1848  0.0380
11328TIP3    H155475   5.600   5.976   2.419 -0.2676  2.0451 -0.1056
11328TIP3    H255476   5.539   6.028   2.548 -0.6519 -0.6266  0.8627
11329TIP3   OH255477   0.920   0.769  11.921  0.4506  0.2968  0.4256
11329TIP3    H155478   0.832   0.800  11.945 -0.2077 -1.9747  1.2985
11329TIP3    H255479   0.950   0.722  11.999  1.9069 -0.0669 -0.3270
11330TIP3   OH255480   2.264   0.546   0.516  0.2286 -0.2460 -0.1123
11330TIP3    H155481   2.210   0.476   0.553 -0.7532  0.5269 -0.0155
11330TIP3    H255482   2.230   0.557   0.427  0.4518  0.0258 -0.1643
11331TIP3   OH255483   0.118   2.961   0.583  0.1828 -0.6523  0.0839
11331TIP3    H155484   0.127   2.943   0.677 -1.0892 -0.2508  0.3034
11331TIP3    H255485   0.167   2.891   0.540  2.6953  0.4061  1.0637
11332TIP3   OH255486   2.593   0.639   4.653 -0.0014 -0.5704  0.0201
11332TIP3    H155487   2.572   0.606   4.740 -0.2100  0.4145  0.3511
11332TIP3    H255488   2.605   0.733   4.664 -1.0460 -0.2651 -1.1923
11333TIP3   OH255489   6.472   1.727   0.298  0.5006 -0.0234  0.2862
11333TIP3    H155490   6.458   1.664   0.368 -1.2291  0.4059  0.3819
11333TIP3    H255491   6.401   1.791   0.308  0.3834  0.2253 -1.6422
11334TIP3   OH255492   5.647   3.212  15.504 -0.1315 -0.5580  0.1299
11334TIP3    H155493   5.661   3.176  15.417 -0.5130 -0.1182 -0.1172
11334TIP3    H255494   5.716   3.173  15.558 -0.1106 -1.1038 -0.2866
11335TIP3   OH255495   2.234   4.237   3.934  1.0522  0.2162 -0.2264
11335TIP3    H155496   2.271   4.189   3.860 -0.5160 -0.5658 -0.5372
11335TIP3    H255497   2.234   4.328   3.906 -1.6888 -0.2890 -2.2304
11336TIP3   OH255498   5.337   2.086  12.455  0.6421 -0.3730  0.1549
11336TIP3    H155499   5.314   2.092  12.362  1.1501  1.0335  0.0889
11336TIP3    H255500   5.268   2.033  12.494  0.6206 -1.2921 -1.0854
11337TIP3   OH255501   6.731   2.671   4.325  0.1577  0.3219 -0.0195
11337TIP3    H155502   6.742   2.765   4.309 -0.9132  0.5176  0.3575
11337TIP3    H255503   6.646   2.663   4.367  0.4672 -0.7740  0.4348
11338TIP3   OH255504   0.309   5.508  16.834  0.1689 -0.3940 -0.3652
11338TIP3    H155505   0.254   5.506  16.756  0.5520  1.7016 -0.7667
11338TIP3    H255506   0.349   5.596  16.833  0.1668 -0.2787  2.1774
11339TIP3   OH255507   4.994   0.595   1.854  0.4156 -0.3495  0.1195
11339TIP3    H155508   4.977   0.683   1.820  1.2752 -0.4814 -0.6951
11339TIP3    H255509   4.913   0.570   1.898 -0.7178 -0.1024 -1.7389
11340TIP3   OH255510   3.437   0.837  12.296 -0.2957 -0.5519  0.0830
11340TIP3    H155511   3.420   0.880  12.380 -0.4019 -0.3522 -0.0403
11340TIP3    H255512   3.446   0.909  12.233  0.7011 -0.6552  0.0832
11341TIP3   OH255513   4.704   3.834   3.204  0.3003  0.4088  0.1321
11341TIP3    H155514   4.796   3.834   3.176 -0.2405  1.0742 -1.7647
11341TIP3    H255515   4.680   3.741   3.208  0.9711  0.2412  0.3866
11342TIP3   OH255516   2.930   5.262  16.540 -0.1268  0.0460  0.5569
11342TIP3    H155517   2.993   5.324  16.577  1.1397 -0.5284 -0.5409
11342TIP3    H255518   2.982   5.183  16.524 -0.4262  0.4019 -2.8644
11343TIP3   OH255519   2.322   5.489  16.282  0.1842  0.1841 -0.3845
11343TIP3    H155520   2.299   5.425  16.349 -2.5553  0.8666 -0.5438
11343TIP3    H255521   2.285   5.454  16.201  0.2188  1.1090 -0.8228
11344TIP3   OH255522   1.747   2.223   1.316  0.2052 -0.2259 -0.1369
11344TIP3    H155523   1.705   2.138   1.302  2.0865 -1.4547  1.1662
11344TIP3    H255524   1.735   2.240   1.410 -0.8215  1.3830 -0.5199
11345TIP3   OH255525   6.775   4.834  13.609 -0.0705 -0.4495  0.1067
11345TIP3    H155526   6.862   4.808  13.639  0.5390  0.4701 -0.8207
11345TIP3    H255527   6.718   4.815  13.684  0.3844 -3.8175 -0.2586
11346TIP3   OH255528   0.421   1.112   5.059  0.1360  0.0371  0.4925
11346TIP3    H155529   0.413   1.132   4.966  0.4915 -2.0241 -0.0132
11346TIP3    H255530   0.514   1.119   5.077  0.0472  0.6128  0.7540
11347TIP3   OH255531   1.052   4.104   4.791  0.2549  0.1142 -0.2059
11347TIP3    H155532   0.995   4.045   4.841 -0.6230 -0.9427 -2.2961
11347TIP3    H255533   1.073   4.175   4.851 -1.8914 -0.3486  1.2013
11348TIP3   OH255534   4.662   4.510  16.650 -0.4394  0.2558 -0.1061
11348TIP3    H155535   4.677   4.480  16.739 -0.8652 -0.5837 -0.3125
11348TIP3    H255536   4.567   4.507  16.638 -0.5341  1.9285 -0.0632
11349TIP3   OH255537   2.257   1.677   5.428 -0.1889  0.3312 -0.3150
11349TIP3    H155538   2.313   1.729   5.370  0.2540 -0.8038 -0.9303
11349TIP3    H255539   2.316   1.646   5.496 -0.7583  1.8793  0.9463
11350TIP3   OH255540   4.894   4.085  16.801 -0.1224  0.2298 -0.5766
11350TIP3    H155541   4.805   4.102  16.832  1.1804  2.4769  2.4640
11350TIP3    H255542   4.900   3.990  16.797 -2.5113  0.0085 -0.4680
11351TIP3   OH255543   3.113   0.815   3.951  0.2601 -0.1059 -0.5316
11351TIP3    H155544   3.132   0.842   3.862  2.6839 -1.5159 -0.5099
11351TIP3    H255545   3.187   0.848   4.003 -0.9662  0.4743  0.9387
11352TIP3   OH255546   6.196   1.142   4.736 -0.2493  0.2668  0.0052
11352TIP3    H155547   6.252   1.199   4.789 -0.8241 -0.3296  1.2817
11352TIP3    H255548   6.231   1.054   4.749 -0.1963  0.1383 -0.8920
11353TIP3   OH255549   5.358   2.410  12.351 -0.3348 -0.2365 -0.1021
11353TIP3    H155550   5.309   2.459  12.284  0.7168  0.6317 -0.2785
11353TIP3    H255551   5.379   2.326  12.309 -0.8717 -0.2451 -0.3571
11354TIP3   OH255552   4.551   3.209   1.661 -0.2051 -0.1821  0.0588
11354TIP3    H155553   4.506   3.294   1.659  1.3419  0.7465  1.9100
11354TIP3    H255554   4.489   3.151   1.706 -0.6263  0.3932  0.2443
11355TIP3   OH255555   4.590   0.842  14.890 -0.2342 -0.2435 -0.3902
11355TIP3    H155556   4.664   0.798  14.848  0.2378 -0.8794  1.0509
11355TIP3    H255557   4.514   0.817  14.837  0.2374 -1.6386 -0.4476
11356TIP3   OH255558   0.212   2.354   0.136  0.1797  0.5777  0.5052
11356TIP3    H155559   0.254   2.285   0.188  0.1634  1.0912  1.2070
11356TIP3    H255560   0.128   2.317   0.112  1.6603 -1.2217 -2.5032
11357TIP3   OH255561   4.546   2.766  14.529  0.0145 -0.1614 -0.0642
11357TIP3    H155562   4.576   2.839  14.474 -1.7586  1.6466  1.2202
11357TIP3    H255563   4.456   2.751  14.501 -0.1464 -0.8081  0.7749
11358TIP3   OH255564   5.426   5.680  15.603 -0.1601 -0.0244 -0.5618
11358TIP3    H155565   5.468   5.704  15.685  0.6540  1.0391 -1.2635
11358TIP3    H255566   5.488   5.622  15.560 -0.7486 -0.8854 -0.2793
11359TIP3   OH255567   0.814   0.171   2.673  0.6083 -0.3005  0.3806
11359TIP3    H155568   0.880   0.212   2.729  1.3840 -1.2527  0.1821
11359TIP3    H255569   0.863   0.137   2.599  0.2455 -2.9316  1.2528
11360TIP3   OH255570   3.323   1.654  10.731 -0.3592  0.3784  0.1249
11360TIP3    H155571   3.332   1.594  10.656 -1.7139 -1.5329  1.3815
11360TIP3    H255572   3.232   1.684  10.726 -0.0483  1.3661  0.2380
11361TIP3   OH255573   4.949   0.405   1.675  0.6833  0.4588 -0.4063
11361TIP3    H155574   4.986   0.460   1.744  1.0868  0.3991 -0.5727
11361TIP3    H255575   5.022   0.388   1.616  0.0940  1.4674 -1.4818
11362TIP3   OH255576   1.611   4.590  17.129 -0.1997  0.0400 -0.1719
11362TIP3    H155577   1.624   4.525  17.198  2.6837 -0.5520 -1.1320
11362TIP3    H255578   1.604   4.537  17.049 -0.3212  0.8159 -0.6796
11363TIP3   OH255579   4.932   2.579   2.453  0.4250  0.1625  0.8210
11363TIP3    H155580   4.931   2.609   2.544  1.9024 -0.3024  1.0213
11363TIP3    H255581   5.002   2.514   2.451 -2.1217 -2.7343  0.2275
11364TIP3   OH255582   6.491   0.612  16.956  0.2076 -0.2332 -0.3411
11364TIP3    H155583   6.414   0.555  16.956 -0.0469  0.0261  1.8832
11364TIP3    H255584   6.477   0.671  16.881 -0.7517 -1.4544 -1.1626
11365TIP3   OH255585   5.049   5.487  12.659 -0.4407  0.5097  0.0417
11365TIP3    H155586   4.978   5.546  12.683 -1.5069  0.0464 -1.7581
11365TIP3    H255587   5.096   5.533  12.589 -0.7802 -0.3821 -0.8048
11366TIP3   OH255588   6.084   6.113  14.370 -0.0955  0.9096  0.0361
11366TIP3    H155589   6.028   6.068  14.307  0.7891 -0.5733  0.2590
11366TIP3    H255590   6.139   6.171  14.317 -0.4974  0.9198 -0.3718
11367TIP3   OH255591   6.631   3.894  12.266 -0.5306 -0.0651 -0.6452
11367TIP3    H155592   6.626   3.826  12.334 -0.4624  0.3669 -0.2008
11367TIP3    H255593   6.651   3.974  12.314 -0.3800  0.2296 -1.1920
11368TIP3   OH255594   3.006   2.419  14.780 -0.0818 -0.3322  0.5535
11368TIP3    H155595   3.041   2.330  14.787  0.3447 -0.2438 -0.3531
11368TIP3    H255596   2.919   2.407  14.741  0.2208 -0.3050 -0.1301
11369TIP3   OH255597   5.685   4.070   0.454  0.4308  0.0020  0.4598
11369TIP3    H155598   5.643   4.022   0.525  0.2236 -0.5647 -0.0303
11369TIP3    H255599   5.765   4.020   0.435  0.0731 -0.3380 -0.2389
11370TIP3   OH255600   3.299   0.996  10.236  0.3666 -0.1149  0.1345
11370TIP3    H155601   3.367   1.016  10.171 -0.5288  0.6930 -0.5902
11370TIP3    H255602   3.284   0.902  10.227  1.0443 -0.2150 -0.0279
11371TIP3   OH255603   4.268   0.217   0.234  0.0704 -0.2392  0.3201
11371TIP3    H155604   4.189   0.166   0.215 -0.3968 -0.2401  2.1257
11371TIP3    H255605   4.265   0.289   0.172 -1.6999  0.1132  0.7686
11372TIP3   OH255606   5.234   1.758   4.615  0.0198 -0.8075 -0.1012
11372TIP3    H155607   5.146   1.794   4.616  0.1630 -0.2406 -2.5514
11372TIP3    H255608   5.222   1.665   4.634 -1.1173 -0.7645 -0.5706
11373TIP3   OH255609   4.688   2.843   1.920 -0.4903  0.1035  0.4256
11373TIP3    H155610   4.774   2.880   1.903 -0.3825 -0.5820 -0.6327
11373TIP3    H255611   4.633   2.877   1.849 -0.4073 -1.6268 -0.5343
11374TIP3   OH255612   4.342   4.547   6.309  0.6191 -0.3086  0.0704
11374TIP3    H155613   4.248   4.530   6.312  0.5351  0.1767  2.7468
11374TIP3    H255614   4.357   4.588   6.223 -1.4778 -0.9223 -0.6316
11375TIP3   OH255615   1.240   6.408  15.741  0.2273 -0.0841  0.7922
11375TIP3    H155616   1.314   6.467  15.726 -0.5458  0.7966  0.3236
11375TIP3    H255617   1.165   6.467  15.751 -0.8534 -1.0242 -1.2493
11376TIP3   OH255618   6.307   5.790  13.579 -0.2100 -0.0745 -0.6335
11376TIP3    H155619   6.215   5.791  13.555 -0.3479  1.7681 -0.1509
11376TIP3    H255620   6.350   5.741  13.509 -1.3664  0.2268 -1.5728
11377TIP3   OH255621   4.975   0.787  13.363  0.3001 -0.0757 -0.0944
11377TIP3    H155622   4.982   0.844  13.440  0.5890 -0.2650  0.0218
11377TIP3    H255623   4.893   0.741  13.376  0.5633 -0.4380  0.3357
11378TIP3   OH255624   1.302   6.802   3.912 -0.3813  0.2154 -0.1327
11378TIP3    H155625   1.380   6.755   3.940  0.4430  2.3051  1.3158
11378TIP3    H255626   1.240   6.790   3.984 -0.3363  0.8879  0.0296
11379TIP3   OH255627   2.616   1.147  13.783 -0.3334 -0.0943 -0.1077
11379TIP3    H155628   2.662   1.178  13.705 -0.8462 -0.8779 -0.7269
11379TIP3    H255629   2.685   1.110  13.839  0.0323  0.4603 -0.1813
11380TIP3   OH255630   4.660   5.606  11.570  0.2098 -0.2121  0.0186
11380TIP3    H155631   4.726   5.601  11.501  0.9761 -0.4820  0.7535
11380TIP3    H255632   4.684   5.683  11.621  0.3790 -0.6916  0.6918
11381TIP3   OH255633   3.986   5.467   2.815  0.0022 -0.8906  0.0019
11381TIP3    H155634   4.026   5.544   2.774 -0.8357  0.0174  0.8290
11381TIP3    H255635   3.988   5.400   2.747  2.2486 -0.6772 -0.2182
11382TIP3   OH255636   5.454   0.793   3.850 -0.2970 -0.2860 -0.2151
11382TIP3    H155637   5.408   0.872   3.876 -0.6047 -0.5979  0.2049
11382TIP3    H255638   5.386   0.725   3.849  0.0744 -0.6675  0.0120
11383TIP3   OH255639   0.255   3.204   2.483  0.1117 -0.1366 -0.4087
11383TIP3    H155640   0.249   3.272   2.551  1.2251 -0.1812 -0.2409
11383TIP3    H255641   0.168   3.166   2.479  0.0765 -0.2953  1.2000
11384TIP3   OH255642   6.374   6.614   5.485  0.0642 -0.4273 -0.2104
11384TIP3    H155643   6.445   6.639   5.426 -1.0030  1.4793 -0.7926
11384TIP3    H255644   6.398   6.650   5.570  0.5124 -1.1519 -0.0242
11385TIP3   OH255645   3.046   4.583  16.236 -0.3954 -0.2565  0.0300
11385TIP3    H155646   2.987   4.619  16.302 -1.6087 -0.0712 -1.1007
11385TIP3    H255647   3.102   4.657  16.211 -0.8570  0.0455 -0.1254
11386TIP3   OH255648   0.892   2.608  16.285  0.5477 -0.1135  0.5687
11386TIP3    H155649   0.880   2.515  16.268  0.6681 -0.0082 -0.1222
11386TIP3    H255650   0.813   2.649  16.249  1.0269  0.1613 -0.2155
11387TIP3   OH255651   0.251   3.066   5.260  0.3094  0.4188  0.1326
11387TIP3    H155652   0.256   3.075   5.356  3.5095 -1.0958  0.2416
11387TIP3    H255653   0.298   3.143   5.227 -2.9558  2.3266 -0.4608
11388TIP3   OH255654   4.150   1.825  15.559 -0.3983  0.3085  0.1749
11388TIP3    H155655   4.095   1.773  15.502 -0.6673 -0.8102  1.4099
11388TIP3    H255656   4.105   1.909  15.567 -1.5716 -0.3539  0.6173
11389TIP3   OH255657   2.066   2.436  14.407  0.3865 -0.8089  0.1475
11389TIP3    H155658   2.047   2.507  14.345 -0.4370 -1.1722 -0.0271
11389TIP3    H255659   2.012   2.363  14.378  1.7020 -1.7428 -0.0593
11390TIP3   OH255660   4.080   0.318  12.481  0.2903 -0.4981 -0.6470
11390TIP3    H155661   4.162   0.350  12.516  1.1027 -0.4318 -2.4798
11390TIP3    H255662   4.027   0.396  12.466 -1.2169 -0.6461  2.8201
11391TIP3   OH255663   5.678   2.814  11.363  0.3007 -0.0171 -0.2125
11391TIP3    H155664   5.720   2.874  11.425 -1.1365  0.1151  0.6701
11391TIP3    H255665   5.687   2.727  11.402 -0.1249 -0.0048 -0.0819
11392TIP3   OH255666   3.393   1.133   3.321  0.2202  0.5409  0.1179
11392TIP3    H155667   3.408   1.115   3.414  0.7761  1.0731  0.1434
11392TIP3    H255668   3.299   1.150   3.315 -0.1729 -1.3721  0.2342
11393TIP3   OH255669   5.981   4.280  11.993 -0.2161  0.1985  0.3727
11393TIP3    H155670   6.038   4.207  12.018 -2.6967 -1.6100  1.1856
11393TIP3    H255671   6.000   4.349  12.056 -0.5884 -1.2696  2.1741
11394TIP3   OH255672   2.242   4.747  15.190 -0.2914 -0.1600 -0.0424
11394TIP3    H155673   2.314   4.766  15.251  0.5885  1.5052 -1.5170
11394TIP3    H255674   2.244   4.652  15.179  3.0345 -0.0530 -1.5646
11395TIP3   OH255675   2.584   4.964   3.820 -0.2360  0.3322 -0.1945
11395TIP3    H155676   2.506   4.917   3.850 -0.0974  0.4323  0.3450
11395TIP3    H255677   2.653   4.935   3.879  0.1553  0.1846 -0.7205
11396TIP3   OH255678   0.101   5.400  16.407 -0.1666  0.3012 -0.3731
11396TIP3    H155679   0.026   5.354  16.369 -0.4366  1.3914 -1.2290
11396TIP3    H255680   0.167   5.400  16.338  0.2954  0.1145  0.0621
11397TIP3   OH255681   4.733   5.461   1.969 -0.3497 -0.7618  0.0957
11397TIP3    H155682   4.722   5.394   2.038 -0.1034  0.1436  1.0428
11397TIP3    H255683   4.827   5.461   1.951 -0.5162 -1.5793 -0.8688
11398TIP3   OH255684   2.161   0.313   2.188 -0.0513  0.5904  0.1531
11398TIP3    H155685   2.197   0.293   2.101  0.8228  1.2457  0.3518
11398TIP3    H255686   2.184   0.405   2.203 -1.2906  0.8586  0.5598
11399TIP3   OH255687   5.068   4.810  11.293 -0.0578  0.0373 -0.4134
11399TIP3    H155688   5.138   4.786  11.233  0.1490 -1.4020  0.3646
11399TIP3    H255689   5.114   4.836  11.373 -0.3362  1.7555 -0.7533
11400TIP3   OH255690   1.402   4.867  15.361 -0.1743  0.7063  0.0886
11400TIP3    H155691   1.463   4.930  15.324  0.2697  1.1981  1.5917
11400TIP3    H255692   1.457   4.806  15.411 -0.8673  1.0349  1.2970
11401TIP3   OH255693   4.936   6.310   2.295 -0.0826  0.2420  0.2175
11401TIP3    H155694   4.970   6.356   2.218  0.9131 -0.6062  0.1282
11401TIP3    H255695   4.984   6.227   2.296 -1.5742 -0.6550  0.5683
11402TIP3   OH255696   1.374   0.073  17.050  0.4181 -0.5163  0.3096
11402TIP3    H155697   1.383   0.161  17.087 -0.3456 -1.2095  2.2645
11402TIP3    H255698   1.286   0.045  17.077  0.5908 -1.8065 -0.4359
11403TIP3   OH255699   4.600   4.678  12.732 -0.0003 -0.2657 -0.1114
11403TIP3    H155700   4.582   4.604  12.673 -0.0333 -1.7657  1.6629
11403TIP3    H255701   4.514   4.709  12.759 -0.1105 -2.1108  2.0258
11404TIP3   OH255702   0.461   3.617   2.126  0.0783  0.1116 -0.8366
11404TIP3    H155703   0.522   3.664   2.182  1.3063 -0.5630 -1.5786
11404TIP3    H255704   0.381   3.609   2.179  0.7481  0.6658  0.2875
11405TIP3   OH255705   6.545   0.344   1.678  0.1200 -0.2953 -0.2516
11405TIP3    H155706   6.584   0.424   1.642 -1.4490  1.6515  2.0286
11405TIP3    H255707   6.620   0.290   1.704  1.2299 -0.1588 -2.8601
11406TIP3   OH255708   1.634   2.407  13.486 -0.5540  0.4413 -0.1824
11406TIP3    H155709   1.701   2.396  13.418 -1.0219  0.7335 -0.6982
11406TIP3    H255710   1.661   2.486  13.534 -0.5398  0.5671 -0.3979
11407TIP3   OH255711   3.341   1.313   5.525  0.0246 -0.4134  0.2766
11407TIP3    H155712   3.374   1.355   5.605  1.3991 -1.2691  0.1852
11407TIP3    H255713   3.318   1.387   5.468 -2.5574  0.2448  2.0205
11408TIP3   OH255714   5.204   2.570   0.415 -0.3983  0.5284 -0.5514
11408TIP3    H155715   5.268   2.544   0.481 -1.9725 -0.5409  0.6358
11408TIP3    H255716   5.236   2.532   0.334 -0.2018 -1.1671  0.2748
11409TIP3   OH255717   5.763   1.061   5.258 -0.1666  0.2127 -0.0990
11409TIP3    H155718   5.766   1.141   5.206  0.0953 -0.0924 -0.5623
11409TIP3    H255719   5.672   1.031   5.250  0.0579 -0.2598 -1.0566
11410TIP3   OH255720   1.708   6.541  16.039 -0.2138  0.1611 -0.0595
11410TIP3    H155721   1.625   6.519  15.997 -1.0944 -0.3257  1.8246
11410TIP3    H255722   1.690   6.536  16.133  1.3441  2.3291  0.4415
11411TIP3   OH255723   5.837   5.622   1.456 -0.3320  0.1289  0.1389
11411TIP3    H155724   5.906   5.605   1.391 -1.4802 -2.7663 -0.4994
11411TIP3    H255725   5.884   5.650   1.535  1.3803  0.3070 -0.9015
11412TIP3   OH255726   2.910   6.000  15.564 -0.0393  0.5034  0.5066
11412TIP3    H155727   2.881   6.081  15.524 -1.3326 -0.4311 -0.5494
11412TIP3    H255728   2.928   6.023  15.655 -0.4289  1.9429  0.2454
11413TIP3   OH255729   2.622   5.243   3.029  0.0373 -0.2255 -0.2669
11413TIP3    H155730   2.686   5.302   2.989 -0.4448  1.2960  1.0911
11413TIP3    H255731   2.659   5.156   3.017  3.4051  0.6831  2.0651
11414TIP3   OH255732   2.151   2.689  11.040  0.1729 -0.3839 -0.6953
11414TIP3    H155733   2.084   2.757  11.053 -0.9902 -1.5296 -0.4630
11414TIP3    H255734   2.144   2.634  11.118  1.5137 -0.4406 -0.5972
11415TIP3   OH255735   5.158   6.483  16.082 -0.2444  0.3306 -0.1204
11415TIP3    H155736   5.153   6.393  16.114  0.3006  0.2772 -0.1839
11415TIP3    H255737   5.165   6.536  16.161 -1.3837  0.3897 -0.0353
11416TIP3   OH255738   2.411   4.535  16.092  0.0468  0.2443  0.2174
11416TIP3    H155739   2.441   4.481  16.020  1.7832  0.0174  1.0605
11416TIP3    H255740   2.371   4.611  16.050 -0.0745 -0.4557 -0.9673
11417TIP3   OH255741   5.644   3.909  11.956  0.5603 -0.0072  0.6403
11417TIP3    H155742   5.697   3.862  11.891  1.4738  0.2164  1.2054
11417TIP3    H255743   5.706   3.931  12.026 -0.6006 -1.1084  2.0737
11418TIP3   OH255744   2.880   5.282  14.812 -0.2214 -0.7131 -0.1029
11418TIP3    H155745   2.824   5.239  14.747 -0.6182  1.1109 -1.0504
11418TIP3    H255746   2.824   5.349  14.852  0.4138 -0.9122  1.1617
11419TIP3   OH255747   2.217   0.042  13.962  0.0133  0.4026 -0.1987
11419TIP3    H155748   2.158   0.037  13.887  0.2651  0.6973 -0.4159
11419TIP3    H255749   2.226   0.136  13.980 -0.9047  0.3081  0.8794
11420TIP3   OH255750   1.532   3.717  11.603  0.0951  0.0307 -0.1609
11420TIP3    H155751   1.611   3.722  11.549  0.0324 -1.4069 -0.4383
11420TIP3    H255752   1.464   3.690  11.541 -0.3769  0.2018  0.2847
11421TIP3   OH255753   2.848   3.397   1.258 -0.0648 -0.4279 -0.4096
11421TIP3    H155754   2.897   3.446   1.192  0.6245 -0.7591 -0.1641
11421TIP3    H255755   2.914   3.375   1.324 -0.5962 -0.7156  0.0295
11422TIP3   OH255756   2.362   5.294  16.729  0.0626 -0.5171 -0.3390
11422TIP3    H155757   2.379   5.274  16.821  1.6878  1.2501 -0.1998
11422TIP3    H255758   2.290   5.356  16.730 -0.6409 -1.3091 -0.3643
11423TIP3   OH255759   5.569   5.546  15.140  0.2426 -0.3562  0.3131
11423TIP3    H155760   5.664   5.531  15.146  0.4437  0.8633  0.4042
11423TIP3    H255761   5.560   5.614  15.074 -0.3505  1.3653  2.0637
11424TIP3   OH255762   2.007   4.249  12.494 -0.5108  0.7977  0.2672
11424TIP3    H155763   2.046   4.180  12.547  0.2660  0.6959 -0.4116
11424TIP3    H255764   1.917   4.256  12.525 -0.8977 -1.1923 -0.3203
11425TIP3   OH255765   2.651   6.046  11.106 -0.0924 -0.1579 -0.2297
11425TIP3    H155766   2.675   6.104  11.034 -0.0189  0.0058 -0.0716
11425TIP3    H255767   2.728   6.044  11.163 -0.1797 -0.2235 -0.1124
11426TIP3   OH255768   6.149   5.796  12.909  0.3786  0.2167 -0.1084
11426TIP3    H155769   6.229   5.824  12.866  0.2923  1.5057  0.5436
11426TIP3    H255770   6.132   5.862  12.976  0.0680 -1.2955  1.4030
11427TIP3   OH255771   1.219   3.879  12.223  0.2391 -0.0327 -0.1119
11427TIP3    H155772   1.158   3.938  12.268  0.6997  0.3060  0.0728
11427TIP3    H255773   1.257   3.826  12.293  2.0459  1.4846  0.1085
11428TIP3   OH255774   2.883   5.322   4.496  0.2262 -0.3432  0.3032
11428TIP3    H155775   2.924   5.368   4.423  0.8380 -0.4039  0.5975
11428TIP3    H255776   2.882   5.387   4.567 -0.6771 -0.1726  0.1457
11429TIP3   OH255777   0.995   5.308   1.079 -0.1116  0.0839  0.0338
11429TIP3    H155778   0.927   5.245   1.053  0.2779 -0.7110  0.8717
11429TIP3    H255779   1.055   5.257   1.133  2.7455  0.0143 -2.8942
11430TIP3   OH255780   3.541   4.385  12.232 -0.3923  0.6879  1.0742
11430TIP3    H155781   3.611   4.392  12.298  0.4431  1.1039  0.1731
11430TIP3    H255782   3.517   4.293  12.232 -0.1917  0.6306  1.7506
11431TIP3   OH255783   2.566   0.249   0.602 -0.5472  0.3689  0.5029
11431TIP3    H155784   2.477   0.215   0.604 -0.5647  0.4173  0.5653
11431TIP3    H255785   2.619   0.184   0.649 -0.5168  0.2457  0.2965
11432TIP3   OH255786   1.996   5.402  16.997  0.4428  0.3825  0.7296
11432TIP3    H155787   1.959   5.463  17.060 -0.3188  0.9832 -0.2633
11432TIP3    H255788   1.926   5.387  16.934  1.5356  0.7423 -0.6341
11433TIP3   OH255789   0.656   3.701   3.885 -0.0436  0.4331 -0.2553
11433TIP3    H155790   0.703   3.691   3.968 -0.2717 -0.9940 -0.2784
11433TIP3    H255791   0.725   3.718   3.821  0.4417 -1.1943 -0.2141
11434TIP3   OH255792   3.314   4.068  11.860 -0.0177 -0.0919 -0.6537
11434TIP3    H155793   3.333   4.144  11.914 -2.0478 -1.1007  1.6569
11434TIP3    H255794   3.383   4.005  11.882 -0.6718 -0.3907  0.5597
11435TIP3   OH255795   3.089   1.569  16.846  0.0521 -0.0331  0.6511
11435TIP3    H155796   3.120   1.487  16.883 -0.3181 -0.4092  0.1340
11435TIP3    H255797   2.994   1.564  16.852 -0.0039 -0.0449 -0.2409
11436TIP3   OH255798   0.066   2.948   1.651  0.4048 -0.3982 -0.7156
11436TIP3    H155799   0.100   2.860   1.663  1.6499 -0.2630 -2.7655
11436TIP3    H255800   0.135   3.006   1.682  0.4816 -0.1469 -1.3311
11437TIP3   OH255801   3.587   3.588   3.905  0.3223  0.1298  0.5175
11437TIP3    H155802   3.557   3.637   3.828  0.0227  2.5860  2.0807
11437TIP3    H255803   3.549   3.500   3.894 -1.0796  0.9035 -1.3178
11438TIP3   OH255804   5.369   5.560   4.376 -0.0095 -0.4042 -0.4031
11438TIP3    H155805   5.369   5.464   4.377 -0.0835 -0.4298 -1.4174
11438TIP3    H255806   5.330   5.583   4.292 -0.9790  0.5407  0.2742
11439TIP3   OH255807   0.439   6.651  12.684  0.1703 -0.4757 -0.5557
11439TIP3    H155808   0.435   6.556  12.668  0.1699 -0.2785 -1.7645
11439TIP3    H255809   0.428   6.691  12.598  0.8523  0.6233 -0.1539
11440TIP3   OH255810   2.949   6.678  16.676 -0.3457  0.1471 -0.1773
11440TIP3    H155811   2.939   6.656  16.769 -0.2297  0.3168 -0.1258
11440TIP3    H255812   2.892   6.615  16.631 -0.9563  0.5279  0.0559
11441TIP3   OH255813   2.950   6.464  13.424 -0.0341  0.0024  0.3693
11441TIP3    H155814   2.940   6.369  13.416  2.0951 -0.4068  1.8361
11441TIP3    H255815   3.037   6.482  13.388  0.3127  1.1383  1.7178
11442TIP3   OH255816   2.818   5.495   4.854  0.0312  0.4271  0.4121
11442TIP3    H155817   2.911   5.515   4.861 -0.1911  1.4245  0.6777
11442TIP3    H255818   2.814   5.400   4.842  1.2084  0.6000 -2.1153
11443TIP3   OH255819   5.739   2.128   2.561 -0.5762 -0.3362  0.2795
11443TIP3    H155820   5.718   2.164   2.647  0.5101 -0.9078  0.8119
11443TIP3    H255821   5.688   2.048   2.555  0.1046 -0.8270  0.8405
11444TIP3   OH255822   2.227   6.274  16.956 -0.2475  0.1014 -0.0431
11444TIP3    H155823   2.133   6.291  16.956 -0.3230 -0.2837  0.2042
11444TIP3    H255824   2.237   6.195  17.010  0.0801 -0.6434 -1.1452
11445TIP3   OH255825   4.303   6.187  14.379  0.3655  0.3201  0.4250
11445TIP3    H155826   4.349   6.261  14.418 -0.7161  0.9683  0.4961
11445TIP3    H255827   4.270   6.219  14.296 -0.3743  0.0185  0.5935
11446TIP3   OH255828   2.902   4.936  14.272 -0.0732 -0.4191  0.0152
11446TIP3    H155829   2.829   4.874  14.264  0.4267 -1.3182  1.8934
11446TIP3    H255830   2.874   4.998  14.339  0.3845  0.0079 -0.1822
11447TIP3   OH255831   0.957   3.546  12.891 -0.2997  0.1082  0.1017
11447TIP3    H155832   0.905   3.510  12.963 -0.3409 -0.6596 -0.2999
11447TIP3    H255833   0.896   3.602  12.844 -0.4587  0.0927  0.2865
11448TIP3   OH255834   0.283   6.176  12.306 -0.0959  0.8982  0.2413
11448TIP3    H155835   0.370   6.135  12.308  0.1937  1.2344 -2.1560
11448TIP3    H255836   0.224   6.103  12.287 -0.0127  1.0060 -0.4826
11449TIP3   OH255837   6.528   2.767  10.910 -0.5508 -0.0976  0.6965
11449TIP3    H155838   6.622   2.779  10.926 -0.5211  0.1676  0.3426
11449TIP3    H255839   6.512   2.815  10.829 -0.6638 -1.5618 -0.1802
11450TIP3   OH255840   3.297   6.740  16.897 -0.0653  0.0338 -0.0916
11450TIP3    H155841   3.307   6.730  16.802 -0.2365  1.9171 -0.3461
11450TIP3    H255842   3.202   6.734  16.911 -0.0924  0.3384 -0.1312
11451TIP3   OH255843   6.544   2.284   0.963 -0.2293  0.3749 -0.1555
11451TIP3    H155844   6.588   2.340   1.027  0.6724 -0.1867 -0.2766
11451TIP3    H255845   6.498   2.218   1.015 -0.4110  0.5788 -0.0539
11452TIP3   OH255846   4.270   4.072   3.568 -0.3168 -0.3730 -0.5673
11452TIP3    H155847   4.291   4.037   3.482  0.2670 -1.0404 -0.1618
11452TIP3    H255848   4.341   4.042   3.625 -0.5073  0.3539  0.0773
11453TIP3   OH255849   4.769   4.649   2.544  0.1807 -0.2006 -0.4141
11453TIP3    H155850   4.784   4.733   2.499 -1.7434  0.6940  0.4780
11453TIP3    H255851   4.706   4.604   2.488 -1.1859  0.3372  0.6455
11454TIP3   OH255852   5.792   4.910  13.947  0.7929  0.1097 -0.0223
11454TIP3    H155853   5.869   4.954  13.909  0.2983 -0.4069 -1.7420
11454TIP3    H255854   5.812   4.817  13.937 -0.8938 -0.0756 -2.4783
11455TIP3   OH255855   1.968   5.192  15.784 -0.2486  0.0334  0.0064
11455TIP3    H155856   1.901   5.167  15.720  0.1960 -0.6030 -0.2243
11455TIP3    H255857   2.050   5.161  15.746  0.0146 -0.4425  0.9229
11456TIP3   OH255858   3.260   2.545   4.389  0.3514 -0.1722 -0.0042
11456TIP3    H155859   3.307   2.462   4.377  1.5678  0.3676  0.8276
11456TIP3    H255860   3.328   2.607   4.417 -0.7888  0.7505  0.7862
11457TIP3   OH255861   3.050   2.252  14.292  0.3235 -0.3128 -0.2782
11457TIP3    H155862   3.020   2.214  14.375 -0.1577 -0.6196 -0.5854
11457TIP3    H255863   3.024   2.188  14.226 -0.8352  0.7166 -0.8531
11458TIP3   OH255864   4.129   5.801  11.851  0.0551  0.3178 -0.0071
11458TIP3    H155865   4.223   5.816  11.851  0.2571 -0.8109  0.5817
11458TIP3    H255866   4.110   5.768  11.939 -0.9133  0.6442 -0.0777
11459TIP3   OH255867   5.138   5.638  11.152  0.0315 -0.3566 -0.4054
11459TIP3    H155868   5.209   5.625  11.089  1.0078  0.8626  0.4045
11459TIP3    H255869   5.071   5.685  11.103  1.6556  2.5407 -0.0975
11460TIP3   OH255870   4.027   1.487   0.260 -0.2261 -0.0268  0.0458
11460TIP3    H155871   4.055   1.398   0.241  1.6103  0.5119  0.0050
11460TIP3    H255872   4.094   1.542   0.219  0.3360  1.2900  2.5222
11461TIP3   OH255873   5.579   2.369  15.294  0.4191 -0.4610  0.1970
11461TIP3    H155874   5.544   2.385  15.381  1.6210  0.1616  0.5863
11461TIP3    H255875   5.536   2.436  15.239 -0.2479 -0.7799  0.3172
11462TIP3   OH255876   2.036   2.934   3.318 -0.3665 -0.9567 -0.0942
11462TIP3    H155877   2.050   2.855   3.370 -0.7269 -0.4963  0.7236
11462TIP3    H255878   2.088   3.001   3.361  1.3590 -1.1164 -1.8051
11463TIP3   OH255879   3.849   1.117  14.572  0.3985 -0.1647 -0.6161
11463TIP3    H155880   3.804   1.032  14.570  1.8412 -0.9870 -0.0701
11463TIP3    H255881   3.872   1.129  14.664  1.0317  0.3794 -0.8408
11464TIP3   OH255882   1.879   1.221  16.526 -0.0899 -0.4541  0.0631
11464TIP3    H155883   1.919   1.146  16.570 -2.2520 -0.8816  1.4730
11464TIP3    H255884   1.932   1.296  16.554  0.1870 -1.0701  1.2658
11465TIP3   OH255885   5.372   4.079   4.749 -0.0105  0.1264  0.5619
11465TIP3    H155886   5.446   4.025   4.720 -1.0843 -1.3253  0.3739
11465TIP3    H255887   5.367   4.149   4.684 -0.1013 -0.9930 -0.6969
11466TIP3   OH255888   6.128   6.462   0.482  0.4247  1.0519  0.3832
11466TIP3    H155889   6.090   6.453   0.569  2.3671  2.5849  1.4624
11466TIP3    H255890   6.123   6.373   0.445 -2.2917  0.7720  1.1540
11467TIP3   OH255891   0.843   2.424  12.679  0.4755  0.7431 -0.3640
11467TIP3    H155892   0.891   2.383  12.608  0.4638 -0.4277  0.2821
11467TIP3    H255893   0.905   2.487  12.716  0.4931  1.3394 -1.3674
11468TIP3   OH255894   6.150   4.981   2.790 -0.8736  0.5452  0.3356
11468TIP3    H155895   6.188   4.951   2.707 -0.0912 -1.4074  1.3504
11468TIP3    H255896   6.056   4.967   2.779 -0.6806 -0.6493  0.1403
11469TIP3   OH255897   0.215   0.570  13.228 -0.2327  0.5800 -0.2659
11469TIP3    H155898   0.170   0.501  13.276  0.7338 -0.2319 -0.4809
11469TIP3    H255899   0.246   0.527  13.148  0.7206  1.1582 -0.2253
11470TIP3   OH255900   4.982   3.117  15.312 -0.4941  0.2345  0.8551
11470TIP3    H155901   4.968   3.165  15.393 -1.5116  1.6585 -0.1180
11470TIP3    H255902   4.906   3.138  15.258  0.0192 -0.9012 -0.3751
11471TIP3   OH255903   0.511   3.835   1.300  0.1073 -0.7680 -0.1391
11471TIP3    H155904   0.513   3.924   1.335 -1.2800 -1.0659  0.7683
11471TIP3    H255905   0.470   3.844   1.214 -1.0068 -0.6574  0.3960
11472TIP3   OH255906   2.811   0.281  16.877  0.1882  0.4349  0.2129
11472TIP3    H155907   2.836   0.371  16.899 -0.2894  0.5495  0.3111
11472TIP3    H255908   2.861   0.226  16.937  2.3761  0.4624 -1.4441
11473TIP3   OH255909   2.171   1.441  15.486  0.5968  0.0487 -0.0469
11473TIP3    H155910   2.256   1.433  15.442  0.1130 -0.8921 -0.8485
11473TIP3    H255911   2.125   1.360  15.463 -0.7266  0.7924 -0.0697
11474TIP3   OH255912   4.429   2.982   3.888  0.2424 -0.4744  0.2479
11474TIP3    H155913   4.458   3.072   3.873 -1.2580  0.1631  0.9601
11474TIP3    H255914   4.460   2.961   3.976 -0.7504 -0.0732  0.7023
11475TIP3   OH255915   4.494   1.897   0.186 -0.7931  0.1501  0.0607
11475TIP3    H155916   4.506   1.854   0.101  2.0335  1.0188 -0.0890
11475TIP3    H255917   4.485   1.826   0.248 -1.4737 -0.5334 -0.8062
11476TIP3   OH255918   1.911   4.477  16.829  0.3264  0.1117  0.7828
11476TIP3    H155919   1.922   4.551  16.889 -0.4405  0.2251  0.7843
11476TIP3    H255920   1.846   4.422  16.872 -0.1456  0.1393  0.1019
11477TIP3   OH255921   1.668   3.761  16.405  0.3605  0.0612 -0.1611
11477TIP3    H155922   1.606   3.796  16.342  0.9591  0.5473 -0.4906
11477TIP3    H255923   1.691   3.836  16.461 -0.2623 -0.3881  0.7258
11478TIP3   OH255924   2.953   0.587  16.421 -0.2186 -0.3295  0.3506
11478TIP3    H155925   3.047   0.572  16.429 -0.0159 -0.4601 -1.6398
11478TIP3    H255926   2.915   0.550  16.501  1.4034 -0.3952  1.1155
11479TIP3   OH255927   6.264   0.398   2.131  0.2578  0.5434  0.0928
11479TIP3    H155928   6.295   0.489   2.138  4.2069 -0.5917 -0.3556
11479TIP3    H255929   6.311   0.352   2.200 -0.7612 -1.4081 -0.4530
11480TIP3   OH255930   6.758   2.790   3.006 -0.2871  0.4310  0.5755
11480TIP3    H155931   6.663   2.800   3.009 -0.3573  0.8201 -1.6470
11480TIP3    H255932   6.784   2.831   2.924  1.6877 -0.6789  0.5948
11481TIP3   OH255933   3.896   0.698  14.908  0.1410  0.1794 -0.7016
11481TIP3    H155934   3.959   0.632  14.879 -0.5448 -0.1467 -1.4904
11481TIP3    H255935   3.857   0.730  14.827  1.9931  3.1771 -0.5833
11482TIP3   OH255936   0.325   2.145   5.017  0.5332  0.7439 -0.0766
11482TIP3    H155937   0.318   2.187   5.102 -1.9173  1.5450 -0.5814
11482TIP3    H255938   0.303   2.053   5.033  3.5791  0.0318  0.6419
11483TIP3   OH255939   1.186   0.484   1.220 -0.3081 -0.0700  0.4910
11483TIP3    H155940   1.267   0.463   1.175 -0.7729 -1.8065  0.3715
11483TIP3    H255941   1.214   0.524   1.303  0.6737 -0.5826  0.4242
11484TIP3   OH255942   1.128   2.228   5.172 -0.0514 -0.0745  0.3173
11484TIP3    H155943   1.131   2.154   5.112  0.5919  0.4440 -0.3122
11484TIP3    H255944   1.042   2.221   5.215  0.3180 -1.6128  0.8507
11485TIP3   OH255945   2.423   3.389   5.088 -0.0615  0.0080  1.0505
11485TIP3    H155946   2.491   3.387   5.156 -0.9597  1.4595  2.0592
11485TIP3    H255947   2.453   3.454   5.025 -0.0234 -0.0956  0.9626
11486TIP3   OH255948   6.201   5.331   1.953  0.6750  0.0508 -0.2769
11486TIP3    H155949   6.227   5.244   1.982 -0.2843 -0.6267 -1.3792
11486TIP3    H255950   6.282   5.383   1.959  1.0163 -0.6018  1.4077
11487TIP3   OH255951   3.803   2.943  11.922  0.0232 -0.1722 -0.3519
11487TIP3    H155952   3.763   3.026  11.894 -0.9155 -0.3677  0.3414
11487TIP3    H255953   3.769   2.929  12.010  0.6502 -1.0022 -0.2338
11488TIP3   OH255954   6.291   2.726   4.667  0.1797 -0.3813  1.1873
11488TIP3    H155955   6.254   2.640   4.647  1.7086 -0.7424 -0.3434
11488TIP3    H255956   6.249   2.786   4.606  0.1362 -0.3009  1.2959
11489TIP3   OH255957   1.167   0.969  14.440 -0.0876 -0.0819  0.3702
11489TIP3    H155958   1.214   0.906  14.385 -0.3805  0.2857 -0.3239
11489TIP3    H255959   1.109   0.916  14.494  0.8514 -0.5147  0.9742
11490TIP3   OH255960   0.990   4.650  15.217  0.5974  0.2678 -0.0546
11490TIP3    H155961   1.078   4.670  15.187  2.6045 -1.7169  3.7317
11490TIP3    H255962   0.960   4.729  15.260  0.7952  0.7119 -0.7164
11491TIP3   OH255963   1.459   5.821   5.807  0.1690  0.0473 -0.4888
11491TIP3    H155964   1.501   5.742   5.772  1.5533  1.0445 -1.1572
11491TIP3    H255965   1.461   5.809   5.902 -0.1953 -0.9834 -0.5921
11492TIP3   OH255966   5.905   1.067   4.200 -0.0901  0.0682 -0.5786
11492TIP3    H155967   5.941   0.987   4.163 -0.7340  0.0290 -1.1432
11492TIP3    H255968   5.845   1.038   4.268  1.4734  0.1508  0.9203
11493TIP3   OH255969   0.189   2.261  12.202  0.2553 -0.0005 -0.2781
11493TIP3    H155970   0.227   2.294  12.121  1.0254  1.0275  0.4644
11493TIP3    H255971   0.226   2.318  12.270  0.1697 -1.2715  0.8618
11494TIP3   OH255972   2.061   4.532  15.467 -0.2622 -0.0184  0.0942
11494TIP3    H155973   2.138   4.487  15.431  0.2689 -1.0014  2.2951
11494TIP3    H255974   2.089   4.624  15.473  0.7368 -0.3427  0.7685
11495TIP3   OH255975   5.670   4.260   2.697 -0.0551 -0.4573  0.3316
11495TIP3    H155976   5.733   4.331   2.709  1.2519 -1.5097 -0.0111
11495TIP3    H255977   5.585   4.300   2.710  0.6674  1.1154  0.3806
11496TIP3   OH255978   1.787   4.650   4.825  0.4695 -0.3506 -0.1149
11496TIP3    H155979   1.726   4.712   4.785 -0.7357 -2.1843 -1.2749
11496TIP3    H255980   1.828   4.605   4.751  0.4237 -1.7326  0.6505
11497TIP3   OH255981   3.261   5.606   5.788 -0.1189 -0.0241 -0.1978
11497TIP3    H155982   3.198   5.535   5.779  0.5584 -0.4928 -1.4030
11497TIP3    H255983   3.316   5.581   5.862 -0.2450 -0.4826 -0.2590
11498TIP3   OH255984   6.128   5.650   0.692 -0.5877  0.2645  0.0023
11498TIP3    H155985   6.048   5.597   0.689 -0.7553  0.3388  1.9011
11498TIP3    H255986   6.199   5.586   0.693 -0.5353  0.2059 -2.3548
11499TIP3   OH255987   1.832   5.854  13.938  0.3342  0.4011  0.3548
11499TIP3    H155988   1.852   5.932  13.887  0.1343  0.7496  0.8018
11499TIP3    H255989   1.739   5.862  13.959 -0.3265 -1.1223 -1.5743
11500TIP3   OH255990   5.223   3.217  10.803  0.3758  0.3851 -0.1171
11500TIP3    H155991   5.239   3.188  10.713  1.7579  0.2530  0.1522
11500TIP3    H255992   5.237   3.312  10.801 -1.0552  0.6091 -0.3365
11501TIP3   OH255993   5.153   0.766  15.716 -0.3057 -0.2640 -0.1907
11501TIP3    H155994   5.175   0.858  15.703  3.0602 -0.9052 -0.1587
11501TIP3    H255995   5.060   0.759  15.695 -0.3141  2.8469 -1.6468
11502TIP3   OH255996   1.766   1.327   5.658  0.3772  0.1348 -0.1735
11502TIP3    H155997   1.745   1.388   5.587 -2.0663 -0.3009  0.0597
11502TIP3    H255998   1.682   1.285   5.678  1.0188  0.0638  2.8156
11503TIP3   OH255999   1.018   2.689   3.614  0.4959  0.0158 -0.6137
11503TIP3    H156000   1.050   2.641   3.691 -0.4434 -0.3352 -0.4217
11503TIP3    H256001   1.032   2.781   3.636  0.4863 -0.0931 -0.1389
11504TIP3   OH256002   3.066   6.142  15.315  0.0298  0.3011  0.4992
11504TIP3    H156003   3.050   6.236  15.305  0.8959  0.4345  0.3323
11504TIP3    H256004   2.981   6.106  15.343 -0.4622  1.0395 -0.0244
11505TIP3   OH256005   2.549   0.217   3.700  0.8855  0.0257 -0.0382
11505TIP3    H156006   2.598   0.241   3.621 -0.8124  1.9334 -0.6123
11505TIP3    H256007   2.585   0.273   3.769  0.1415  0.7987 -0.2618
11506TIP3   OH256008   6.457   1.010   1.146  0.3414  0.1131 -0.7339
11506TIP3    H156009   6.479   1.101   1.167  1.4964  0.0971 -1.7125
11506TIP3    H256010   6.375   0.993   1.191 -1.0878  2.3498 -2.2964
11507TIP3   OH256011   5.679   0.213   5.020  0.0588 -0.1075 -0.4619
11507TIP3    H156012   5.713   0.185   5.105  0.0351 -0.4398 -0.5617
11507TIP3    H256013   5.586   0.191   5.022  0.0337 -0.0101 -0.5287
11508TIP3   OH256014   5.729   0.853  17.145 -0.5005  0.0980 -0.5028
11508TIP3    H156015   5.737   0.766  17.106  1.2687  1.1674 -2.7454
11508TIP3    H256016   5.802   0.860  17.205 -1.2369 -0.3043  0.4595
11509TIP3   OH256017   2.443   4.052  10.065  0.6518  0.5970 -0.3195
11509TIP3    H156018   2.455   3.958  10.079 -1.0700  0.4727  0.7157
11509TIP3    H256019   2.529   4.090  10.080  1.8354 -0.9496 -2.6135
11510TIP3   OH256020   0.886   4.816  13.760  0.0854  0.6106 -0.7262
11510TIP3    H156021   0.812   4.875  13.771  1.3818  1.9539  1.4724
11510TIP3    H256022   0.963   4.873  13.754  1.1591 -0.7803 -0.8385
11511TIP3   OH256023   0.859   6.115  14.364 -0.1084 -0.3689  0.1395
11511TIP3    H156024   0.937   6.071  14.397  0.4369  0.1537 -0.4471
11511TIP3    H256025   0.842   6.184  14.428  0.6749  0.3420 -0.4022
11512TIP3   OH256026   6.114   0.975   3.885  0.3206 -0.0575  0.0720
11512TIP3    H156027   6.079   0.938   3.804 -0.1745  0.8512 -0.1399
11512TIP3    H256028   6.059   0.939   3.954 -3.0901  3.5482 -0.4494
11513TIP3   OH256029   3.391   6.241  16.515  0.1792 -0.1445 -0.2805
11513TIP3    H156030   3.337   6.241  16.435 -0.1739  1.4367 -0.0609
11513TIP3    H256031   3.476   6.274  16.488  0.3170 -0.3823 -0.1487
11514TIP3   OH256032   0.763   4.891   2.060 -0.1442  0.2766 -0.1088
11514TIP3    H156033   0.815   4.959   2.101  1.2470 -1.1831  0.6740
11514TIP3    H256034   0.794   4.887   1.970  0.6086 -0.0757  0.1555
11515TIP3   OH256035   4.664   1.338   0.973 -0.1068  0.1405 -0.0067
11515TIP3    H156036   4.671   1.434   0.976 -0.4021  0.1430  0.8787
11515TIP3    H256037   4.737   1.307   1.027 -2.2371  0.0014  3.1272
11516TIP3   OH256038   0.234   6.043  13.417 -0.0071 -0.4406  0.7629
11516TIP3    H156039   0.313   6.080  13.378 -1.3660  1.3706 -0.4184
11516TIP3    H256040   0.265   5.966  13.465  2.1039 -1.4855 -2.0067
11517TIP3   OH256041   4.761   4.927  13.959  0.2258 -0.3385  0.5417
11517TIP3    H156042   4.673   4.936  13.923  0.7021  0.7526 -0.4126
11517TIP3    H256043   4.752   4.951  14.052 -0.9652 -2.9460  1.1989
11518TIP3   OH256044   3.506   1.738   4.300  0.0004  0.1317  0.0573
11518TIP3    H156045   3.597   1.756   4.325 -0.3093  4.1511 -0.9603
11518TIP3    H256046   3.460   1.728   4.383  0.8775  1.4240  0.7322
11519TIP3   OH256047   2.369   2.287   1.118 -0.3708 -0.2849  0.7200
11519TIP3    H156048   2.453   2.263   1.080 -0.5137 -2.4995  1.6447
11519TIP3    H256049   2.331   2.349   1.056  1.2088 -0.5337 -0.5592
11520TIP3   OH256050   2.115   4.203   0.493  0.7836  0.3407 -0.8292
11520TIP3    H156051   2.159   4.247   0.565 -0.4299 -0.8824  0.7325
11520TIP3    H256052   2.184   4.151   0.451  1.1753 -0.3681  0.6248
11521TIP3   OH256053   1.632   1.450   4.775  0.4850  0.1209 -0.2483
11521TIP3    H156054   1.644   1.403   4.858  0.8718  0.2119 -0.2495
11521TIP3    H256055   1.573   1.522   4.797  0.3346 -0.0384 -0.1217
11522TIP3   OH256056   5.771   2.455   0.839 -0.1525 -0.0808  0.2665
11522TIP3    H156057   5.721   2.402   0.778 -1.3018 -0.0867  1.1677
11522TIP3    H256058   5.749   2.546   0.816  0.1650 -0.0525  0.0681
11523TIP3   OH256059   4.460   3.290  10.808  0.2220 -0.1314 -0.5679
11523TIP3    H156060   4.393   3.223  10.797  0.8570 -0.6083 -1.6767
11523TIP3    H256061   4.441   3.329  10.893 -1.4416 -0.2678 -0.8494
11524TIP3   OH256062   3.531   5.280   3.769 -0.4602 -0.1586 -0.5554
11524TIP3    H156063   3.541   5.197   3.816 -0.6551  0.3045  0.3180
11524TIP3    H256064   3.617   5.321   3.773 -0.8054  0.5230  0.6689
11525TIP3   OH256065   4.752   6.555  12.998  0.1269 -0.5201 -0.2194
11525TIP3    H156066   4.811   6.524  13.067 -0.7557 -0.1219  0.7558
11525TIP3    H256067   4.711   6.633  13.036  2.0266  1.7380 -2.4359
11526TIP3   OH256068   2.039   6.004   3.425 -0.3292 -0.1740 -0.4133
11526TIP3    H156069   2.131   6.012   3.452 -0.7970  2.8197  0.6520
11526TIP3    H256070   1.990   6.002   3.507 -1.3073  0.1434 -0.9813
11527TIP3   OH256071   5.975   5.526  10.509 -0.4476 -0.0013 -0.1337
11527TIP3    H156072   5.990   5.440  10.470 -0.2323 -0.5765  1.1529
11527TIP3    H256073   5.903   5.563  10.459 -0.9774 -1.2159 -0.3007
11528TIP3   OH256074   6.492   2.746  16.954 -0.0608 -0.1627 -0.0694
11528TIP3    H156075   6.489   2.702  17.039 -3.2947 -1.5674 -0.7690
11528TIP3    H256076   6.572   2.799  16.957  1.6388 -2.5979  2.5818
11529TIP3   OH256077   3.692   1.403   2.756 -0.0376  0.4027 -0.3365
11529TIP3    H156078   3.730   1.317   2.736  1.3434  0.6697  0.9277
11529TIP3    H256079   3.665   1.395   2.848 -2.5193  0.4527 -0.9887
11530TIP3   OH256080   0.573   2.013   5.333 -0.5794  0.1477 -0.0447
11530TIP3    H156081   0.569   1.965   5.415 -2.1297  1.0761  0.4645
11530TIP3    H256082   0.593   1.947   5.267  1.1921 -0.5403  1.1006
11531TIP3   OH256083   1.371   4.210   0.995  0.4096  0.8486 -0.0084
11531TIP3    H156084   1.326   4.279   0.947  2.7539  1.3381 -1.7012
11531TIP3    H256085   1.366   4.134   0.936  1.6205  0.8737 -0.1578
11532TIP3   OH256086   3.195   1.445  16.380  0.1861  0.2499 -0.0494
11532TIP3    H156087   3.220   1.482  16.465  0.6785 -0.2628  0.0423
11532TIP3    H256088   3.175   1.353  16.399 -1.7574  0.6234 -0.1356
11533TIP3   OH256089   6.693   0.340  10.719  0.3545 -0.1054 -0.0279
11533TIP3    H156090   6.752   0.409  10.689  0.7139  0.1856  1.2982
11533TIP3    H256091   6.681   0.284  10.642  0.5113  1.1061 -0.9653
11534TIP3   OH256092   2.831   6.766  13.712 -0.4259  0.1117 -0.0761
11534TIP3    H156093   2.885   6.701  13.668 -0.4660 -0.4856  0.7154
11534TIP3    H256094   2.745   6.758  13.670 -1.0925 -2.0040  1.4700
11535TIP3   OH256095   5.101   1.199   4.408  0.4082 -0.1480  0.0684
11535TIP3    H156096   5.162   1.245   4.350  1.2748 -0.5813  0.6167
11535TIP3    H256097   5.050   1.269   4.449 -0.2593  0.1649 -1.2345
11536TIP3   OH256098   0.307   1.908   2.157 -0.4099 -0.1288  0.1040
11536TIP3    H156099   0.381   1.967   2.141  1.1537 -2.0490 -0.1801
11536TIP3    H256100   0.274   1.886   2.070  0.1839 -1.0442  0.0960
11537TIP3   OH256101   0.330   4.610  15.800  0.4559 -0.1120 -0.0658
11537TIP3    H156102   0.384   4.638  15.874  0.6380  0.8864 -0.5613
11537TIP3    H256103   0.341   4.515  15.797  1.4765 -0.0178  0.3835
11538TIP3   OH256104   2.190   6.445   2.996  0.2418  0.1213  0.2475
11538TIP3    H156105   2.113   6.398   3.028  0.9938 -0.7416  0.8705
11538TIP3    H256106   2.163   6.536   2.991 -1.0030 -0.2495 -0.1476
11539TIP3   OH256107   5.545   4.761  13.592  0.4341 -0.6699  0.7833
11539TIP3    H156108   5.629   4.807  13.595  0.2858 -0.4275  1.5044
11539TIP3    H256109   5.558   4.690  13.529  1.1145 -0.5063  0.7339
11540TIP3   OH256110   1.020   3.377   4.440 -0.1831 -0.0979  0.1709
11540TIP3    H156111   0.991   3.457   4.484  1.2315  0.8116 -0.4909
11540TIP3    H256112   1.107   3.398   4.407 -0.0481 -1.7137 -0.5786
11541TIP3   OH256113   3.386   2.926   2.657  0.2950  0.3423  0.3802
11541TIP3    H156114   3.376   3.020   2.643 -0.5943  0.7984  3.4097
11541TIP3    H256115   3.367   2.913   2.749  2.2500 -2.5861  0.5240
11542TIP3   OH256116   2.551   6.675   1.929 -0.2565 -0.2824  0.0733
11542TIP3    H156117   2.551   6.756   1.979  1.7380 -0.1339 -0.0751
11542TIP3    H256118   2.510   6.610   1.987 -0.0367  0.3812  0.9886
11543TIP3   OH256119   6.527   1.361  11.531 -0.4471 -0.6625 -0.2692
11543TIP3    H156120   6.464   1.414  11.580  0.2335  0.1094 -0.2046
11543TIP3    H256121   6.474   1.292  11.491 -0.9015 -2.1910  2.6740
11544TIP3   OH256122   6.291   3.893  12.352  0.3289 -0.2260  0.1419
11544TIP3    H156123   6.338   3.834  12.411  0.9202  0.6974  0.6269
11544TIP3    H256124   6.343   3.973  12.353 -1.3440  0.9042  0.8444
11545TIP3   OH256125   2.284   5.343  16.038 -0.3662  0.1915  0.0140
11545TIP3    H156126   2.201   5.369  15.998 -0.3428 -0.5208 -0.5006
11545TIP3    H256127   2.323   5.281  15.977  1.2602  1.6290 -0.5070
11546TIP3   OH256128   3.940   4.195  10.617  0.4102  0.1165 -0.5837
11546TIP3    H156129   4.025   4.222  10.582  0.7320 -2.0072 -1.6169
11546TIP3    H256130   3.916   4.118  10.566 -1.2414 -0.4827  0.9615
11547TIP3   OH256131   5.193   6.020   4.661  0.0112  0.2543 -0.0901
11547TIP3    H156132   5.265   5.970   4.623  0.2274 -0.3946  1.1218
11547TIP3    H256133   5.219   6.111   4.650  0.9668  0.0314  0.2066
11548TIP3   OH256134   3.398   3.209   4.672 -0.3028  0.5427 -0.2141
11548TIP3    H156135   3.338   3.262   4.620 -1.6486 -1.2094 -0.5433
11548TIP3    H256136   3.372   3.118   4.654  1.1941 -0.2165  1.1525
11549TIP3   OH256137   0.563   5.487  15.185  0.7006 -0.3401  0.3350
11549TIP3    H156138   0.591   5.486  15.094 -2.2633 -0.3409 -0.6901
11549TIP3    H256139   0.499   5.416  15.192 -2.8522  2.6055  0.9733
11550TIP3   OH256140   1.927   4.944   0.040  0.2702  0.3299 -0.1886
11550TIP3    H156141   2.000   5.000   0.015  0.7923  0.0142  0.6007
11550TIP3    H256142   1.899   4.978   0.125  1.4140 -1.3478  0.9292
11551TIP3   OH256143   1.643   0.965   4.128 -0.2226  0.2399  0.0346
11551TIP3    H156144   1.735   0.985   4.147 -0.3624 -0.2134  1.2778
11551TIP3    H256145   1.648   0.892   4.065  0.2668  0.0241  0.3138
11552TIP3   OH256146   4.691   6.209   3.004  0.3796  0.2798  0.2693
11552TIP3    H156147   4.778   6.223   3.041 -0.1144  0.8559  1.2377
11552TIP3    H256148   4.643   6.290   3.024  0.5259  1.3419 -2.9972
11553TIP3   OH256149   3.100   1.179  10.222 -0.1101  0.1281  0.0086
11553TIP3    H156150   3.132   1.230  10.296 -0.7244  0.4225  0.0785
11553TIP3    H256151   3.158   1.102  10.219  0.0928  0.2486  0.6155
11554TIP3   OH256152   4.646   3.593   5.500 -0.3246  0.2548 -0.4030
11554TIP3    H156153   4.720   3.543   5.467 -1.2552 -0.3441 -1.6418
11554TIP3    H256154   4.608   3.537   5.568 -1.8265 -1.1814 -2.3055
11555TIP3   OH256155   0.451   2.629   1.502 -0.1252 -0.2519  0.3994
11555TIP3    H156156   0.481   2.598   1.416  0.5408 -0.3024  0.6436
11555TIP3    H256157   0.483   2.564   1.564 -0.0010  0.1442  0.7566
11556TIP3   OH256158   5.604   0.535   1.928 -0.4931  0.2768 -0.2993
11556TIP3    H156159   5.508   0.529   1.933 -0.5067  0.5891 -0.1533
11556TIP3    H256160   5.621   0.584   1.847 -0.4578  0.2802 -0.2898
11557TIP3   OH256161   6.667   1.956   2.535 -0.1576 -0.0667  0.9604
11557TIP3    H156162   6.741   2.016   2.523  0.0609 -0.4259  0.4627
11557TIP3    H256163   6.594   2.012   2.562  0.3585  0.2647  1.7130
11558TIP3   OH256164   1.696   4.872   5.664  0.0161  0.5622 -0.3603
11558TIP3    H156165   1.655   4.920   5.593 -0.6739 -0.8124 -0.9328
11558TIP3    H256166   1.644   4.893   5.741 -0.3717  0.6226 -0.6371
11559TIP3   OH256167   4.067   6.516   1.679  0.0306 -0.3131  0.3208
11559TIP3    H156168   4.086   6.587   1.739  0.6960 -0.1671 -0.0448
11559TIP3    H256169   4.141   6.456   1.689 -0.9014 -1.3465  1.1886
11560TIP3   OH256170   3.137   4.431  11.930 -0.4013 -0.3625  0.0972
11560TIP3    H156171   3.212   4.375  11.949  0.0385 -0.2713 -1.2264
11560TIP3    H256172   3.060   4.376  11.948 -0.0134 -0.6915  0.7706
11561TIP3   OH256173   0.432   2.952   1.392 -0.4891  0.1734  0.2045
11561TIP3    H156174   0.460   3.043   1.390  1.6724 -0.4254  0.1681
11561TIP3    H256175   0.498   2.908   1.446 -2.0579 -1.2199  1.1042
11562TIP3   OH256176   6.209   0.528   0.945 -0.2839 -0.1446  0.4688
11562TIP3    H156177   6.118   0.521   0.914 -1.2630  0.4357  3.0073
11562TIP3    H256178   6.249   0.445   0.918 -1.4412 -0.2845 -0.9691
11563TIP3   OH256179   6.485   4.079  15.086 -0.0354 -0.2603  0.2653
11563TIP3    H156180   6.527   4.025  15.019  1.2601  0.9159  0.0788
11563TIP3    H256181   6.489   4.168  15.051  0.9457  0.4382  1.9906
11564TIP3   OH256182   5.623   3.614  12.657 -0.3795 -0.2880  0.0751
11564TIP3    H156183   5.688   3.681  12.680 -0.7870  0.4191 -0.7911
11564TIP3    H256184   5.539   3.655  12.673 -0.6369 -0.4984 -0.7151
11565TIP3   OH256185   6.293   0.068   0.344 -0.2103 -0.2517  0.4025
11565TIP3    H156186   6.225   0.001   0.341  0.0065 -0.4560 -0.1029
11565TIP3    H256187   6.258   0.136   0.402 -0.0670 -1.1884  1.6202
11566TIP3   OH256188   6.327   0.103  12.826 -0.0354 -0.2093  0.5679
11566TIP3    H156189   6.404   0.049  12.843  0.5158  0.4015  0.0786
11566TIP3    H256190   6.253   0.043  12.835  0.6514 -1.8380 -2.7327
11567TIP3   OH256191   1.228   3.617  10.385  0.0140  0.5425 -0.0440
11567TIP3    H156192   1.218   3.665  10.303 -1.3255 -0.4789 -0.5175
11567TIP3    H256193   1.218   3.525  10.360  2.3567 -0.0361  0.8515
11568TIP3   OH256194   6.474   1.595   6.311 -0.3756 -0.3496 -0.3015
11568TIP3    H156195   6.394   1.542   6.309 -0.0359 -0.8501 -0.7330
11568TIP3    H256196   6.523   1.561   6.386 -0.0165 -0.8625 -0.7623
11569TIP3   OH256197   5.592   5.973  16.613 -0.2724  0.2905 -0.4317
11569TIP3    H156198   5.611   5.952  16.522  1.0966 -1.6173  0.2262
11569TIP3    H256199   5.647   6.050  16.632  0.7732 -0.3576 -0.7604
11570TIP3   OH256200   3.521   1.800  12.573 -0.1115 -0.7799 -0.2196
11570TIP3    H156201   3.532   1.890  12.605 -0.5280  0.4760 -3.2886
11570TIP3    H256202   3.427   1.782  12.584 -0.1461 -0.5907 -0.2012
11571TIP3   OH256203   0.959   2.010   0.262  0.6333  0.0351  0.4068
11571TIP3    H156204   0.978   2.092   0.217  1.0041  0.4885  1.3622
11571TIP3    H256205   0.875   2.025   0.305  0.1653 -0.4764 -0.3205
11572TIP3   OH256206   6.686   5.122  17.128 -0.3366  0.0568 -0.2736
11572TIP3    H156207   6.609   5.137  17.183  0.2566  1.8831  0.1316
11572TIP3    H256208   6.654   5.134  17.038 -0.1952  2.9869 -0.0398
11573TIP3   OH256209   5.172   2.469   4.949 -0.0496 -0.0840  0.0851
11573TIP3    H156210   5.109   2.481   4.878  1.4590  1.4704 -1.0822
11573TIP3    H256211   5.191   2.375   4.948  0.1060 -0.0807 -1.7784
11574TIP3   OH256212   0.064   3.668  15.186 -0.4548 -0.0989  0.0705
11574TIP3    H156213   0.077   3.685  15.279 -0.2152 -0.4069  0.0950
11574TIP3    H256214   0.145   3.625  15.158 -0.8189 -0.6659 -0.1206
11575TIP3   OH256215   3.274   2.639  15.151  0.3195  0.1766  0.3423
11575TIP3    H156216   3.334   2.675  15.085  0.7939 -0.5695  0.3634
11575TIP3    H256217   3.324   2.640  15.232 -0.9129  2.9857  1.1916
11576TIP3   OH256218   4.732   0.675   1.662  0.1409  0.3675 -0.2442
11576TIP3    H156219   4.675   0.744   1.696  2.6920  1.9222  1.2223
11576TIP3    H256220   4.707   0.597   1.712 -0.0404  1.2466  1.1135
11577TIP3   OH256221   1.861   2.954   3.790  0.0654  0.3461  0.2778
11577TIP3    H156222   1.930   2.914   3.844  0.4019  1.5117  0.7554
11577TIP3    H256223   1.908   3.018   3.736 -0.0808 -1.5956 -2.3358
11578TIP3   OH256224   5.801   2.226   2.122  0.2101 -0.2742 -0.0007
11578TIP3    H156225   5.875   2.196   2.175  1.6950  0.8941 -1.2748
11578TIP3    H256226   5.729   2.236   2.184  1.6319  0.2635  1.6620
11579TIP3   OH256227   2.615   1.482  11.882  0.0656  0.2604  0.0098
11579TIP3    H156228   2.674   1.462  11.810  0.0525  0.1380  0.0327
11579TIP3    H256229   2.560   1.404  11.890 -1.1230  0.9568 -1.0164
11580TIP3   OH256230   2.388   6.704  11.738  0.4436 -0.2127  0.2177
11580TIP3    H156231   2.327   6.636  11.711 -0.5583  0.1690  1.4380
11580TIP3    H256232   2.387   6.701  11.834 -0.1614  1.9665  0.3343
11581TIP3   OH256233   3.667   3.274  10.408 -0.4382 -0.6168 -0.1563
11581TIP3    H156234   3.659   3.226  10.490 -0.3485 -0.5036 -0.0817
11581TIP3    H256235   3.754   3.314  10.411 -0.9983  0.6070  0.3627
11582TIP3   OH256236   0.893   2.167   4.564  0.2326 -0.0721 -0.1098
11582TIP3    H156237   0.920   2.210   4.646 -0.0496  1.2572 -0.6950
11582TIP3    H256238   0.843   2.091   4.593 -1.3275  1.2938  0.9903
11583TIP3   OH256239   3.774   6.539  11.183 -0.1129 -0.1591 -0.0467
11583TIP3    H156240   3.725   6.519  11.263 -0.0779 -2.8541 -0.5811
11583TIP3    H256241   3.709   6.579  11.125 -0.8118 -0.5639  0.4359
11584TIP3   OH256242   4.719   3.114   5.682  0.3274  0.0265 -0.3917
11584TIP3    H156243   4.651   3.110   5.750 -0.3443 -0.5815 -1.0874
11584TIP3    H256244   4.800   3.124   5.731  0.0665 -2.2937  0.6344
11585TIP3   OH256245   3.056   0.971   1.476 -0.7371 -0.0695 -0.6022
11585TIP3    H156246   3.146   0.983   1.445 -0.8720  2.1677 -0.2791
11585TIP3    H256247   3.011   1.051   1.451 -2.5688 -0.9843 -0.4146
11586TIP3   OH256248   1.792   6.133  14.903  0.4382 -0.2302  0.2809
11586TIP3    H156249   1.841   6.119  14.984 -0.7050  0.0777  1.0582
11586TIP3    H256250   1.784   6.229  14.897  1.0693 -0.2215 -0.5525
11587TIP3   OH256251   3.437   5.010   5.863  0.1737  0.0684 -0.1491
11587TIP3    H156252   3.363   5.059   5.899  1.7191 -0.4902  4.4898
11587TIP3    H256253   3.500   5.076   5.836 -0.6654  0.5389 -1.0014
11588TIP3   OH256254   1.195   2.132   4.160 -0.2646  0.2690 -0.2556
11588TIP3    H156255   1.111   2.174   4.177 -0.5486 -0.3162 -0.1805
11588TIP3    H256256   1.191   2.050   4.208  0.0288 -0.1374 -0.9067
11589TIP3   OH256257   1.596   0.025  11.478 -0.0795  0.3583 -0.1925
11589TIP3    H156258   1.635   0.112  11.473 -0.0743  0.3091 -1.1054
11589TIP3    H256259   1.665  -0.034  11.447 -1.4139  0.4457 -3.7823
11590TIP3   OH256260   2.634   0.963  11.501  0.0645  0.4020  0.5273
11590TIP3    H156261   2.708   0.947  11.442 -0.3994 -1.2725  0.3310
11590TIP3    H256262   2.673   1.001  11.579  1.4085 -1.7480  1.0040
11591TIP3   OH256263   0.377   5.421  14.311 -0.3781 -0.0081  0.4085
11591TIP3    H156264   0.311   5.415  14.242  1.1827 -0.7065 -1.0900
11591TIP3    H256265   0.336   5.475  14.379 -2.4370 -0.3558 -0.4872
11592TIP3   OH256266   1.544   3.047   4.749  0.2941 -0.2680  0.6051
11592TIP3    H156267   1.583   3.053   4.836  0.4099 -0.5837  0.5778
11592TIP3    H256268   1.580   2.966   4.712 -1.5137 -1.3934  1.1439
11593TIP3   OH256269   6.516   0.802  12.653  0.0892  0.0492  0.0039
11593TIP3    H156270   6.576   0.769  12.586 -1.7238 -1.6912 -0.8707
11593TIP3    H256271   6.519   0.897  12.643 -0.1245 -0.1374 -2.6355
11594TIP3   OH256272   5.971   2.518   2.073 -0.6031  0.1286 -0.6866
11594TIP3    H156273   6.033   2.475   2.132  0.0771  0.9767 -0.7585
11594TIP3    H256274   5.887   2.477   2.093 -0.1994 -0.3497  0.1159
11595TIP3   OH256275   2.158   2.874  11.269  0.0206 -0.2101 -0.0466
11595TIP3    H156276   2.080   2.905  11.222  0.9434  0.2680 -1.3209
11595TIP3    H256277   2.226   2.871  11.202  0.8202 -1.7588  0.7856
11596TIP3   OH256278   0.647   1.704  14.462 -0.1842 -0.0018 -0.2730
11596TIP3    H156279   0.731   1.739  14.491 -0.5140  1.0623 -0.5552
11596TIP3    H256280   0.643   1.724  14.369 -0.8201  0.1130 -0.2291
11597TIP3   OH256281   3.835   1.418  12.699  1.2358 -0.2599 -0.3033
11597TIP3    H156282   3.879   1.459  12.773  0.6463 -0.0720 -0.0442
11597TIP3    H256283   3.812   1.492  12.641 -0.3143 -0.1210  0.4232
11598TIP3   OH256284   3.558   6.168   3.016  0.7461 -0.3126  0.0070
11598TIP3    H156285   3.570   6.110   3.091 -1.0694  0.4974  1.0009
11598TIP3    H256286   3.541   6.110   2.942 -1.3324 -1.1154  1.0397
11599TIP3   OH256287   3.973   0.235   4.386 -0.0978 -0.7439 -0.5081
11599TIP3    H156288   3.973   0.181   4.307  1.1727  0.6360 -1.5303
11599TIP3    H256289   3.923   0.313   4.361 -0.5974 -0.7602  0.4158
11600TIP3   OH256290   6.768   2.079   2.980 -0.2817  0.2419 -0.1324
11600TIP3    H156291   6.798   1.989   2.990 -1.6762 -0.2388 -0.0867
11600TIP3    H256292   6.724   2.099   3.063 -0.2103  0.8874 -0.2407
11601TIP3   OH256293   4.702   0.072   3.259 -0.0216 -0.3741  0.1925
11601TIP3    H156294   4.638   0.143   3.251 -0.3405 -0.7180 -0.3397
11601TIP3    H256295   4.677   0.027   3.340 -0.0136 -0.0716  0.3645
11602TIP3   OH256296   6.044   3.794   4.199  0.7594  0.1544 -0.5181
11602TIP3    H156297   6.006   3.835   4.276 -1.1618 -0.9407 -0.8381
11602TIP3    H256298   5.978   3.731   4.169  1.1289  0.9918 -3.4439
11603TIP3   OH256299   3.724   5.231  12.391 -0.0229  0.2199  0.1650
11603TIP3    H156300   3.630   5.235  12.376 -0.3180 -2.3357  0.7590
11603TIP3    H256301   3.733   5.223  12.486  0.9338  2.1098  0.2744
11604TIP3   OH256302   0.145   6.128   4.698 -0.5107 -0.2063 -0.0488
11604TIP3    H156303   0.125   6.088   4.614  0.2780  1.0838 -0.8974
11604TIP3    H256304   0.223   6.082   4.729 -1.1959 -1.1402  0.3246
11605TIP3   OH256305   6.265   1.377  10.065 -0.2530 -0.4922  0.2797
11605TIP3    H156306   6.335   1.316  10.043  0.1783 -0.0427  0.3908
11605TIP3    H256307   6.229   1.345  10.147 -0.2777 -0.8118  0.1428
11606TIP3   OH256308   4.697   6.343  13.295 -0.7302  0.0618 -0.4078
11606TIP3    H156309   4.652   6.362  13.378 -0.4169 -0.8189 -0.0235
11606TIP3    H256310   4.644   6.275  13.254 -0.7577  0.3344 -0.8204
11607TIP3   OH256311   4.594   4.579   4.946  0.3173 -0.0864 -0.0389
11607TIP3    H156312   4.513   4.628   4.944  0.3033 -0.0793  0.6774
11607TIP3    H256313   4.588   4.519   4.871 -0.7070 -0.6633  0.4897
11608TIP3   OH256314   1.710   2.120  12.435  0.0251  0.2449  0.4642
11608TIP3    H156315   1.648   2.071  12.490 -1.0193  0.2430 -0.6745
11608TIP3    H256316   1.675   2.209  12.433 -0.1204  0.1768 -0.4306
11609TIP3   OH256317   6.009   5.593   4.225 -0.0827 -0.8721 -0.0151
11609TIP3    H156318   6.099   5.561   4.223  0.2798 -0.0163  1.1059
11609TIP3    H256319   5.986   5.594   4.318 -0.7940  0.1240 -0.1779
11610TIP3   OH256320   3.123   6.346   1.891  0.6677  0.6580 -0.0492
11610TIP3    H156321   3.121   6.413   1.823 -0.7162  0.7626  0.0816
11610TIP3    H256322   3.152   6.393   1.969 -1.8700  1.5460  0.4553
11611TIP3   OH256323   1.402   4.680   4.220  0.2963 -0.0884 -0.1089
11611TIP3    H156324   1.388   4.742   4.148  1.3403 -0.5620 -0.7365
11611TIP3    H256325   1.316   4.672   4.261  0.1317  1.8326  0.0450
11612TIP3   OH256326   2.904   6.236   2.087 -0.1695  0.1042  0.0193
11612TIP3    H156327   2.970   6.224   2.018 -0.2054  0.1114 -0.0162
11612TIP3    H256328   2.922   6.323   2.122  0.7775 -0.4645  1.0077
11613TIP3   OH256329   4.141   0.256  11.545  0.1117 -0.2488 -0.1503
11613TIP3    H156330   4.086   0.209  11.482  1.0825  0.5654 -1.6659
11613TIP3    H256331   4.230   0.248  11.510  0.5954  0.7770  0.7805
11614TIP3   OH256332   6.765   4.046  10.797  0.1326 -0.3360  0.3148
11614TIP3    H156333   6.788   4.001  10.716  0.7630 -0.1619  0.3908
11614TIP3    H256334   6.782   3.982  10.866 -0.1220 -0.3853  0.3323
11615TIP3   OH256335   2.100   1.696  10.474 -0.4978  0.1855 -0.3174
11615TIP3    H156336   2.036   1.637  10.434 -0.2183  0.2895 -0.9260
11615TIP3    H256337   2.119   1.760  10.407  0.2986  0.1190 -0.1683
11616TIP3   OH256338   6.240   3.844   0.238 -0.2477 -0.1663 -0.5968
11616TIP3    H156339   6.194   3.811   0.161  0.0185 -4.0960  0.7072
11616TIP3    H256340   6.223   3.779   0.307  2.1640  1.4311  1.7424
11617TIP3   OH256341   5.437   3.312  13.635 -0.5320 -0.1816  0.5700
11617TIP3    H156342   5.446   3.312  13.539 -0.0274  0.6501  0.6075
11617TIP3    H256343   5.439   3.219  13.659  0.5620 -0.3604 -0.1220
11618TIP3   OH256344   3.589   4.931  14.847 -0.2087  0.2350  0.0441
11618TIP3    H156345   3.670   4.959  14.891  0.1414 -0.3330 -0.2293
11618TIP3    H256346   3.522   4.934  14.916  0.3885 -0.8990  0.7113
11619TIP3   OH256347   2.229   0.386  16.710 -0.0864 -0.5409 -0.1452
11619TIP3    H156348   2.276   0.465  16.684 -0.2157 -0.2531  0.4738
11619TIP3    H256349   2.180   0.360  16.632  2.6410 -2.0215 -1.4863
11620TIP3   OH256350   0.503   3.351  13.145 -0.3364 -0.1878 -0.3827
11620TIP3    H156351   0.575   3.322  13.201 -1.2419 -0.4779  0.6678
11620TIP3    H256352   0.480   3.274  13.093  0.8025  0.2050 -1.5329
11621TIP3   OH256353   6.331   0.982   3.386 -0.0967  0.3958  0.1450
11621TIP3    H156354   6.406   0.949   3.435 -0.8657 -1.4401  0.1693
11621TIP3    H256355   6.283   1.036   3.449 -0.9594 -1.7542  1.4426
11622TIP3   OH256356   5.878   6.393   3.438  0.6081 -0.5256 -0.7377
11622TIP3    H156357   5.881   6.394   3.534 -0.2481 -1.2633 -0.6900
11622TIP3    H256358   5.941   6.325   3.413  2.3304  1.0310 -0.8051
11623TIP3   OH256359   3.488   5.705   1.025  0.3427  0.1373  0.6269
11623TIP3    H156360   3.490   5.797   1.000  1.0772 -0.3084 -1.0893
11623TIP3    H256361   3.417   5.668   0.972 -0.0246 -0.2742  1.3912
11624TIP3   OH256362   3.964   3.957  11.283  0.4366  0.3623 -0.1443
11624TIP3    H156363   3.895   3.958  11.348  0.8122  0.6617  0.2530
11624TIP3    H256364   3.925   3.998  11.205 -0.5590 -1.4940 -0.6866
11625TIP3   OH256365   1.669   5.807  11.183  0.0634 -0.1261  0.5917
11625TIP3    H156366   1.759   5.783  11.208 -0.6641 -0.1407  3.6735
11625TIP3    H256367   1.658   5.896  11.218  0.1167  1.6916 -3.5084
11626TIP3   OH256368   0.060   1.977   2.286  0.9152 -0.0448 -0.1646
11626TIP3    H156369   0.114   1.899   2.293  0.2115 -0.5563 -0.3580
11626TIP3    H256370   0.109   2.035   2.227  2.5281  0.6057  1.6974
11627TIP3   OH256371   4.680   1.980  12.905 -0.1670 -0.2697  0.0256
11627TIP3    H156372   4.720   2.052  12.953  0.9834  0.4992 -1.9529
11627TIP3    H256373   4.698   2.000  12.813 -1.2330 -2.2607 -0.6714
11628TIP3   OH256374   0.927   2.043   1.437 -0.2943  0.6806 -0.0510
11628TIP3    H156375   0.908   2.123   1.387 -0.8172  0.8104  0.3435
11628TIP3    H256376   0.863   1.979   1.406  0.3348  0.3112 -0.5985
11629TIP3   OH256377   2.865   5.150  16.885  0.2658 -0.0407 -0.1394
11629TIP3    H156378   2.832   5.061  16.872 -0.6875  0.2155  0.4747
11629TIP3    H256379   2.801   5.206  16.840  0.5680  0.3690 -0.0619
11630TIP3   OH256380   5.175   4.473   5.502  0.1421 -0.0419 -0.2567
11630TIP3    H156381   5.240   4.405   5.487  1.1678  0.2088  2.5083
11630TIP3    H256382   5.096   4.426   5.529  0.0782 -0.2197 -0.7455
11631TIP3   OH256383   5.652   4.597   4.835  0.6665  0.5190 -0.4920
11631TIP3    H156384   5.611   4.551   4.761  0.8600  0.9460 -0.8720
11631TIP3    H256385   5.605   4.680   4.840  0.0309  0.1187  0.4636
11632TIP3   OH256386   5.279   5.647  13.961  0.7285  0.4384  0.2628
11632TIP3    H156387   5.323   5.576  13.915  0.1841 -0.0117  0.4211
11632TIP3    H256388   5.192   5.612  13.980 -0.9764  2.3726 -2.9643
11633TIP3   OH256389   5.892   0.356  11.408 -0.4655 -0.5834 -0.0823
11633TIP3    H156390   5.848   0.383  11.489 -1.5545 -1.8100 -0.2505
11633TIP3    H256391   5.953   0.288  11.436 -0.2713 -0.4534 -0.1868
11634TIP3   OH256392   0.571   5.888  14.684 -0.4229  0.3698 -0.4687
11634TIP3    H156393   0.538   5.892  14.594 -0.5397  0.4537 -0.4230
11634TIP3    H256394   0.662   5.917  14.677  0.2059 -1.5802 -0.8640
11635TIP3   OH256395   5.482   6.356   0.403  0.2179 -0.2009 -0.3066
11635TIP3    H156396   5.445   6.293   0.465 -1.6310 -0.4553 -1.6016
11635TIP3    H256397   5.446   6.440   0.430  0.7905 -0.0364 -0.0281
11636TIP3   OH256398   2.844   0.273   0.413  0.6174 -0.3752  0.4544
11636TIP3    H156399   2.816   0.184   0.439  1.7167 -0.7879  0.2609
11636TIP3    H256400   2.899   0.302   0.485 -0.7541  0.6896  1.1259
11637TIP3   OH256401   4.708   1.579  15.411  0.3002  0.0472  0.0672
11637TIP3    H156402   4.717   1.499  15.463 -1.7113 -0.3561 -0.1406
11637TIP3    H256403   4.623   1.571  15.369  0.9387  1.3726 -1.5963
11638TIP3   OH256404   5.638   2.700   9.965  0.4769  0.1722 -0.3004
11638TIP3    H156405   5.674   2.634  10.024  0.6191 -0.5930 -1.2100
11638TIP3    H256406   5.695   2.776   9.976  0.1035  0.2704  1.0174
11639TIP3   OH256407   5.702   5.295  13.596  0.6876 -0.4974 -0.3735
11639TIP3    H156408   5.701   5.378  13.547  0.2552 -0.5000 -0.3748
11639TIP3    H256409   5.762   5.240  13.546  0.6760 -0.3150 -0.5966
11640TIP3   OH256410   0.997   1.788  14.914  0.0129  0.2190 -0.2080
11640TIP3    H156411   0.943   1.731  14.969  1.0365 -0.9882 -0.4264
11640TIP3    H256412   0.987   1.753  14.825  1.8736 -0.6406 -0.1232
11641TIP3   OH256413   4.570   0.597  15.636  0.3260 -0.5024 -0.6937
11641TIP3    H156414   4.565   0.573  15.729  0.1688  0.1069 -0.5360
11641TIP3    H256415   4.662   0.587  15.613  0.5291  0.1998 -0.2236
11642TIP3   OH256416   2.946   4.824  11.106  0.9822  0.4348  0.0455
11642TIP3    H156417   2.981   4.913  11.104  1.6279  0.1928  0.3493
11642TIP3    H256418   2.904   4.817  11.192 -0.9531  1.1407 -0.7998
11643TIP3   OH256419   1.550   6.832   3.322 -0.2681  0.1231 -0.0725
11643TIP3    H156420   1.552   6.791   3.408  1.2347  0.9387  0.3165
11643TIP3    H256421   1.520   6.763   3.263 -1.1995 -0.4806  1.0695
11644TIP3   OH256422   3.578   6.633   2.810 -0.3399  0.5765  0.2588
11644TIP3    H156423   3.670   6.627   2.837 -0.4357  0.7230  0.6163
11644TIP3    H256424   3.539   6.550   2.839 -0.4863  0.8120  0.7382
11645TIP3   OH256425   5.731   2.987  14.872 -0.4876 -0.0304 -0.3036
11645TIP3    H156426   5.698   2.902  14.900  0.7767 -0.6164 -0.5115
11645TIP3    H256427   5.656   3.046  14.879 -1.7745 -1.4439 -1.5076
11646TIP3   OH256428   3.161   2.528  13.768  0.0261 -0.0929 -0.1087
11646TIP3    H156429   3.200   2.449  13.806  0.5021 -0.5211 -1.4133
11646TIP3    H256430   3.067   2.508  13.765  0.0149 -0.1672  0.5479
11647TIP3   OH256431   4.146   1.906   3.283 -0.1198 -0.2869 -0.1189
11647TIP3    H156432   4.185   1.933   3.200  1.3844 -1.2626  0.2333
11647TIP3    H256433   4.088   1.833   3.261 -1.3180  0.7658 -0.5601
11648TIP3   OH256434   3.647   4.107  11.819 -0.6051 -0.0922  0.0033
11648TIP3    H156435   3.647   4.037  11.754 -0.9635  0.7051 -0.8742
11648TIP3    H256436   3.652   4.061  11.903 -0.5182 -1.1534 -0.5633
11649TIP3   OH256437   6.449   0.602  12.371  0.2464  0.0145 -0.2019
11649TIP3    H156438   6.515   0.655  12.326  0.8466 -0.2992  0.3009
11649TIP3    H256439   6.366   0.632  12.335  0.7719 -2.1612 -3.6488
11650TIP3   OH256440   1.813   4.774  15.529 -0.1254 -0.8060  0.2013
11650TIP3    H156441   1.881   4.818  15.478 -0.7526  1.3578  1.1190
11650TIP3    H256442   1.859   4.742  15.607 -0.2805  1.8278  1.4778
11651TIP3   OH256443   6.760   1.385  13.926 -0.2249 -0.1567 -0.4844
11651TIP3    H156444   6.689   1.445  13.950 -0.3774 -0.3847 -0.3651
11651TIP3    H256445   6.736   1.302  13.967  0.2081 -0.1832 -0.2870
11652TIP3   OH256446   3.620   1.014   6.483 -0.0261 -0.3113  0.3289
11652TIP3    H156447   3.691   1.072   6.512 -0.9018  1.2671 -0.5216
11652TIP3    H256448   3.638   0.930   6.525  0.9625  0.7445  2.1352
11653TIP3   OH256449   1.841   5.379   0.665 -0.0680  0.4595  0.3210
11653TIP3    H156450   1.859   5.334   0.748  1.3184  0.8315  0.2498
11653TIP3    H256451   1.787   5.454   0.690 -0.5439 -0.0120  0.7374
11654TIP3   OH256452   1.440   3.304  11.947 -0.3514 -0.1401  0.1223
11654TIP3    H156453   1.426   3.378  11.888  0.0284 -1.0925 -1.2101
11654TIP3    H256454   1.368   3.310  12.010 -1.4002  0.3086 -1.0754
11655TIP3   OH256455   4.243   3.214  15.551 -0.4522  0.2765 -0.1555
11655TIP3    H156456   4.239   3.148  15.621  1.1261 -0.8320 -1.0355
11655TIP3    H256457   4.327   3.197  15.507 -1.7209  0.3990 -2.8162
11656TIP3   OH256458   0.470   1.603   5.098 -0.0574  0.6988 -0.2594
11656TIP3    H156459   0.385   1.561   5.107 -0.6847  1.6898 -1.3345
11656TIP3    H256460   0.527   1.556   5.160 -1.4942  0.3641  0.8528
11657TIP3   OH256461   6.272   2.894   4.428 -0.1332  0.2101  0.7148
11657TIP3    H156462   6.327   2.946   4.486 -0.9486  0.1286  1.5789
11657TIP3    H256463   6.183   2.915   4.454 -0.5186  0.0078 -0.3721
11658TIP3   OH256464   5.423   6.427  13.812  0.4227  0.2049  0.5814
11658TIP3    H156465   5.498   6.406  13.869  1.6150 -0.5165 -1.1587
11658TIP3    H256466   5.432   6.521  13.795  0.5168  0.2646  0.9494
11659TIP3   OH256467   4.491   5.784  10.716 -0.3827 -0.4854  0.7077
11659TIP3    H156468   4.553   5.717  10.686  0.4266  0.4911  0.1535
11659TIP3    H256469   4.506   5.859  10.658 -2.2701 -0.2959  0.3897
11660TIP3   OH256470   5.858   2.071  15.908  0.1058  0.2750  0.5251
11660TIP3    H156471   5.763   2.077  15.900  0.1063 -1.2046 -1.2825
11660TIP3    H256472   5.890   2.080  15.818  1.6012 -0.2711  0.9720
11661TIP3   OH256473   2.389   3.257   5.872  0.3402 -0.1386 -0.2926
11661TIP3    H156474   2.299   3.266   5.901  0.6001  0.9911  0.2298
11661TIP3    H256475   2.439   3.250   5.954  0.7714 -0.2160 -0.5609
11662TIP3   OH256476   2.039   3.461  13.701 -0.0444 -0.3165 -0.9731
11662TIP3    H156477   2.074   3.503  13.779 -2.2823 -0.3708  0.1299
11662TIP3    H256478   2.107   3.398  13.674  0.0038 -1.7380  2.1042
11663TIP3   OH256479   4.443   1.314   4.938 -0.1921 -0.0246 -0.5269
11663TIP3    H156480   4.455   1.278   5.026 -1.3984  0.4234 -0.1573
11663TIP3    H256481   4.500   1.262   4.883 -0.7525 -1.5015  0.2382
11664TIP3   OH256482   3.319   1.226  12.754 -0.6903  0.1501  0.0080
11664TIP3    H156483   3.251   1.282  12.716 -1.4503 -0.8274 -0.1074
11664TIP3    H256484   3.400   1.253  12.709 -1.6092 -1.2361 -2.6742
11665TIP3   OH256485   4.631   4.540   3.468 -0.9950 -0.2871 -0.0344
11665TIP3    H156486   4.652   4.447   3.476 -1.0465 -0.3752 -0.8308
11665TIP3    H256487   4.571   4.557   3.540  0.6345 -0.3686  1.4244
11666TIP3   OH256488   2.616   1.649   4.316 -0.4546 -0.3202  0.5866
11666TIP3    H156489   2.639   1.649   4.409 -0.6145  1.5066  0.6686
11666TIP3    H256490   2.539   1.705   4.311  1.0782  1.8193 -0.9358
11667TIP3   OH256491   3.770   5.208  12.999 -0.1730 -0.1389  0.1518
11667TIP3    H156492   3.771   5.203  13.095  0.4465 -0.8961  0.1160
11667TIP3    H256493   3.830   5.280  12.979 -1.0044  0.6314  0.3474
11668TIP3   OH256494   4.404   5.904  14.746  0.4838 -0.7065  0.4510
11668TIP3    H156495   4.372   5.822  14.784 -3.1356 -0.5233 -1.6293
11668TIP3    H256496   4.368   5.972  14.803  2.2226 -0.4878  1.3336
11669TIP3   OH256497   3.226   5.538   4.098  0.2741 -0.2884  0.0473
11669TIP3    H156498   3.213   5.493   4.014  0.0521  2.3301 -1.4348
11669TIP3    H256499   3.320   5.534   4.114  0.0534 -3.3214  1.2850
11670TIP3   OH256500   6.674   2.265  12.086 -0.3338 -0.0983  0.0352
11670TIP3    H156501   6.645   2.340  12.034 -1.6071 -1.2285 -0.9694
11670TIP3    H256502   6.701   2.200  12.020  1.4531 -0.2685  0.8961
11671TIP3   OH256503   5.542   0.043   3.096 -0.7508 -0.1689 -0.3287
11671TIP3    H156504   5.459   0.011   3.132  0.5438 -1.4576  1.7186
11671TIP3    H256505   5.567   0.114   3.156  0.4058 -0.9100  0.1040
11672TIP3   OH256506   0.175   5.782  12.735 -0.4826  0.2293 -0.1976
11672TIP3    H156507   0.249   5.842  12.723 -0.8961  0.3782 -2.2827
11672TIP3    H256508   0.213   5.695  12.719 -0.3525  0.1220  0.6679
11673TIP3   OH256509   0.608   1.345   2.036  0.0496 -0.0477 -0.0425
11673TIP3    H156510   0.515   1.360   2.018 -0.1164 -1.3337 -0.3403
11673TIP3    H256511   0.609   1.289   2.113  0.5698 -0.2657 -0.2024
11674TIP3   OH256512   0.079   1.088  13.515 -0.0517 -0.1644  0.5105
11674TIP3    H156513   0.050   1.042  13.436  1.9567 -0.9888  0.1925
11674TIP3    H256514   0.018   1.060  13.583 -1.8445  0.5794 -0.7219
11675TIP3   OH256515   5.038   6.817   0.374  0.0750  0.3916  0.1206
11675TIP3    H156516   4.954   6.802   0.332 -1.1253  2.6116  1.5132
11675TIP3    H256517   5.087   6.871   0.312  0.9256 -1.6524 -1.0892
11676TIP3   OH256518   4.430   6.501   1.110 -0.3051 -0.3678 -0.0007
11676TIP3    H156519   4.491   6.557   1.063  2.4073 -3.2851 -0.2691
11676TIP3    H256520   4.383   6.454   1.042 -1.6333  0.5497  0.2391
11677TIP3   OH256521   1.145   6.662   4.368 -0.7202 -0.0240  0.0314
11677TIP3    H156522   1.213   6.604   4.402 -0.7819 -1.0024 -1.4201
11677TIP3    H256523   1.101   6.611   4.300 -1.2119  1.4945 -0.8568
11678TIP3   OH256524   6.629   6.455  17.132  0.8549 -0.3630  0.3554
11678TIP3    H156525   6.565   6.445  17.202 -0.0934  0.7562 -0.3251
11678TIP3    H256526   6.646   6.366  17.102 -3.2916 -0.6083 -1.9941
11679TIP3   OH256527   1.348   5.804   5.128 -0.0423  0.0215  0.4948
11679TIP3    H156528   1.272   5.795   5.069  1.0579 -0.8923 -0.8443
11679TIP3    H256529   1.422   5.819   5.069  0.8049  1.1703  1.7933
11680TIP3   OH256530   2.110   2.023  14.395  0.5699 -0.0469 -0.1948
11680TIP3    H156531   2.049   1.995  14.326  1.0401 -2.4141  0.2698
11680TIP3    H256532   2.197   2.003  14.360  0.8456 -0.6793  0.8246
11681TIP3   OH256533   0.272   3.575   0.134  0.5140  0.2189 -0.1223
11681TIP3    H156534   0.178   3.580   0.148  0.4655  1.2023 -0.7153
11681TIP3    H256535   0.304   3.516   0.203 -0.2946  1.2854  1.2070
11682TIP3   OH256536   5.814   5.635   4.950  0.2748 -0.4276 -0.4428
11682TIP3    H156537   5.853   5.547   4.945 -1.0585 -1.1665  1.1371
11682TIP3    H256538   5.835   5.665   5.038  1.0664  1.0527 -1.1082
11683TIP3   OH256539   6.653   0.941   4.322  0.2085  0.2538  0.1193
11683TIP3    H156540   6.708   0.889   4.381  1.5109  0.8942 -0.4800
11683TIP3    H256541   6.581   0.882   4.298  0.1147 -0.3004  1.6471
11684TIP3   OH256542   6.474   0.361  11.486  0.6384  0.3678  0.1389
11684TIP3    H156543   6.436   0.442  11.451  0.3001 -0.3359 -1.1717
11684TIP3    H256544   6.567   0.366  11.463  0.2297 -0.5866 -1.9301
11685TIP3   OH256545   0.381   6.543   5.980  0.3777  0.3132 -0.0116
11685TIP3    H156546   0.316   6.476   5.959  0.7685  0.5237 -2.1725
11685TIP3    H256547   0.464   6.495   5.987  0.5156  0.4330 -0.6978
11686TIP3   OH256548   2.761   1.430   4.240  0.0803  0.9943 -0.6976
11686TIP3    H156549   2.674   1.469   4.243 -0.0726  0.6766 -0.9378
11686TIP3    H256550   2.773   1.389   4.326 -0.2979  0.4244 -0.9074
11687TIP3   OH256551   0.330   2.937   5.695 -0.0579  0.2794 -0.5369
11687TIP3    H156552   0.240   2.962   5.717  0.1690 -1.7715  3.7720
11687TIP3    H256553   0.383   3.013   5.722 -0.3142  0.5104 -0.6790
11688TIP3   OH256554   2.202   0.227   5.168 -0.2181 -0.1036  0.5238
11688TIP3    H156555   2.119   0.218   5.216 -1.4466 -0.6022 -1.5618
11688TIP3    H256556   2.176   0.251   5.079  1.8340 -1.0886 -0.4200
11689TIP3   OH256557   3.304   3.497   1.943  0.0235 -0.1016 -0.3221
11689TIP3    H156558   3.314   3.428   2.009  1.9993  0.6102  0.1926
11689TIP3    H256559   3.312   3.579   1.992 -3.6824  0.6365 -0.6982
11690TIP3   OH256560   4.487   2.354  14.664 -0.7026  0.4445  0.2906
11690TIP3    H156561   4.538   2.318  14.591 -0.8965 -2.4856  1.4403
11690TIP3    H256562   4.553   2.379  14.729 -0.6002 -1.0462  0.7973
11691TIP3   OH256563   5.368   6.073  10.992 -0.5101 -0.0060  0.5355
11691TIP3    H156564   5.369   6.133  11.067  1.4184  1.7564 -0.7830
11691TIP3    H256565   5.328   6.123  10.922  0.1822 -0.6195 -0.3207
11692TIP3   OH256566   0.102   1.647  15.502  0.2261 -0.8140  0.7603
11692TIP3    H156567   0.013   1.665  15.472  0.5525  0.5594  0.5859
11692TIP3    H256568   0.121   1.559  15.469 -0.0214 -0.0115 -1.6879
11693TIP3   OH256569   3.896   0.423   1.796  0.0560 -0.4343 -0.3836
11693TIP3    H156570   3.972   0.480   1.789  0.3486 -0.7473  0.1761
11693TIP3    H256571   3.827   0.479   1.832  0.0458 -0.1738 -0.8038
11694TIP3   OH256572   6.319   0.989  12.100 -0.1342  0.0126  0.5174
11694TIP3    H156573   6.414   0.995  12.110 -0.0311  0.2838 -0.5269
11694TIP3    H256574   6.301   1.024  12.013 -0.9933 -1.8459 -0.0959
11695TIP3   OH256575   5.581   1.113  10.921  0.3192 -0.2102 -0.2002
11695TIP3    H156576   5.662   1.161  10.940  0.4179 -0.8561  1.1462
11695TIP3    H256577   5.543   1.158  10.846  1.4348  0.7058 -0.2397
11696TIP3   OH256578   4.060   1.920  13.621 -0.0889  0.1190 -0.4791
11696TIP3    H156579   4.148   1.949  13.595 -0.5757 -0.0460 -2.4868
11696TIP3    H256580   4.053   1.832  13.586 -0.8992 -0.0458  0.0724
11697TIP3   OH256581   2.250   2.763  13.292 -0.2658  0.3431  0.3889
11697TIP3    H156582   2.230   2.748  13.200 -1.4315  0.7078  0.5647
11697TIP3    H256583   2.202   2.843  13.314 -1.6019 -0.7782  1.7890
11698TIP3   OH256584   5.841   1.052   6.050 -0.2725 -0.1784  0.0562
11698TIP3    H156585   5.875   1.062   6.140 -1.5925  0.5359  0.5000
11698TIP3    H256586   5.920   1.054   5.995  0.5187  0.0063  1.1488
11699TIP3   OH256587   1.638   2.844   5.164  0.0069 -0.2583 -0.1332
11699TIP3    H156588   1.594   2.914   5.213 -1.8902  0.5983 -2.7777
11699TIP3    H256589   1.686   2.890   5.095  2.0939 -1.4201  0.4834
11700TIP3   OH256590   1.493   4.224   4.060  0.6493 -0.2578  0.0064
11700TIP3    H156591   1.510   4.180   3.976  0.2284 -0.7009  0.1518
11700TIP3    H256592   1.558   4.187   4.119  2.0596  1.2537 -0.5040
11701TIP3   OH256593   5.557   6.000   5.568 -0.3010  0.1093  0.5252
11701TIP3    H156594   5.481   5.945   5.547 -0.4144  0.0515  1.0736
11701TIP3    H256595   5.620   5.981   5.499 -0.4097 -0.5912  0.6118
11702TIP3   OH256596   1.305   5.244  13.150  0.0392 -0.1289 -0.7577
11702TIP3    H156597   1.260   5.193  13.217 -1.1241  0.9575 -0.6801
11702TIP3    H256598   1.237   5.264  13.085  0.6395  0.6827 -1.1514
11703TIP3   OH256599   1.297   4.969   2.827  0.3476 -0.3508  0.7110
11703TIP3    H156600   1.282   4.899   2.891 -1.1540 -2.1585 -1.4486
11703TIP3    H256601   1.248   5.044   2.862 -0.2655 -1.2211  1.7773
11704TIP3   OH256602   1.320   5.112  13.898  0.3585  0.9724  0.3432
11704TIP3    H156603   1.396   5.060  13.923 -0.4325 -0.3454  0.1126
11704TIP3    H256604   1.273   5.128  13.979  0.3846  0.9704  0.3583
11705TIP3   OH256605   0.182   0.721   5.018  0.1520  0.0159 -0.4582
11705TIP3    H156606   0.277   0.712   5.031 -0.0546  1.4012  3.4174
11705TIP3    H256607   0.164   0.812   5.039 -2.1449 -0.4969  0.0052
11706TIP3   OH256608   0.051   1.629  16.271 -0.1673 -0.4491  0.1417
11706TIP3    H156609   0.145   1.646  16.278 -0.1641 -0.1357 -0.6368
11706TIP3    H256610   0.041   1.542  16.310  0.6877 -1.1616 -1.1290
11707TIP3   OH256611   6.682   6.354   4.966 -0.3204 -0.0651  0.5627
11707TIP3    H156612   6.774   6.328   4.968 -0.4376 -0.8362  4.1620
11707TIP3    H256613   6.683   6.448   4.981 -0.1398  0.8568 -4.0231
11708TIP3   OH256614   3.594   6.269  16.161  0.4613  0.2630 -0.3454
11708TIP3    H156615   3.570   6.316  16.241  1.4601  2.0510 -1.0224
11708TIP3    H256616   3.546   6.187  16.166 -0.1474  0.6755  1.6821
11709TIP3   OH256617   6.403   4.415  17.005 -0.5210  0.1641 -0.7313
11709TIP3    H156618   6.493   4.391  16.986 -1.0446 -0.9011 -2.0148
11709TIP3    H256619   6.388   4.496  16.956  0.0756  1.0391  0.4752
11710TIP3   OH256620   2.855   5.506  11.234  0.3682  0.9177 -0.0888
11710TIP3    H156621   2.870   5.526  11.327  3.6188  2.7847 -0.8424
11710TIP3    H256622   2.850   5.592  11.192 -0.7445  0.1049 -1.7310
11711TIP3   OH256623   0.788   1.900  13.296  0.1337 -0.4450  0.3101
11711TIP3    H156624   0.741   1.918  13.378 -0.9596 -0.8958 -0.1987
11711TIP3    H256625   0.780   1.981  13.245 -1.3095 -0.9697 -0.3364
11712TIP3   OH256626   4.696   3.192  16.333  0.2142  0.2485 -0.2656
11712TIP3    H156627   4.681   3.264  16.394  0.4308 -0.0939  0.1992
11712TIP3    H256628   4.649   3.217  16.254 -0.5761  0.4268  0.2477
11713TIP3   OH256629   0.177   6.146   3.283 -0.0459  0.2091 -0.4178
11713TIP3    H156630   0.236   6.145   3.208  1.3525 -1.0112  0.6222
11713TIP3    H256631   0.096   6.184   3.250  0.3414 -0.7424 -2.6668
11714TIP3   OH256632   3.767   5.824   0.309 -0.2580  0.0559  0.2453
11714TIP3    H156633   3.714   5.814   0.388  0.5186 -1.1237  0.6358
11714TIP3    H256634   3.824   5.898   0.329 -1.3536  0.9972  0.0255
11715TIP3   OH256635   0.128   3.011   3.069 -0.2300 -0.5169  0.0446
11715TIP3    H156636   0.179   3.082   3.109 -0.5512 -0.6562  0.7181
11715TIP3    H256637   0.121   2.945   3.138 -2.0443 -0.1425  0.2506
11716TIP3   OH256638   3.072   6.392  16.889 -0.4645 -0.3582  0.3185
11716TIP3    H156639   3.073   6.417  16.982 -1.7680 -1.1822  0.5864
11716TIP3    H256640   2.995   6.336  16.880  0.7339 -1.9345 -0.8563
11717TIP3   OH256641   0.918   0.018  13.294 -0.3164 -0.6040 -0.2851
11717TIP3    H156642   0.904  -0.074  13.316  1.4343 -0.8762 -0.1722
11717TIP3    H256643   0.834   0.047  13.258 -0.9186 -2.2215 -0.2687
11718TIP3   OH256644   2.308   3.653   4.491 -0.1796 -0.0443  0.1141
11718TIP3    H156645   2.403   3.637   4.484 -0.6350 -2.6373 -3.9992
11718TIP3    H256646   2.283   3.609   4.572  1.9992 -0.0681  0.8600
11719TIP3   OH256647   3.489   2.060   3.632  0.2468  0.2992 -0.3302
11719TIP3    H156648   3.484   2.045   3.726  0.7410  0.7203 -0.2282
11719TIP3    H256649   3.483   2.155   3.623 -1.3381  0.1703 -0.8428
11720TIP3   OH256650   5.987   6.590   4.701  0.1775  0.2047 -0.0967
11720TIP3    H156651   6.016   6.584   4.610 -1.6154 -0.4195 -0.6730
11720TIP3    H256652   6.052   6.646   4.744  0.4693  1.4023 -1.9968
11721TIP3   OH256653   2.150   5.963  10.714  0.5005  0.8282  0.1117
11721TIP3    H156654   2.082   5.991  10.652  1.5569  0.5050 -1.2391
11721TIP3    H256655   2.108   5.970  10.800 -0.6392  2.4158 -0.5220
11722TIP3   OH256656   5.485   0.598  16.852  0.1257 -0.3329 -0.3798
11722TIP3    H156657   5.428   0.609  16.776  0.7720 -0.3068 -0.8768
11722TIP3    H256658   5.553   0.664  16.840  1.2940 -1.5625 -0.7975
11723TIP3   OH256659   1.519   6.127   0.861  0.0710 -0.3658 -0.6182
11723TIP3    H156660   1.496   6.072   0.787 -0.5761 -0.4328 -0.3790
11723TIP3    H256661   1.435   6.145   0.904  0.5270 -1.0392  0.5939
11724TIP3   OH256662   5.399   3.848   2.352 -0.0415 -0.3908 -0.1645
11724TIP3    H156663   5.376   3.778   2.291  0.7331 -0.9764  0.1985
11724TIP3    H256664   5.451   3.805   2.419  0.4729  0.5489  0.0538
11725TIP3   OH256665   4.373   3.281  12.096  0.0465  0.3904 -0.2636
11725TIP3    H156666   4.313   3.218  12.136  0.1742  1.3341  1.5638
11725TIP3    H256667   4.331   3.307  12.015 -0.6157 -1.0789 -0.4186
11726TIP3   OH256668   1.124   5.035  11.503 -0.4028  0.1010 -0.5140
11726TIP3    H156669   1.142   5.022  11.596  1.5382 -0.2723 -0.9033
11726TIP3    H256670   1.044   5.088  11.501  0.6762  1.9173  1.4031
11727TIP3   OH256671   0.152   6.014   1.766 -0.4439 -0.4327  0.2967
11727TIP3    H156672   0.118   5.994   1.679 -1.4911 -0.8902  0.7841
11727TIP3    H256673   0.099   6.089   1.795 -0.0224 -0.2099  0.4896
11728TIP3   OH256674   0.972   6.298   0.683  0.2787 -0.1911 -0.2086
11728TIP3    H156675   1.012   6.284   0.769  0.6215 -1.1236 -0.5078
11728TIP3    H256676   0.953   6.392   0.681  1.6727  0.1333  0.2908
11729TIP3   OH256677   2.666   3.701   6.110  0.1077  0.0441 -0.5209
11729TIP3    H156678   2.702   3.671   6.026  0.8716 -0.3342 -0.0774
11729TIP3    H256679   2.669   3.623   6.165 -1.5032 -0.0129 -0.4824
11730TIP3   OH256680   3.190   2.234  11.593  0.5476 -0.0436  0.5397
11730TIP3    H156681   3.113   2.270  11.550  0.1745 -0.5189  0.8134
11730TIP3    H256682   3.262   2.291  11.563  0.5482 -1.1436 -1.7830
11731TIP3   OH256683   4.141   3.805   1.288  0.3969  0.4931  0.4746
11731TIP3    H156684   4.065   3.840   1.242  0.6002 -0.7288 -0.8513
11731TIP3    H256685   4.166   3.875   1.348  0.1456  2.1925 -1.2929
11732TIP3   OH256686   4.211   1.540  12.713  0.3378 -0.2356 -0.0890
11732TIP3    H156687   4.249   1.628  12.715  0.3959 -0.2688  0.4403
11732TIP3    H256688   4.205   1.515  12.805 -0.8838 -0.2717 -0.1676
11733TIP3   OH256689   1.582   0.311   2.463 -0.4524 -0.4001  0.1561
11733TIP3    H156690   1.540   0.235   2.423  0.6758 -1.4589  0.9219
11733TIP3    H256691   1.632   0.275   2.537  1.3509  0.8728 -0.3739
11734TIP3   OH256692   3.681   5.618   4.786  0.3409 -0.1219 -0.3243
11734TIP3    H156693   3.595   5.617   4.745  0.2394 -0.4388 -0.1028
11734TIP3    H256694   3.686   5.535   4.833  0.9816 -0.3488 -0.7791
11735TIP3   OH256695   6.099   5.406  16.786  0.9473 -0.4213 -0.4509
11735TIP3    H156696   6.151   5.486  16.778  0.6240 -0.1045  0.5235
11735TIP3    H256697   6.024   5.420  16.728  1.4136 -0.4692 -1.0884
11736TIP3   OH256698   3.243   0.718   3.470  0.2126  0.1621  1.2438
11736TIP3    H156699   3.244   0.623   3.458 -0.8434  0.1136  1.4986
11736TIP3    H256700   3.190   0.751   3.397  0.4471  0.5498  1.2465
11737TIP3   OH256701   6.522   3.361   4.489  0.4331 -0.4391 -0.1472
11737TIP3    H156702   6.514   3.311   4.407 -2.5083 -1.0595  0.4094
11737TIP3    H256703   6.588   3.314   4.539  2.3819  0.0028 -2.1192
11738TIP3   OH256704   6.176   6.582  16.412 -0.0633  0.7116 -0.5426
11738TIP3    H156705   6.112   6.610  16.478 -1.3712 -0.2230 -1.3473
11738TIP3    H256706   6.260   6.583  16.458 -0.8546  0.6028  0.9909
11739TIP3   OH256707   2.282   2.367   4.666 -0.3756 -0.0223 -0.4695
11739TIP3    H156708   2.354   2.361   4.728  1.3844 -1.7613 -2.4927
11739TIP3    H256709   2.297   2.449   4.620  1.4742 -1.1272 -2.0272
11740TIP3   OH256710   5.796   3.289   0.605 -0.0017  0.0640  0.0232
11740TIP3    H156711   5.798   3.228   0.678 -1.7541 -2.0922 -1.5746
11740TIP3    H256712   5.739   3.360   0.634 -0.7309 -0.8013  0.7728
11741TIP3   OH256713   1.436   5.069   1.550  0.2219  0.2457  0.4991
11741TIP3    H156714   1.509   5.016   1.519 -0.5414  0.5369 -2.1114
11741TIP3    H256715   1.476   5.140   1.600  1.5496 -0.6403  0.7135
11742TIP3   OH256716   2.264   2.034  15.874 -0.3683 -0.4244  0.5451
11742TIP3    H156717   2.209   2.085  15.814 -0.6266 -1.3154  0.0119
11742TIP3    H256718   2.217   1.951  15.884  0.3849 -0.8122  0.8706
11743TIP3   OH256719   6.795   3.767  15.680  0.3022 -0.1048 -0.8445
11743TIP3    H156720   6.734   3.773  15.754 -0.0720 -1.6578 -0.9858
11743TIP3    H256721   6.874   3.810  15.710 -0.4078  0.7513 -0.1533
11744TIP3   OH256722   1.568   6.483  12.997 -0.0064 -0.7650  0.5573
11744TIP3    H156723   1.636   6.424  13.030 -0.7491 -1.1379  1.4784
11744TIP3    H256724   1.489   6.428  12.993 -0.6905  0.1311  1.3402
11745TIP3   OH256725   0.041   2.883   2.785 -0.1841  0.3138 -0.1882
11745TIP3    H156726   0.038   2.978   2.774  0.7899  0.3110 -0.5654
11745TIP3    H256727   0.134   2.863   2.793 -0.4357 -0.2094  3.4005
11746TIP3   OH256728   0.432   4.898  15.775 -0.1517 -0.1293  0.3303
11746TIP3    H156729   0.399   4.986  15.793 -0.6129 -0.4428  1.0667
11746TIP3    H256730   0.353   4.846  15.761  0.1105 -0.4643  0.0928
11747TIP3   OH256731   3.501   6.747  15.147  0.0865 -0.2654  0.0923
11747TIP3    H156732   3.426   6.746  15.207 -1.8816  0.9467 -2.1530
11747TIP3    H256733   3.538   6.659  15.153 -0.0408 -0.2253  2.9435
11748TIP3   OH256734   0.384   1.247  11.663 -0.3515 -0.0966 -0.3727
11748TIP3    H156735   0.419   1.247  11.574  0.9405  2.5791  0.0368
11748TIP3    H256736   0.321   1.320  11.665  0.9973  1.1189  1.3150
11749TIP3   OH256737   1.326   1.506   6.090 -0.0930  0.3190 -0.2878
11749TIP3    H156738   1.234   1.517   6.066 -0.3970 -0.2818  0.5599
11749TIP3    H256739   1.358   1.595   6.101 -0.3769  0.5579 -1.2746
11750TIP3   OH256740   2.913   0.645  11.328  0.2542  0.6071  0.6482
11750TIP3    H156741   2.924   0.732  11.290  0.4706  0.4369  0.3202
11750TIP3    H256742   2.820   0.625  11.318  0.3652  0.4306 -0.0835
11751TIP3   OH256743   2.333   2.757   4.192 -0.7201  0.1250  0.5935
11751TIP3    H156744   2.376   2.733   4.110 -0.9654  1.8005 -0.0527
11751TIP3    H256745   2.253   2.802   4.166 -1.2138 -0.0192  1.7679
11752TIP3   OH256746   0.954   6.624   4.181 -0.3202 -0.4143 -0.1263
11752TIP3    H156747   0.934   6.681   4.255  1.7516  1.9151 -1.2555
11752TIP3    H256748   0.868   6.609   4.140 -1.2369 -0.1495  1.5821
11753TIP3   OH256749   5.434   2.243  12.140 -0.3162 -0.5389 -0.5528
11753TIP3    H156750   5.349   2.205  12.121  0.0445 -1.7342  0.1484
11753TIP3    H256751   5.462   2.283  12.057 -1.0652 -1.0981 -1.0802
11754TIP3   OH256752   0.258   4.579   5.150 -0.6616 -0.2715  0.7151
11754TIP3    H156753   0.196   4.632   5.200 -2.0885  0.8108 -2.0415
11754TIP3    H256754   0.230   4.488   5.166 -0.3116 -0.0802  2.7454
11755TIP3   OH256755   4.152   4.788   6.498 -0.3498  0.2801 -0.6195
11755TIP3    H156756   4.212   4.727   6.541 -0.2581  0.3790 -0.6062
11755TIP3    H256757   4.178   4.784   6.406 -1.6060 -1.1750 -0.9535
11756TIP3   OH256758   3.289   4.848   0.957  0.4056  0.4967  0.2307
11756TIP3    H156759   3.293   4.766   1.006  1.5420  0.2731 -0.2074
11756TIP3    H256760   3.378   4.861   0.924 -0.4710  0.2743 -2.4081
11757TIP3   OH256761   2.697   6.583  11.517  0.0555 -0.1628 -0.6600
11757TIP3    H156762   2.767   6.648  11.525  0.2971 -0.4733 -0.2222
11757TIP3    H256763   2.669   6.568  11.607  0.6563 -1.3791 -0.6539
11758TIP3   OH256764   0.313   1.862  12.758 -0.5407  0.1980 -0.1560
11758TIP3    H156765   0.309   1.958  12.769 -0.4779  0.2578 -0.6445
11758TIP3    H256766   0.267   1.846  12.676  0.3622 -0.0919 -0.6175
11759TIP3   OH256767   5.582   6.584   1.829  0.0125  0.3506  0.4132
11759TIP3    H156768   5.516   6.517   1.810 -0.1472  0.8043 -0.7499
11759TIP3    H256769   5.643   6.541   1.888  1.0995 -1.6210 -1.9259
11760TIP3   OH256770   6.789   6.722  13.759 -0.7254 -0.4085  0.2559
11760TIP3    H156771   6.774   6.814  13.740  1.6136  0.0011  0.0318
11760TIP3    H256772   6.765   6.712  13.851 -2.1815  0.0884 -0.0423
11761TIP3   OH256773   4.517   1.350   2.328  0.3050 -0.0637  0.0049
11761TIP3    H156774   4.550   1.384   2.244  1.9343  1.0650  1.0356
11761TIP3    H256775   4.579   1.281   2.351 -0.5382 -0.8441 -0.0300
11762TIP3   OH256776   2.967   0.123  12.950 -1.0150  1.2369  0.0622
11762TIP3    H156777   3.013   0.155  12.872 -0.6797  0.9251  0.1307
11762TIP3    H256778   3.021   0.153  13.023  0.9585 -1.9424  0.0765
11763TIP3   OH256779   3.636   3.879  11.668  0.3615  0.3017  0.2283
11763TIP3    H156780   3.573   3.834  11.610  0.3255  1.1064 -0.3770
11763TIP3    H256781   3.718   3.833  11.653  0.0087 -0.5220  0.7448
11764TIP3   OH256782   2.697   3.059   1.072  0.4445 -0.0897 -0.3070
11764TIP3    H156783   2.643   3.128   1.111 -1.1348 -1.7423  0.5599
11764TIP3    H256784   2.766   3.043   1.137  0.4351  0.2080 -0.2208
11765TIP3   OH256785   1.163   1.944  16.848 -0.0792 -0.0572  0.7055
11765TIP3    H156786   1.120   1.951  16.933 -0.1661 -0.5596  0.7077
11765TIP3    H256787   1.098   1.903  16.791  1.0911 -3.0700  1.3038
11766TIP3   OH256788   4.200   0.363   1.277 -0.3073 -0.2171  0.1239
11766TIP3    H156789   4.287   0.335   1.304  1.1054  3.5777  0.1686
11766TIP3    H256790   4.143   0.338   1.350  1.0694 -1.1822  0.9085
11767TIP3   OH256791   4.891   4.970  13.734  0.4363 -0.1955  0.2180
11767TIP3    H156792   4.961   4.919  13.775 -0.7776 -0.5972  1.8984
11767TIP3    H256793   4.814   4.955  13.790 -0.5153  1.7440 -0.4726
11768TIP3   OH256794   2.716   0.091   5.461 -0.1174  0.7904 -0.6046
11768TIP3    H156795   2.656   0.156   5.497 -1.4460 -1.4097  1.5033
11768TIP3    H256796   2.780   0.076   5.531 -0.5502 -0.9526 -0.5338
11769TIP3   OH256797   1.486   4.232  10.606  0.2687 -0.2801 -0.2139
11769TIP3    H156798   1.455   4.314  10.567 -0.0778  0.4268  1.4961
11769TIP3    H256799   1.482   4.169  10.534 -1.9010  0.5924 -0.9284
11770TIP3   OH256800   0.213   1.779  13.135 -0.5078  0.2416 -0.0778
11770TIP3    H156801   0.156   1.838  13.087 -0.7069 -2.1629 -3.1299
11770TIP3    H256802   0.299   1.822  13.133 -1.1634  1.6130  0.1789
11771TIP3   OH256803   2.266   2.040  12.572  0.5860  0.4307 -0.5906
11771TIP3    H156804   2.187   1.990  12.592  0.1531  0.4746 -2.0370
11771TIP3    H256805   2.336   1.975  12.566  0.2983  0.1638 -1.0882
11772TIP3   OH256806   1.579   2.605  13.716  0.4419 -0.0094 -0.0051
11772TIP3    H156807   1.659   2.632  13.671 -0.4876  0.1880 -1.6163
11772TIP3    H256808   1.523   2.683  13.715 -0.6115 -0.7525 -0.8825
11773TIP3   OH256809   3.273   1.473   3.647  0.1507 -0.4332 -0.6755
11773TIP3    H156810   3.271   1.507   3.737  0.9110 -2.0893  0.0008
11773TIP3    H256811   3.181   1.469   3.621 -0.2668 -1.9561  0.8550
11774TIP3   OH256812   2.109   0.601   0.015 -0.1655 -0.1596  0.2248
11774TIP3    H156813   2.024   0.627   0.051  0.0535  1.0881 -0.1189
11774TIP3    H256814   2.110   0.506   0.024 -3.1220 -0.7120 -3.0294
11775TIP3   OH256815   4.408   0.051  11.774 -0.3478  0.1991 -0.1635
11775TIP3    H156816   4.338   0.115  11.780 -0.4907  0.1991 -1.6066
11775TIP3    H256817   4.467   0.085  11.708  1.9046  0.9972  2.1057
11776TIP3   OH256818   1.611   4.562   3.013 -0.2567 -0.0046 -0.0233
11776TIP3    H156819   1.660   4.561   2.931  0.1844 -2.3506  0.1844
11776TIP3    H256820   1.653   4.631   3.065  2.9609 -1.8892  0.1494
11777TIP3   OH256821   5.696   4.042  14.089 -0.3853 -0.1390 -0.7035
11777TIP3    H156822   5.774   3.992  14.066 -0.0117 -0.0081  0.2281
11777TIP3    H256823   5.676   4.093  14.011  1.2056  0.7683 -0.5653
11778TIP3   OH256824   3.508   6.302   0.533 -0.2082 -0.7336  0.4824
11778TIP3    H156825   3.439   6.297   0.599 -1.9745  0.6064 -1.1451
11778TIP3    H256826   3.563   6.375   0.560 -1.0229 -0.0779  0.3957
11779TIP3   OH256827   5.848   5.111  13.414  0.2324  0.1389 -0.4570
11779TIP3    H156828   5.814   5.137  13.328 -4.5347 -1.3143  0.7187
11779TIP3    H256829   5.835   5.017  13.418 -1.8738  0.4226  2.5668
11780TIP3   OH256830   0.556   5.543  13.873  0.2359  0.0836 -0.2412
11780TIP3    H156831   0.494   5.613  13.895  0.8150  0.2996  0.7857
11780TIP3    H256832   0.639   5.572  13.911  1.0696 -0.0341 -1.9022
11781TIP3   OH256833   1.250   0.249  13.904 -0.3400  0.1697  0.5660
11781TIP3    H156834   1.336   0.220  13.933 -0.3821 -1.2856 -0.6366
11781TIP3    H256835   1.227   0.189  13.834 -2.4846  0.3251  1.0698
11782TIP3   OH256836   6.823   2.813  13.079 -0.2447 -0.1747 -0.1731
11782TIP3    H156837   6.870   2.768  13.009 -0.5389  1.8493 -1.7409
11782TIP3    H256838   6.765   2.745  13.116  0.1831 -1.3832 -1.6203
11783TIP3   OH256839   1.220   5.141   0.649 -0.2169 -0.1405 -0.5217
11783TIP3    H156840   1.257   5.121   0.735 -3.0888 -0.3139  0.7852
11783TIP3    H256841   1.167   5.065   0.627  0.8459 -0.3240 -2.7679
11784TIP3   OH256842   4.220   3.869  16.432  0.9576 -0.2894 -0.3157
11784TIP3    H156843   4.249   3.784  16.398 -0.3642 -0.9241  0.0841
11784TIP3    H256844   4.125   3.864  16.430  0.8370  1.5852 -1.2402
11785TIP3   OH256845   3.795   3.641   6.641 -0.4338  0.1128 -0.6976
11785TIP3    H156846   3.790   3.672   6.731  1.2733  0.5149 -0.7066
11785TIP3    H256847   3.710   3.663   6.603 -2.2513 -2.5115  1.5206
11786TIP3   OH256848   0.720   0.251  13.018  0.1184  0.1694  0.0510
11786TIP3    H156849   0.738   0.344  13.005  0.8495  0.2603  1.5615
11786TIP3    H256850   0.694   0.244  13.110 -1.3968 -0.9144 -0.4164
11787TIP3   OH256851   5.538   3.355   1.415 -0.7686  0.1981 -0.0989
11787TIP3    H156852   5.595   3.281   1.435 -1.5742 -0.5289 -0.4300
11787TIP3    H256853   5.528   3.353   1.320 -0.5373  0.9410 -0.1479
11788TIP3   OH256854   5.217   3.599   5.256  0.2827 -0.3565 -0.3399
11788TIP3    H156855   5.268   3.624   5.180 -0.4037  0.8014 -0.4484
11788TIP3    H256856   5.126   3.608   5.228  0.0108  0.7057  0.7824
11789TIP3   OH256857   4.590   5.070   4.598 -0.2155  0.1240  0.3895
11789TIP3    H156858   4.593   5.052   4.692 -1.5815  0.4028  0.5097
11789TIP3    H256859   4.542   4.996   4.561 -0.2748  0.3512  0.0071
11790TIP3   OH256860   0.341   3.943  16.636  0.2148 -0.6226  0.7255
11790TIP3    H156861   0.336   4.000  16.560  1.1165 -0.7016  0.5975
11790TIP3    H256862   0.269   3.882  16.625 -0.8426  0.5430  0.9179
11791TIP3   OH256863   1.056   1.369   1.107 -0.0644  0.5476  0.4721
11791TIP3    H156864   1.038   1.368   1.013 -0.2893  1.7373  0.4854
11791TIP3    H256865   1.104   1.451   1.122  1.2344 -0.3000  1.1882
11792TIP3   OH256866   6.239   2.932  13.395 -0.2355  0.0310  0.1783
11792TIP3    H156867   6.274   2.845  13.377  2.7410  1.0386  0.6307
11792TIP3    H256868   6.247   2.942  13.489  0.0041  0.9937  0.0653
11793TIP3   OH256869   4.490   5.507  16.683 -0.0080 -0.3313 -0.1418
11793TIP3    H156870   4.555   5.511  16.753  0.7751 -2.4837 -0.6711
11793TIP3    H256871   4.497   5.418  16.649 -1.8332  0.0171 -1.5776
11794TIP3   OH256872   4.602   4.502   4.641 -0.4167 -0.0592  0.1605
11794TIP3    H156873   4.679   4.446   4.641 -0.7772 -0.7142  2.9309
11794TIP3    H256874   4.528   4.442   4.636 -0.8177 -0.0349  3.5235
11795TIP3   OH256875   4.561   2.547   3.662  0.0755  0.6509 -0.1432
11795TIP3    H156876   4.489   2.588   3.614 -0.2795 -0.7099 -0.8055
11795TIP3    H256877   4.523   2.466   3.698  0.6551  1.0457  1.4560
11796TIP3   OH256878   2.217   0.098   3.355 -0.2490 -0.0315 -0.1203
11796TIP3    H156879   2.303   0.134   3.377 -0.3449  1.4577 -1.9115
11796TIP3    H256880   2.162   0.175   3.342 -1.3580 -0.9272 -0.8717
11797TIP3   OH256881   0.213   5.225  13.462  0.6353 -0.3155  0.6459
11797TIP3    H156882   0.231   5.138  13.499  0.2818 -0.0424  1.4934
11797TIP3    H256883   0.178   5.275  13.536  1.4800  0.7544  0.3434
11798TIP3   OH256884   4.096   1.494  11.646  0.1245 -0.3756 -0.3156
11798TIP3    H156885   4.104   1.445  11.564  0.4620  1.5037 -1.4605
11798TIP3    H256886   4.139   1.439  11.711 -0.9523 -2.3528 -1.1713
11799TIP3   OH256887   4.458   1.894  13.235  0.3692  0.2015 -0.2200
11799TIP3    H156888   4.539   1.868  13.192  1.0788  0.8979  0.6569
11799TIP3    H256889   4.468   1.987  13.252 -0.9905  0.4934 -0.8799
11800TIP3   OH256890   5.071   3.022   1.618  0.7693 -0.4821  0.3892
11800TIP3    H156891   5.113   2.946   1.577  2.2697 -1.6798  3.7485
11800TIP3    H256892   5.002   2.985   1.672 -0.1003  0.8442  0.2323
11801TIP3   OH256893   0.814   0.414   2.029  0.5772  0.5701  0.1529
11801TIP3    H156894   0.806   0.394   2.123 -0.1235 -1.8052 -0.3493
11801TIP3    H256895   0.906   0.399   2.009  0.6316  0.6128  0.3696
11802TIP3   OH256896   1.749   3.797   3.848 -0.2902  0.6128  0.1274
11802TIP3    H156897   1.696   3.735   3.898  2.4126 -1.5868  0.5218
11802TIP3    H256898   1.800   3.845   3.914  0.9189 -0.0088 -0.3106
11803TIP3   OH256899   1.336   6.398   2.969  0.1188 -0.0109 -0.3905
11803TIP3    H156900   1.246   6.430   2.961 -0.0916 -0.7465 -1.0709
11803TIP3    H256901   1.353   6.354   2.886  0.3523 -1.7564  0.5515
11804TIP3   OH256902   6.657   3.632  14.270  0.4174 -0.3290 -0.3357
11804TIP3    H156903   6.753   3.635  14.279  0.3411 -1.2831  1.1341
11804TIP3    H256904   6.636   3.707  14.214  1.8972  0.7242  0.4396
11805TIP3   OH256905   1.557   1.968  12.633 -0.0634 -0.7713 -0.2246
11805TIP3    H156906   1.536   1.965  12.727  0.2406  2.8186  0.1054
11805TIP3    H256907   1.475   1.943  12.590 -0.0995 -2.8701  0.9149
11806TIP3   OH256908   6.183   2.967  15.555  0.6679 -0.0317  0.5688
11806TIP3    H156909   6.196   3.057  15.582  2.2217 -0.1245  0.1705
11806TIP3    H256910   6.162   2.921  15.637  1.3699  0.4169  1.0151
11807TIP3   OH256911   0.885   6.776  14.359  0.3046 -0.0697  0.3619
11807TIP3    H156912   0.863   6.806  14.271 -0.5228  0.7249  0.8291
11807TIP3    H256913   0.867   6.850  14.416  1.3480 -0.3955  1.1523
11808TIP3   OH256914   6.682   4.271  15.394  0.2918 -0.5694 -0.3600
11808TIP3    H156915   6.669   4.297  15.302 -0.7285 -0.5019 -0.2068
11808TIP3    H256916   6.670   4.176  15.394 -1.1996 -0.3994 -0.0663
11809TIP3   OH256917   4.879   5.806   0.690 -0.3198  0.6833  0.1072
11809TIP3    H156918   4.932   5.730   0.663  0.7406  1.4612 -0.0550
11809TIP3    H256919   4.797   5.795   0.642  0.3236  0.3249 -0.9507
11810TIP3   OH256920   2.350   0.770   4.072  0.1775  0.4214  0.0797
11810TIP3    H156921   2.362   0.683   4.109 -0.4355 -0.5999 -1.9784
11810TIP3    H256922   2.438   0.797   4.045 -0.0006 -1.0151 -2.2132
11811TIP3   OH256923   1.485   2.667   3.982 -0.2794  0.0081 -0.3563
11811TIP3    H156924   1.414   2.620   4.026  1.4410 -1.1591  1.2885
11811TIP3    H256925   1.494   2.623   3.897 -1.5743  0.2750 -0.6620
11812TIP3   OH256926   3.959   0.410   5.505  0.0961  0.0740 -0.7297
11812TIP3    H156927   4.022   0.343   5.480  0.7600  0.1525  0.6398
11812TIP3    H256928   3.880   0.361   5.528  0.1868 -0.1473 -0.8912
11813TIP3   OH256929   3.100   3.190  13.090 -0.1771  0.1269 -0.2946
11813TIP3    H156930   3.171   3.252  13.103 -0.2307  0.5364 -1.7599
11813TIP3    H256931   3.143   3.111  13.058 -0.4117  0.5647 -1.7368
11814TIP3   OH256932   2.636   3.145   2.001 -0.4325  0.2870 -0.1591
11814TIP3    H156933   2.628   3.142   2.097 -0.3712 -0.7785 -0.1735
11814TIP3    H256934   2.652   3.237   1.981  0.8388  0.3412  0.9547
11815TIP3   OH256935   2.144   1.890   2.297 -0.3775  0.2351  0.4073
11815TIP3    H156936   2.132   1.827   2.369 -0.1977  0.4203  0.6005
11815TIP3    H256937   2.184   1.966   2.339 -3.7951  1.9326  0.9047
11816TIP3   OH256938   1.801   6.174   2.723  0.1441 -0.2062 -0.1034
11816TIP3    H156939   1.721   6.132   2.693 -0.1343  0.5940 -0.5224
11816TIP3    H256940   1.844   6.108   2.777 -0.8810 -0.5933  0.2733
11817TIP3   OH256941   2.228   5.564   3.949 -0.0822  0.2263 -0.6274
11817TIP3    H156942   2.314   5.584   3.986  0.9225 -1.1091 -2.1024
11817TIP3    H256943   2.176   5.643   3.965  0.9798  0.5727  1.4695
11818TIP3   OH256944   2.394   5.214  12.727  0.9452 -0.5324  0.3224
11818TIP3    H156945   2.383   5.251  12.814  0.2099  0.9534 -0.3533
11818TIP3    H256946   2.313   5.167  12.710  1.1152 -0.8768  0.4702
11819TIP3   OH256947   5.914   4.222  11.337  0.2342  0.2115  0.4815
11819TIP3    H156948   5.984   4.189  11.281 -0.3448 -0.0649 -0.0798
11819TIP3    H256949   5.847   4.154  11.335 -0.1720  0.6007  0.7937
11820TIP3   OH256950   2.104   5.118  16.888  0.5169 -0.3458  0.1320
11820TIP3    H156951   2.187   5.133  16.935 -0.8853  0.5549  2.4831
11820TIP3    H256952   2.048   5.191  16.915 -0.2764  0.6067 -3.5115
11821TIP3   OH256953   2.036   1.647  11.767  0.2545 -0.4026  0.2626
11821TIP3    H156954   2.028   1.733  11.808 -0.8103 -0.4406  0.1716
11821TIP3    H256955   2.130   1.631  11.762  0.4457  0.4580  0.8967
11822TIP3   OH256956   0.552   5.206   6.231  0.1305 -0.2444 -0.1783
11822TIP3    H156957   0.503   5.125   6.240  0.7229 -0.8791 -2.1435
11822TIP3    H256958   0.486   5.274   6.221 -0.3598 -0.5001  1.0947
11823TIP3   OH256959   5.251   4.241  17.075 -0.6892 -0.2983  0.2507
11823TIP3    H156960   5.159   4.229  17.101 -1.5505 -0.1215 -2.4047
11823TIP3    H256961   5.299   4.243  17.157 -2.8522 -2.0651  1.6811
11824TIP3   OH256962   2.306   3.812   5.146 -0.4014  0.1389  0.1212
11824TIP3    H156963   2.263   3.737   5.104 -1.0390  1.1710 -1.1647
11824TIP3    H256964   2.272   3.813   5.235 -1.2559 -0.4543 -0.1853
11825TIP3   OH256965   1.832   0.801  12.502 -0.2946  0.5272  0.3530
11825TIP3    H156966   1.885   0.798  12.581 -1.6587  0.1842  1.2819
11825TIP3    H256967   1.747   0.835  12.530 -0.5537  1.1639 -1.1167
11826TIP3   OH256968   4.058   1.550  12.373 -0.1340 -0.0085 -0.4526
11826TIP3    H156969   4.102   1.541  12.289 -1.2186  0.7171 -1.1153
11826TIP3    H256970   3.995   1.478  12.375 -0.9220  0.6595 -0.7879
11827TIP3   OH256971   1.999   0.056   3.156  0.0328 -0.0449  0.0349
11827TIP3    H156972   2.073   0.035   3.213  2.0648  0.9840 -2.0880
11827TIP3    H256973   1.986   0.150   3.167  1.0299  0.3420 -1.7756
11828TIP3   OH256974   3.158   6.471   0.606 -0.0243 -0.0863  0.2830
11828TIP3    H156975   3.234   6.481   0.549  0.3021 -0.1781  0.6959
11828TIP3    H256976   3.135   6.379   0.599 -1.6823  0.4265 -1.8202
11829TIP3   OH256977   1.513   4.640  12.643 -0.8608 -0.1132 -0.1041
11829TIP3    H156978   1.482   4.690  12.568  0.8558  0.7020 -0.3214
11829TIP3    H256979   1.457   4.667  12.716 -0.2457  1.8551 -0.3125
11830TIP3   OH256980   5.768   6.278   0.869 -0.6280 -0.2894  0.9298
11830TIP3    H156981   5.804   6.364   0.891 -0.6830  0.1156 -0.4223
11830TIP3    H256982   5.814   6.217   0.926 -0.1799  0.5829  1.5219
11831TIP3   OH256983   0.971   5.118   3.867 -0.1246  0.6973  0.0496
11831TIP3    H156984   0.961   5.112   3.962  2.3072 -0.7405  0.3135
11831TIP3    H256985   0.899   5.174   3.839 -2.2350 -0.5624  2.4624
11832TIP3   OH256986   0.109   3.181  16.127  0.3095 -0.7668  0.4031
11832TIP3    H156987   0.100   3.095  16.166  0.7767 -0.8316  0.3789
11832TIP3    H256988   0.129   3.164  16.035  1.7493 -0.6720  0.6751
11833TIP3   OH256989   5.660   6.824   1.718  0.4328 -0.3171 -0.0298
11833TIP3    H156990   5.643   6.744   1.767  0.0504 -1.1016 -1.4101
11833TIP3    H256991   5.754   6.821   1.700  0.2427 -0.9829 -0.9590
11834TIP3   OH256992   0.400   0.971  12.495  0.3039 -0.4238 -0.7717
11834TIP3    H156993   0.337   0.990  12.425 -0.2207 -0.0678 -0.2163
11834TIP3    H256994   0.346   0.953  12.572  0.8770 -0.3884 -0.3496
11835TIP3   OH256995   0.954   1.270   2.127  0.0763  0.5104 -0.3476
11835TIP3    H156996   1.030   1.214   2.112 -0.7191 -0.7716  0.2630
11835TIP3    H256997   0.902   1.223   2.192  0.0054  2.5739  1.1930
11836TIP3   OH256998   3.837   4.302  13.933  0.3869 -0.1461  0.4226
11836TIP3    H156999   3.902   4.258  13.879 -1.5242 -0.9701 -1.3494
11836TIP3    H257000   3.840   4.256  14.017  1.4019 -0.7897  0.0532
11837TIP3   OH257001   5.399   4.197   0.556 -0.2051 -0.0384 -0.5390
11837TIP3    H157002   5.470   4.138   0.582 -1.6914 -2.0840 -0.8499
11837TIP3    H257003   5.389   4.181   0.462 -1.1497  0.1075 -0.4717
11838TIP3   OH257004   3.447   2.592  11.313  0.1452  0.0669  0.4222
11838TIP3    H157005   3.526   2.549  11.347  0.1549  1.4804  2.3227
11838TIP3    H257006   3.479   2.675  11.277 -0.3974  0.4327  0.7680
11839TIP3   OH257007   0.887   4.778  16.729  0.2813 -0.1032  0.2669
11839TIP3    H157008   0.945   4.713  16.770  0.2429  0.3823  1.1195
11839TIP3    H257009   0.895   4.761  16.635  0.0751 -1.4995  0.4825
11840TIP3   OH257010   3.188   0.404  14.294 -0.3599  0.1629 -0.2580
11840TIP3    H157011   3.138   0.440  14.367 -2.1274  1.5572 -2.0593
11840TIP3    H257012   3.278   0.430  14.312 -0.1915 -2.0057  2.8349
11841TIP3   OH257013   1.420   2.130  15.256  0.4707  0.0552  0.3848
11841TIP3    H157014   1.403   2.062  15.321 -0.8720 -0.9842 -0.9781
11841TIP3    H257015   1.343   2.187  15.259 -0.2406 -0.7577 -1.1389
11842TIP3   OH257016   6.036   2.553  11.142 -0.6003  0.4143  0.1631
11842TIP3    H157017   6.063   2.568  11.052  0.2981  1.2154  0.5513
11842TIP3    H257018   5.984   2.473  11.138  1.8782 -1.2647 -0.6302
11843TIP3   OH257019   0.997   2.408  14.194 -0.1014  0.0131 -0.6441
11843TIP3    H157020   0.909   2.435  14.223  0.1792  0.1549  0.0878
11843TIP3    H257021   0.987   2.393  14.100 -0.5472  1.5378 -0.8688
11844TIP3   OH257022   3.349   4.945   5.072  0.2440  0.2975 -0.2807
11844TIP3    H157023   3.336   4.887   5.147  0.4848 -1.3333 -1.4279
11844TIP3    H257024   3.387   5.024   5.108 -1.7956  0.4974  1.6099
11845TIP3   OH257025   3.499   2.915  12.822 -0.1146 -0.1944  0.0675
11845TIP3    H157026   3.498   2.878  12.910 -0.0419 -0.6295 -0.1096
11845TIP3    H257027   3.426   2.872  12.777 -2.3283  2.4346  0.8577
11846TIP3   OH257028   6.022   0.068  12.646  0.5710 -0.0624 -0.0741
11846TIP3    H157029   6.111   0.040  12.667  0.8200  1.8067  1.8002
11846TIP3    H257030   5.982   0.083  12.732 -1.7418 -1.3193 -0.8652
11847TIP3   OH257031   5.704   2.053   4.728 -0.0444 -0.0776 -0.2104
11847TIP3    H157032   5.640   2.101   4.676 -0.0856 -0.0131 -0.1002
11847TIP3    H257033   5.651   1.996   4.784  0.0157 -0.6141 -0.6907
11848TIP3   OH257034   4.956   3.796   0.215 -0.5478 -0.7393  0.2744
11848TIP3    H157035   5.009   3.821   0.139 -0.7814  1.2760  0.7198
11848TIP3    H257036   4.874   3.844   0.204 -0.2627  0.2982  2.1847
11849TIP3   OH257037   4.447   2.917  13.419 -0.1901  0.5834 -0.1668
11849TIP3    H157038   4.461   3.008  13.446  0.6967 -0.0855  1.8163
11849TIP3    H257039   4.533   2.876  13.427 -0.8749 -0.7900  0.5119
11850TIP3   OH257040   5.066   1.802  15.182  0.1622  0.6517  0.4170
11850TIP3    H157041   4.981   1.792  15.223  1.1382  1.2477  2.7596
11850TIP3    H257042   5.047   1.835  15.094 -2.0119  0.0162  0.5968
11851TIP3   OH257043   5.525   0.305  16.608 -0.4277  0.1235  0.6201
11851TIP3    H157044   5.457   0.330  16.545 -0.5239  0.9687  1.0452
11851TIP3    H257045   5.597   0.365  16.590 -0.3912  0.2526  1.1924
11852TIP3   OH257046   5.338   2.614  15.978 -0.3088  0.0670  0.6798
11852TIP3    H157047   5.313   2.651  15.893  0.6455 -1.8027 -0.5003
11852TIP3    H257048   5.434   2.617  15.977 -0.1998 -1.9990  0.6638
11853TIP3   OH257049   3.555   3.638   1.572  0.6939 -0.0832 -0.0155
11853TIP3    H157050   3.621   3.639   1.503 -0.2496 -1.6577 -1.0047
11853TIP3    H257051   3.576   3.560   1.624  0.2705  0.0302  0.3360
11854TIP3   OH257052   3.794   0.683   4.247  0.2853  0.1603 -0.0415
11854TIP3    H157053   3.808   0.589   4.260 -0.5879  0.0317  0.0202
11854TIP3    H257054   3.854   0.725   4.309  0.2304 -0.3708  0.3817
11855TIP3   OH257055   6.429   1.835   0.577  0.0052  0.5098  0.0787
11855TIP3    H157056   6.381   1.918   0.581 -0.2453  0.3175  1.5101
11855TIP3    H257057   6.374   1.773   0.625  0.9748 -0.0710  0.4789
11856TIP3   OH257058   6.427   0.346  12.759 -0.8786  0.2673  0.2795
11856TIP3    H157059   6.466   0.324  12.675  0.2284 -0.5121  0.9751
11856TIP3    H257060   6.387   0.264  12.789  1.1516 -0.2695  1.7602
11857TIP3   OH257061   3.095   6.214   0.618  0.2171 -0.0519  0.4322
11857TIP3    H157062   3.136   6.146   0.671  1.9954  0.5336 -0.1457
11857TIP3    H257063   3.087   6.175   0.531  1.7424  0.6392 -0.0366
11858TIP3   OH257064   0.564   6.216  12.254 -0.0294  0.6054  0.3086
11858TIP3    H157065   0.542   6.265  12.175 -0.0359 -1.5368 -1.0991
11858TIP3    H257066   0.648   6.176  12.235 -0.8659 -1.4263  0.5955
11859TIP3   OH257067   2.857   0.225   5.007  0.1805 -0.2854  0.0901
11859TIP3    H157068   2.801   0.179   5.070 -1.6906  1.1820 -0.3848
11859TIP3    H257069   2.929   0.260   5.060  2.1758 -4.2005  0.3596
11860TIP3   OH257070   2.758   6.636   5.617 -0.4167 -0.2839 -0.4907
11860TIP3    H157071   2.672   6.597   5.634 -0.1914 -0.1892  0.9713
11860TIP3    H257072   2.790   6.663   5.703  1.7205 -1.6225 -0.7761
11861TIP3   OH257073   1.375   6.645  11.512  0.0311 -0.3487 -0.1114
11861TIP3    H157074   1.405   6.670  11.599 -1.7018  1.9748 -0.0816
11861TIP3    H257075   1.455   6.630  11.462  1.1418  1.2054  1.1018
11862TIP3   OH257076   2.715   0.681   2.352  1.0529 -0.1531 -0.5152
11862TIP3    H157077   2.636   0.629   2.369  1.3285 -0.5826 -0.5525
11862TIP3    H257078   2.692   0.735   2.277  1.0227 -0.7619 -0.9488
11863TIP3   OH257079   3.536   4.111   3.206 -0.0677 -0.4557  0.3493
11863TIP3    H157080   3.562   4.112   3.298  0.9342 -0.1580  0.0757
11863TIP3    H257081   3.619   4.111   3.157 -0.5826 -0.7865 -0.5513
11864TIP3   OH257082   3.993   1.865  11.872  0.0696  0.2788  0.6045
11864TIP3    H157083   3.945   1.788  11.843  2.2460 -1.5974  1.6331
11864TIP3    H257084   3.957   1.885  11.959 -1.1642  1.0602 -0.0734
11865TIP3   OH257085   2.578   1.165   2.740 -0.1042 -0.0450 -0.5165
11865TIP3    H157086   2.667   1.170   2.773 -0.6429  1.7119  0.8746
11865TIP3    H257087   2.535   1.242   2.777 -2.1583 -0.7603 -1.2679
11866TIP3   OH257088   2.251   3.052  12.525 -0.0358 -0.6275  0.3219
11866TIP3    H157089   2.334   3.012  12.500  0.6367  0.6584  0.3905
11866TIP3    H257090   2.268   3.146  12.520 -1.4987 -0.3383  0.3169
11867TIP3   OH257091   5.620   5.356  15.594 -0.3389  0.4941 -0.3553
11867TIP3    H157092   5.684   5.420  15.562  2.4702 -0.4482  2.7104
11867TIP3    H257093   5.661   5.271  15.577 -1.3945 -0.2045  0.4736
11868TIP3   OH257094   2.411   4.942  11.001 -0.1137 -0.0508  0.3935
11868TIP3    H157095   2.396   5.016  10.941  0.9493  0.1759  0.3715
11868TIP3    H257096   2.490   4.900  10.966 -1.4485 -2.0427 -0.3886
11869TIP3   OH257097   5.663   0.688  12.457  0.1792 -0.2609 -0.1600
11869TIP3    H157098   5.665   0.717  12.549 -0.3137 -0.2303 -0.1535
11869TIP3    H257099   5.597   0.619  12.456  1.3043 -1.3789 -0.1834
11870TIP3   OH257100   1.160   6.623   2.130 -0.1186  0.2008  0.1460
11870TIP3    H157101   1.235   6.575   2.096  0.1285  0.9263 -0.3610
11870TIP3    H257102   1.116   6.562   2.188  1.7012  0.2403  1.6339
11871TIP3   OH257103   5.910   0.069  14.111  0.1711  0.2860  0.1336
11871TIP3    H157104   5.981   0.108  14.061  1.7829 -0.3879  1.8048
11871TIP3    H257105   5.879   0.138  14.169 -0.3146  0.4646 -0.3240
11872TIP3   OH257106   0.249   1.915  15.841  0.1867 -0.1620  0.5433
11872TIP3    H157107   0.202   1.835  15.867  0.9323 -0.9600 -0.4568
11872TIP3    H257108   0.249   1.912  15.745  1.1350  0.4954  0.5092
11873TIP3   OH257109   5.701   3.386   5.130  0.0173 -0.1586  0.5276
11873TIP3    H157110   5.774   3.355   5.077 -0.0130 -0.3329  0.5871
11873TIP3    H257111   5.680   3.473   5.095  0.3931 -0.0165  0.6536
11874TIP3   OH257112   1.271   2.365  15.949 -0.8922 -0.0392  0.6580
11874TIP3    H157113   1.226   2.306  16.009 -1.7976  0.6654  0.6859
11874TIP3    H257114   1.202   2.417  15.909 -0.9175 -2.8738 -3.8209
11875TIP3   OH257115   2.619   4.561  16.257 -0.3962 -0.3842 -0.6005
11875TIP3    H157116   2.571   4.571  16.174 -0.4182  1.2222 -0.4233
11875TIP3    H257117   2.563   4.504  16.310 -1.1201 -0.1859 -1.1368
11876TIP3   OH257118   6.123   6.731   2.769  0.1453 -0.2043  0.2823
11876TIP3    H157119   6.120   6.736   2.673 -0.5350  1.6306  0.3635
11876TIP3    H257120   6.032   6.728   2.796  0.2410  1.5949  0.9253
11877TIP3   OH257121   5.781   2.811   1.726 -0.2051 -0.3133  0.4876
11877TIP3    H157122   5.755   2.784   1.638 -0.3412 -0.5270  0.5922
11877TIP3    H257123   5.718   2.878   1.751 -0.7554 -0.9426  0.8026
11878TIP3   OH257124   1.768   0.437   4.853  0.9200  0.3071  0.1357
11878TIP3    H157125   1.806   0.509   4.803 -0.9906 -0.5917 -2.8863
11878TIP3    H257126   1.673   0.451   4.849  0.4851 -2.2580 -0.4742
11879TIP3   OH257127   2.687   6.795  13.958 -0.0692  0.2964  0.1525
11879TIP3    H157128   2.626   6.846  13.904 -0.9782 -0.3818  0.5131
11879TIP3    H257129   2.739   6.746  13.895 -0.3794  0.3475 -0.1509
11880TIP3   OH257130   2.254   5.260  11.582  0.3517  0.2999 -0.0623
11880TIP3    H157131   2.187   5.241  11.649  0.3168  0.1289 -0.1463
11880TIP3    H257132   2.240   5.194  11.514  0.1740  0.6772 -0.3961
11881TIP3   OH257133   0.011   1.232  10.677 -0.6611  0.5476 -0.3201
11881TIP3    H157134   0.016   1.302  10.611  0.4251  0.1298 -0.7108
11881TIP3    H257135   0.092   1.182  10.664 -1.1002 -0.3725  0.4151
11882TIP3   OH257136   0.982   3.396  15.880 -0.0353 -0.7809 -0.2771
11882TIP3    H157137   1.056   3.454  15.863  0.0621 -0.3732  1.3325
11882TIP3    H257138   0.998   3.319  15.825  0.2137  0.3771 -1.9056
11883TIP3   OH257139   4.390   2.693  16.033 -0.0232  0.0481 -0.0165
11883TIP3    H157140   4.453   2.736  15.974  0.6153 -1.4432 -0.4538
11883TIP3    H257141   4.416   2.723  16.120 -0.0753  1.1357 -0.3498
11884TIP3   OH257142   1.300   2.992  13.801  0.1786  0.0392  0.5079
11884TIP3    H157143   1.346   2.911  13.777 -1.9122  0.3024 -6.3792
11884TIP3    H257144   1.208   2.965  13.809 -0.0582  1.2345  2.1851
11885TIP3   OH257145   3.135   2.733   3.167  0.1647  0.1341 -0.6482
11885TIP3    H157146   3.073   2.696   3.231 -0.5036  1.6001 -0.4050
11885TIP3    H257147   3.079   2.773   3.100  0.8538  0.4219 -1.0580
11886TIP3   OH257148   5.600   3.901   4.336  0.4696  0.0683  0.2837
11886TIP3    H157149   5.572   3.990   4.316  1.1726  0.6728  1.8512
11886TIP3    H257150   5.518   3.851   4.341  0.1538  0.2758 -2.0076
11887TIP3   OH257151   5.130   0.390   6.597 -0.5054  0.1871 -0.1701
11887TIP3    H157152   5.161   0.425   6.514 -0.9553 -0.8103 -0.7785
11887TIP3    H257153   5.094   0.466   6.643 -0.5397  0.7001 -1.0168
11888TIP3   OH257154   5.596   4.311  15.256  0.3741 -0.9980  0.3783
11888TIP3    H157155   5.535   4.383  15.274 -0.1801 -1.1594 -0.7388
11888TIP3    H257156   5.678   4.355  15.233  0.4758 -0.7638  1.1427
11889TIP3   OH257157   0.248   3.877   4.346 -0.2333  0.1036 -0.3810
11889TIP3    H157158   0.227   3.968   4.323 -0.2517  0.9379  2.4853
11889TIP3    H257159   0.172   3.827   4.317 -0.3219  1.0090 -1.8297
11890TIP3   OH257160   2.270   3.861  12.253 -0.2055  0.2955 -0.3999
11890TIP3    H157161   2.358   3.826  12.244 -0.6187 -0.6441 -0.9884
11890TIP3    H257162   2.282   3.952  12.281  0.9171 -0.2109  0.8727
11891TIP3   OH257163   3.636   2.600   4.024 -0.1507  0.6374 -0.0594
11891TIP3    H157164   3.703   2.660   3.990 -0.3495  0.5563 -0.6141
11891TIP3    H257165   3.556   2.653   4.026  0.1909  1.1554  1.9389
11892TIP3   OH257166   0.960   4.381  11.541  0.0592 -0.8619  0.1287
11892TIP3    H157167   1.020   4.360  11.470  1.2093 -0.7462  1.0393
11892TIP3    H257168   1.004   4.350  11.620 -1.5486 -1.7607  0.7403
11893TIP3   OH257169   0.343   3.295   1.188 -0.1211  0.4517 -0.0096
11893TIP3    H157170   0.424   3.317   1.235 -0.7348 -0.0982  1.3491
11893TIP3    H257171   0.354   3.203   1.163 -0.6983  0.0990  0.9994
11894TIP3   OH257172   5.918   6.546   3.700  0.2694  0.5133  0.0273
11894TIP3    H157173   5.839   6.521   3.748  0.2247 -1.9887 -1.1902
11894TIP3    H257174   5.990   6.518   3.756  0.3028  1.0843  0.2865
11895TIP3   OH257175   0.645   4.107  16.339  0.0627 -0.2789 -0.5656
11895TIP3    H157176   0.677   4.040  16.279  1.6683 -0.1569  0.1166
11895TIP3    H257177   0.712   4.175  16.338  1.0448 -1.0258  2.5909
11896TIP3   OH257178   6.234   4.892  16.729 -0.5742  0.1955  0.5205
11896TIP3    H157179   6.318   4.917  16.691 -0.9182  1.2893  0.4528
11896TIP3    H257180   6.186   4.974  16.736  0.0066  0.3862  4.7828
11897TIP3   OH257181   5.904   4.892   5.222 -0.1606  0.3566 -0.3035
11897TIP3    H157182   5.988   4.850   5.237  0.2260  1.1354 -0.2728
11897TIP3    H257183   5.876   4.923   5.308 -0.3600  0.3175 -0.3527
11898TIP3   OH257184   0.194   2.776  13.599  0.7426 -0.1337  1.1351
11898TIP3    H157185   0.153   2.860  13.620  1.2469  0.0611  1.3577
11898TIP3    H257186   0.271   2.799  13.548  0.1336 -0.5463  0.0046
11899TIP3   OH257187   3.802   1.750  14.940  0.1155  0.2963  0.0969
11899TIP3    H157188   3.738   1.689  14.977 -1.4819  2.0558  0.3592
11899TIP3    H257189   3.834   1.800  15.014  0.8489  0.3208 -0.2216
11900TIP3   OH257190   0.854   6.180   0.214 -0.5949  0.3535 -0.6383
11900TIP3    H157191   0.882   6.268   0.240  1.2119 -0.3144 -0.2061
11900TIP3    H257192   0.931   6.142   0.172 -1.9499 -0.3676 -2.5935
11901TIP3   OH257193   3.607   6.075   3.906 -0.0880 -0.4054  0.0627
11901TIP3    H157194   3.565   6.105   3.986 -1.5325  1.8721 -1.4291
11901TIP3    H257195   3.686   6.128   3.899 -0.1976 -0.2743 -0.2173
11902TIP3   OH257196   5.765   4.025  16.994 -0.1377 -0.2290  0.0943
11902TIP3    H157197   5.747   4.113  16.961 -0.8012 -0.0236  0.9668
11902TIP3    H257198   5.783   3.974  16.915 -2.1708  0.1165 -0.6761
11903TIP3   OH257199   5.057   2.068   1.672  0.1225 -0.4478  0.7905
11903TIP3    H157200   5.041   2.093   1.581  0.8906  0.2182  0.8245
11903TIP3    H257201   4.973   2.034   1.703 -0.7204  1.2109  0.4328
11904TIP3   OH257202   1.443   1.805  11.691  0.6661  0.0731  0.2069
11904TIP3    H157203   1.481   1.875  11.638 -0.6214  0.0484 -0.8104
11904TIP3    H257204   1.435   1.731  11.631 -0.0750 -0.2261  0.6627
11905TIP3   OH257205   3.297   3.940  10.624 -0.0074  0.5498  0.0184
11905TIP3    H157206   3.259   3.914  10.541 -0.0557 -1.9785  0.7372
11905TIP3    H257207   3.372   3.995  10.600  0.0898 -0.2738 -1.6961
11906TIP3   OH257208   4.790   6.262  11.716 -0.0569  0.5971 -0.0680
11906TIP3    H157209   4.727   6.229  11.652  0.5087 -1.0489  0.1727
11906TIP3    H257210   4.752   6.240  11.801 -0.4692  2.1452  0.1809
11907TIP3   OH257211   1.607   4.838   1.688 -0.5438 -0.3081 -0.2837
11907TIP3    H157212   1.590   4.751   1.724  0.5406 -0.6312 -0.5022
11907TIP3    H257213   1.601   4.826   1.593  1.1688 -0.5456 -0.4033
11908TIP3   OH257214   1.159   4.189  12.412 -0.3536  0.1378 -0.0792
11908TIP3    H157215   1.163   4.279  12.444  0.2298  0.2221 -0.3693
11908TIP3    H257216   1.112   4.196  12.328 -1.0199  0.0547  0.2851
11909TIP3   OH257217   1.379   3.812  15.887 -0.0638 -0.3524 -0.4125
11909TIP3    H157218   1.460   3.835  15.841  0.1710 -0.4149 -0.0337
11909TIP3    H257219   1.335   3.896  15.901 -0.5781 -0.4115 -1.5503
11910TIP3   OH257220   4.331   4.806  14.829  0.5712 -0.3195 -0.3636
11910TIP3    H157221   4.341   4.813  14.924  0.6306  1.5229 -0.4762
11910TIP3    H257222   4.408   4.756  14.801  2.1286  1.6072  0.2760
11911TIP3   OH257223   6.202   0.801  14.561 -0.1702 -0.0446  0.8973
11911TIP3    H157224   6.162   0.878  14.522 -0.8738 -0.3859  0.9295
11911TIP3    H257225   6.214   0.741  14.487  2.6280  0.9713  0.3929
11912TIP3   OH257226   2.047   3.783  13.335 -0.0496 -0.5959 -0.8166
11912TIP3    H157227   2.047   3.688  13.350  0.6552 -0.4673  0.0974
11912TIP3    H257228   1.974   3.815  13.389 -0.0037 -0.5652 -0.7735
11913TIP3   OH257229   0.593   3.135   3.396 -0.7240  0.2150 -0.3917
11913TIP3    H157230   0.627   3.073   3.332 -0.4529  0.8148 -0.8396
11913TIP3    H257231   0.645   3.120   3.475 -0.2782  0.2496 -0.6748
11914TIP3   OH257232   1.656   6.217   0.425 -0.8381 -0.4380 -0.0966
11914TIP3    H157233   1.568   6.222   0.387 -0.0568  3.1474 -1.8560
11914TIP3    H257234   1.645   6.250   0.514 -1.1025  2.0269 -0.9575
11915TIP3   OH257235   4.812   3.035   0.654  0.4238 -0.1044  0.6894
11915TIP3    H157236   4.887   3.086   0.686  1.4951 -1.0337 -0.2150
11915TIP3    H257237   4.742   3.054   0.715  0.8558  2.2081  0.5598
11916TIP3   OH257238   0.931   5.831   1.551 -0.1970  0.2691 -0.4524
11916TIP3    H157239   0.874   5.833   1.627  0.2623  0.9676 -0.1195
11916TIP3    H257240   0.906   5.751   1.504  0.6905 -1.1127  1.3395
11917TIP3   OH257241   0.095   4.016   0.310  0.5137 -0.4629  0.4527
11917TIP3    H157242   0.167   3.954   0.313  1.2030  0.2870 -0.0907
11917TIP3    H257243   0.137   4.101   0.327 -0.1016  0.0868 -0.7155
11918TIP3   OH257244   4.872   0.480   2.121  0.5334  0.3072 -0.5349
11918TIP3    H157245   4.946   0.534   2.092  2.7064 -0.7610  2.4068
11918TIP3    H257246   4.824   0.536   2.181 -0.3855  0.6130 -1.5347
11919TIP3   OH257247   4.924   3.684  14.473 -0.2202 -0.2439 -0.3668
11919TIP3    H157248   4.972   3.764  14.493  0.4705 -0.4073 -1.2915
11919TIP3    H257249   4.924   3.635  14.556  0.5779  0.0890 -0.1600
11920TIP3   OH257250   3.863   4.037  16.643  0.1929  0.4209  0.1670
11920TIP3    H157251   3.916   3.969  16.603  3.2040  1.6013  1.8366
11920TIP3    H257252   3.911   4.118  16.628 -2.2330  1.9626  0.0220
11921TIP3   OH257253   2.280   4.187  13.800 -0.2082 -0.4187 -0.3110
11921TIP3    H157254   2.239   4.178  13.714 -0.3514  0.5432 -0.3612
11921TIP3    H257255   2.347   4.255  13.787 -2.1655  1.9364  0.9604
11922TIP3   OH257256   4.221   3.314  13.444 -0.1617  0.0026 -0.4734
11922TIP3    H157257   4.210   3.403  13.477  1.0345  0.2746 -0.7901
11922TIP3    H257258   4.284   3.274  13.503  0.0211 -0.3349 -0.8983
11923TIP3   OH257259   2.761   6.271  14.975  0.1790  0.5407  0.5329
11923TIP3    H157260   2.671   6.304  14.981 -0.3655 -0.4396 -1.3508
11923TIP3    H257261   2.787   6.289  14.884  0.7633 -1.7886  0.1707
11924TIP3   OH257262   3.652   1.257  13.696  0.0635  0.1188  0.4424
11924TIP3    H157263   3.618   1.298  13.776  1.8104  1.5361  0.5075
11924TIP3    H257264   3.741   1.231  13.718 -0.1105 -1.3470 -0.4530
11925TIP3   OH257265   2.101   4.831   5.647 -0.4395 -0.1170 -0.9484
11925TIP3    H157266   2.154   4.764   5.691  0.7973  0.5401 -1.3731
11925TIP3    H257267   2.042   4.863   5.715 -0.0934 -0.6762 -0.3719
11926TIP3   OH257268   5.449   2.539   0.659 -0.1676  0.0180  0.3744
11926TIP3    H157269   5.518   2.605   0.646  0.8291 -1.3339 -1.8527
11926TIP3    H257270   5.496   2.460   0.686 -1.2034 -0.1688  1.7205
11927TIP3   OH257271   4.273   6.590   0.622  0.2965  0.0254 -0.5389
11927TIP3    H157272   4.204   6.647   0.587  0.4645 -0.2372 -1.3291
11927TIP3    H257273   4.305   6.542   0.545 -0.5273 -1.8780  0.2228
11928TIP3   OH257274   0.380   3.382   1.691 -0.1434 -0.6050  0.0281
11928TIP3    H157275   0.468   3.347   1.679 -0.0604 -0.4172  0.0850
11928TIP3    H257276   0.382   3.468   1.648  0.1892  0.1251  1.4365
11929TIP3   OH257277   5.521   6.431  16.784 -0.0231 -0.3170 -0.1352
11929TIP3    H157278   5.575   6.508  16.797  0.3446 -0.4476 -0.8483
11929TIP3    H257279   5.532   6.379  16.864  0.6576 -0.1926 -0.1463
11930TIP3   OH257280   2.713   4.983   3.007  0.2571 -0.4885  0.2184
11930TIP3    H157281   2.716   4.952   2.917  2.6136 -1.4927  0.5781
11930TIP3    H257282   2.803   4.979   3.037 -0.4778 -0.3021  2.6720
11931TIP3   OH257283   1.210   4.605  17.057  0.3069 -0.0209 -0.0798
11931TIP3    H157284   1.118   4.580  17.046  0.5374 -0.9054 -0.1168
11931TIP3    H257285   1.243   4.546  17.124  0.9338  0.0606 -0.3075
11932TIP3   OH257286   6.372   2.662   3.199 -0.4733 -0.8006  0.2791
11932TIP3    H157287   6.438   2.691   3.136 -1.4550  0.8437 -0.0463
11932TIP3    H257288   6.364   2.735   3.260 -0.3239 -1.9387  1.7109
11933TIP3   OH257289   2.657   6.149  10.363 -0.1458 -0.2610 -0.3887
11933TIP3    H157290   2.588   6.202  10.323 -0.2069 -0.7979 -1.0064
11933TIP3    H257291   2.681   6.086  10.296 -0.8961 -1.7954  0.7140
11934TIP3   OH257292   3.134   3.191   5.055 -0.0592 -0.4447  0.1727
11934TIP3    H157293   3.080   3.222   4.982 -0.3627 -2.0949 -0.3384
11934TIP3    H257294   3.142   3.268   5.112 -2.3707  0.0581 -0.0690
11935TIP3   OH257295   2.207   3.107  12.893  0.5428 -0.5174 -0.0150
11935TIP3    H157296   2.292   3.078  12.861  0.4179 -1.0517  0.1239
11935TIP3    H257297   2.159   3.026  12.910  0.6553 -0.2809  1.6651
11936TIP3   OH257298   6.566   0.808  14.301  0.3483 -0.3042  0.4011
11936TIP3    H157299   6.501   0.878  14.308 -0.0382 -0.5237 -0.6886
11936TIP3    H257300   6.603   0.819  14.213  3.7837  1.4948  1.8575
11937TIP3   OH257301   6.519   2.391   3.686  0.4785 -0.5231  0.0085
11937TIP3    H157302   6.475   2.339   3.619  1.1777  0.1187 -0.9720
11937TIP3    H257303   6.449   2.439   3.729  0.0836 -0.4340 -0.7225
11938TIP3   OH257304   4.123   5.140  13.627 -0.0713 -0.2715 -0.2188
11938TIP3    H157305   4.055   5.197  13.593 -0.0901 -0.2313 -0.1142
11938TIP3    H257306   4.203   5.169  13.584 -0.4520 -1.8026 -2.1514
11939TIP3   OH257307   3.854   2.317   3.504 -0.0034  0.0844  0.4263
11939TIP3    H157308   3.880   2.228   3.479  0.5589  0.8141 -1.8941
11939TIP3    H257309   3.759   2.317   3.493 -0.1701 -0.5807  1.7552
11940TIP3   OH257310   0.304   1.039   2.206  0.7325 -0.0455 -0.0163
11940TIP3    H157311   0.209   1.035   2.194  0.6185  0.5111  0.6112
11940TIP3    H257312   0.315   1.045   2.301  1.4003 -0.2677 -0.0822
11941TIP3   OH257313   6.051   1.206   2.825 -0.4640  0.2076 -0.3487
11941TIP3    H157314   6.010   1.150   2.759  0.4415  1.3324 -1.9509
11941TIP3    H257315   5.977   1.251   2.867 -1.1002 -1.0295 -0.1151
11942TIP3   OH257316   3.340   3.086  14.641 -0.2522 -0.5606 -0.3436
11942TIP3    H157317   3.258   3.109  14.596 -0.0392  0.1898 -0.3638
11942TIP3    H257318   3.312   3.042  14.721 -0.7653  1.3322  0.5846
11943TIP3   OH257319   1.094   3.225  13.870 -0.0928 -0.1173 -0.0543
11943TIP3    H157320   1.047   3.235  13.953 -0.1189 -1.7819  0.1630
11943TIP3    H257321   1.072   3.137  13.840 -0.5732  0.6523 -2.1638
11944TIP3   OH257322   2.126   0.234   2.679 -0.4034  0.1012 -0.0223
11944TIP3    H157323   2.119   0.221   2.584  0.0087 -0.6390  0.0453
11944TIP3    H257324   2.100   0.150   2.717  2.2393 -0.5906  0.4275
11945TIP3   OH257325   6.477   1.355  14.744 -0.3428  0.1365  0.5063
11945TIP3    H157326   6.454   1.448  14.747 -0.4446  0.2609 -1.7728
11945TIP3    H257327   6.398   1.309  14.771 -0.2302  0.7019  1.8414
11946TIP3   OH257328   2.740   0.510   5.701 -0.0838  0.2965  0.1744
11946TIP3    H157329   2.798   0.514   5.777 -0.5962 -1.5360  0.7046
11946TIP3    H257330   2.657   0.547   5.731 -0.6389 -1.4606  0.8897
11947TIP3   OH257331   1.809   1.453  15.813 -0.5874 -0.4523 -0.2335
11947TIP3    H157332   1.897   1.448  15.775 -0.0101 -0.8554  1.0903
11947TIP3    H257333   1.807   1.538  15.856 -1.1616 -0.0838 -0.9777
11948TIP3   OH257334   4.083   1.344  13.961  0.0159  1.2508 -0.1317
11948TIP3    H157335   4.140   1.335  14.038 -0.2299  0.8378  0.0084
11948TIP3    H257336   4.143   1.344  13.887  0.1765  0.2616 -0.0216
11949TIP3   OH257337   3.092   5.970   0.133 -0.0799  0.1961  0.1322
11949TIP3    H157338   3.140   5.887   0.130 -0.7723 -0.2589  1.2056
11949TIP3    H257339   3.082   5.995   0.041  1.7362  0.0380 -0.1361
11950TIP3   OH257340   0.329   1.661  16.433  0.0438  0.1722 -0.4072
11950TIP3    H157341   0.330   1.672  16.338  1.3997  0.7501 -0.3432
11950TIP3    H257342   0.416   1.627  16.454  0.5294  2.0629  0.8479
11951TIP3   OH257343   3.042   1.720  14.610  0.1791  0.2102 -0.1198
11951TIP3    H157344   3.003   1.648  14.659 -0.6419 -1.6374 -3.2772
11951TIP3    H257345   2.974   1.749  14.550  1.7523  0.9652 -1.6390
11952TIP3   OH257346   1.383   1.422   3.163  0.6309 -0.3992 -0.6014
11952TIP3    H157347   1.429   1.449   3.083  2.0841 -1.9773 -0.3389
11952TIP3    H257348   1.453   1.401   3.225 -0.4718 -1.1430  0.4198
11953TIP3   OH257349   1.367   2.343  13.229  0.8201  0.1642  0.9307
11953TIP3    H157350   1.393   2.326  13.320  0.4438 -0.5372  0.9088
11953TIP3    H257351   1.326   2.262  13.200 -1.8849  1.3590  1.1186
11954TIP3   OH257352   5.855   1.124   4.837 -0.3443 -0.4808  0.0298
11954TIP3    H157353   5.777   1.078   4.806 -0.2755  0.8078 -2.2457
11954TIP3    H257354   5.926   1.060   4.827 -0.2639 -0.0500 -2.9736
11955TIP3   OH257355   4.572   0.031  13.534  0.2375 -0.3652  0.0548
11955TIP3    H157356   4.659   0.049  13.569  0.4039 -0.3741 -0.3425
11955TIP3    H257357   4.571   0.073  13.448 -0.9896  1.7241  1.0042
11956TIP3   OH257358   2.836   6.057  13.460 -0.0955 -0.4270 -0.3780
11956TIP3    H157359   2.868   6.097  13.541  1.4393  0.5244 -1.4109
11956TIP3    H257360   2.862   5.965  13.467  0.3595 -0.2709  0.0567
11957TIP3   OH257361   5.776   4.974   1.499 -0.6504 -0.3176 -0.5798
11957TIP3    H157362   5.822   4.930   1.570 -0.9987  0.4165  0.1173
11957TIP3    H257363   5.840   5.035   1.463 -1.9093  3.2735  2.6404
11958TIP3   OH257364   1.107   5.844   4.454  0.0352 -0.1899 -0.6549
11958TIP3    H157365   1.060   5.841   4.537 -1.9270 -1.0022 -1.7479
11958TIP3    H257366   1.123   5.937   4.439  0.0710 -0.0054  0.4177
11959TIP3   OH257367   2.587   2.409   1.850  0.4252 -0.2743  0.2426
11959TIP3    H157368   2.566   2.359   1.771 -0.8142 -0.6457  0.7808
11959TIP3    H257369   2.604   2.342   1.916 -0.8264 -0.0216  0.8618
11960TIP3   OH257370   5.461   4.939   2.627 -0.9984 -0.4078  0.0405
11960TIP3    H157371   5.476   5.033   2.642 -0.7868 -0.5425  0.7137
11960TIP3    H257372   5.442   4.933   2.533  1.2514  0.0291 -0.5068
11961TIP3   OH257373   4.498   3.639   3.869  0.0476 -1.0034  0.2761
11961TIP3    H157374   4.491   3.725   3.911  0.9193 -1.2019  0.8638
11961TIP3    H257375   4.592   3.625   3.859 -0.1183 -1.1492 -1.3987
11962TIP3   OH257376   4.575   1.726   3.552  0.6451 -0.5422 -0.0474
11962TIP3    H157377   4.546   1.776   3.629  2.1084 -0.5839  0.5685
11962TIP3    H257378   4.534   1.771   3.478 -0.8704 -0.5518  0.7378
11963TIP3   OH257379   3.719   5.388   1.877 -0.2707  0.1681  0.3048
11963TIP3    H157380   3.655   5.459   1.878  0.8633  1.3908 -2.3241
11963TIP3    H257381   3.726   5.360   1.968 -1.4715  2.8085  1.3117
11964TIP3   OH257382   3.746   0.637   3.654  0.0854  0.2515  0.3536
11964TIP3    H157383   3.676   0.650   3.591 -0.0117  1.1268  0.6319
11964TIP3    H257384   3.713   0.570   3.714 -0.9688  1.4423  1.1335
11965TIP3   OH257385   6.678   0.520   0.792 -0.2663  0.2334 -0.2234
11965TIP3    H157386   6.715   0.432   0.791  1.3658  0.8277  1.5170
11965TIP3    H257387   6.751   0.576   0.816 -1.5615  1.9138 -0.0375
11966TIP3   OH257388   2.477   2.786  15.999 -0.0822  0.2868  0.5194
11966TIP3    H157389   2.387   2.769  16.025  0.1827 -2.8305 -0.2166
11966TIP3    H257390   2.527   2.712  16.035  1.8425  0.8819 -0.7549
11967TIP3   OH257391   5.456   3.252   0.702  0.1202 -0.1052  0.0484
11967TIP3    H157392   5.418   3.221   0.784 -0.3361  0.5710  0.0997
11967TIP3    H257393   5.545   3.280   0.726  0.4349 -1.0686  0.0581
11968TIP3   OH257394   3.030   4.042   1.983 -0.0870 -0.2705 -0.0833
11968TIP3    H157395   2.974   4.095   2.040  0.6210  0.1103  0.2643
11968TIP3    H257396   2.984   4.040   1.899 -0.6842 -0.0691  0.2363
11969TIP3   OH257397   5.236   5.273   4.269 -0.2653 -0.1586 -0.5218
11969TIP3    H157398   5.266   5.281   4.179 -0.6526 -0.6496 -0.6983
11969TIP3    H257399   5.142   5.256   4.262 -0.1755 -0.9052 -0.0543
11970TIP3   OH257400   1.370   3.889   1.218  0.4997  0.6411 -0.0811
11970TIP3    H157401   1.419   3.952   1.271  0.7068  0.9997 -0.6750
11970TIP3    H257402   1.288   3.935   1.198  0.5814  0.6597 -0.3777
11971TIP3   OH257403   3.457   3.997  12.988 -0.4952 -0.3712 -0.8053
11971TIP3    H157404   3.520   3.940  13.032 -1.2215  0.8265  2.0403
11971TIP3    H257405   3.397   3.937  12.943  1.1223 -1.6186 -1.3691
11972TIP3   OH257406   3.100   0.618  14.722 -0.4191  0.0182  0.7282
11972TIP3    H157407   3.129   0.539  14.767 -1.7164  0.2159  1.9902
11972TIP3    H257408   3.121   0.689  14.783 -1.4988  0.3758  0.7034
11973TIP3   OH257409   2.843   3.691  13.182  0.8205 -0.6340 -0.0516
11973TIP3    H157410   2.929   3.712  13.145  0.8800  3.5643  1.8462
11973TIP3    H257411   2.780   3.726  13.119  0.6447 -0.3842  0.2608
11974TIP3   OH257412   4.513   1.377  14.154  0.0270 -0.0905  0.3828
11974TIP3    H157413   4.607   1.368  14.137  0.2169  1.3859  0.5091
11974TIP3    H257414   4.472   1.357  14.070  0.5943  1.2719 -0.2419
11975TIP3   OH257415   0.767   1.449  12.045 -0.6224 -0.7999  0.1065
11975TIP3    H157416   0.818   1.380  12.087 -0.6669 -0.9556 -0.0965
11975TIP3    H257417   0.762   1.518  12.111  0.2292 -0.5951 -0.0286
11976TIP3   OH257418   2.089   6.703   2.620 -0.1529 -0.0516  0.3657
11976TIP3    H157419   2.005   6.684   2.661 -0.3216 -0.8691 -0.3296
11976TIP3    H257420   2.068   6.729   2.531  0.2880  0.4569  0.4061
11977TIP3   OH257421   2.029   3.639   5.236  0.0845  0.8493  0.4526
11977TIP3    H157422   1.950   3.645   5.183 -0.0157 -0.0701  0.4837
11977TIP3    H257423   2.006   3.581   5.309  0.9001  0.1932  0.2176
11978TIP3   OH257424   6.803   5.623   2.927 -0.8057 -0.1652  0.5411
11978TIP3    H157425   6.803   5.565   2.851 -1.5189 -0.0116  0.4161
11978TIP3    H257426   6.890   5.612   2.966 -1.2331 -2.0436  1.0762
11979TIP3   OH257427   6.551   5.715  10.558 -0.5900 -0.0705 -0.0734
11979TIP3    H157428   6.531   5.642  10.617  0.9654  1.6372  2.7612
11979TIP3    H257429   6.629   5.687  10.511  0.0574 -0.2311  1.0691
11980TIP3   OH257430   6.012   2.016  14.054  0.2246 -0.3081  0.4403
11980TIP3    H157431   5.937   1.968  14.091  0.7242 -2.7207 -1.3822
11980TIP3    H257432   6.016   2.097  14.104 -1.2689 -1.7638  3.1453
11981TIP3   OH257433   3.795   3.083   5.805 -0.1537  0.3036  0.5987
11981TIP3    H157434   3.810   3.142   5.731 -1.4164  1.3725  1.1503
11981TIP3    H257435   3.704   3.055   5.795  0.0835 -0.6487  0.9951
11982TIP3   OH257436   1.957   2.045   4.149  0.3243 -0.0870  0.4229
11982TIP3    H157437   1.891   2.058   4.217  0.5998 -2.1067  1.1444
11982TIP3    H257438   1.908   2.019   4.072  0.2518 -1.9113  1.0499
11983TIP3   OH257439   5.290   5.101   2.306  0.2512 -0.1734 -0.1272
11983TIP3    H157440   5.368   5.109   2.360 -0.3838  1.0009  0.6830
11983TIP3    H257441   5.305   5.161   2.233 -0.7361  1.7431  1.1601
11984TIP3   OH257442   1.210   3.315   2.110  0.1306  0.5253  0.1130
11984TIP3    H157443   1.271   3.331   2.182  0.4194 -0.8565  0.1960
11984TIP3    H257444   1.265   3.300   2.034 -0.0090 -1.6073  0.3630
11985TIP3   OH257445   5.657   1.009  11.593  0.2967  0.4359  0.1418
11985TIP3    H157446   5.710   1.070  11.644  1.6043 -1.5007  1.2700
11985TIP3    H257447   5.595   0.973  11.656  1.3378 -1.3290  0.2449
11986TIP3   OH257448   4.151   3.340   0.907 -0.5084 -0.1289 -0.0124
11986TIP3    H157449   4.188   3.262   0.865  0.0361 -0.0664  0.3381
11986TIP3    H257450   4.135   3.313   0.998  0.4286  0.3898  0.3219
11987TIP3   OH257451   5.447   4.525  15.304 -0.3154 -0.1518  0.2424
11987TIP3    H157452   5.485   4.578  15.234 -1.7390 -0.6194 -0.9426
11987TIP3    H257453   5.453   4.581  15.382  1.1226  0.4567 -0.2775
11988TIP3   OH257454   6.316   3.043  11.832  0.2846  0.0295 -0.1531
11988TIP3    H157455   6.338   3.136  11.839  1.7101 -0.3651  0.9810
11988TIP3    H257456   6.400   2.998  11.830 -0.3458 -1.2001 -2.0190
11989TIP3   OH257457   2.149   4.638  14.269  0.4352 -0.0676 -0.2259
11989TIP3    H157458   2.108   4.684  14.342  0.2983 -0.3855 -0.0965
11989TIP3    H257459   2.077   4.589  14.229  0.3234  0.8074 -1.1357
11990TIP3   OH257460   1.089   3.771  12.460  0.3685  0.3868  0.7510
11990TIP3    H157461   1.085   3.840  12.526  0.3838 -0.6574  1.8571
11990TIP3    H257462   1.007   3.779  12.412  0.1361  0.8173  1.2178
11991TIP3   OH257463   2.242   4.098   5.127  0.6350  0.0214 -0.0595
11991TIP3    H157464   2.194   4.017   5.145 -0.5518  0.5531 -0.7432
11991TIP3    H257465   2.218   4.121   5.037  0.7080  1.3007  0.2326
11992TIP3   OH257466   3.385   6.533   0.404  0.4009 -0.2250 -0.0839
11992TIP3    H157467   3.344   6.608   0.361  0.0041  0.2932  1.1510
11992TIP3    H257468   3.477   6.558   0.414  0.9427 -1.0942 -2.2044
11993TIP3   OH257469   5.836   3.658  15.731  0.9590  0.2072  0.0685
11993TIP3    H157470   5.777   3.692  15.664  1.2271  0.2149 -0.1680
11993TIP3    H257471   5.913   3.715  15.726  2.3412 -1.6845 -1.7999
11994TIP3   OH257472   2.148   5.323   4.068 -0.2789 -0.0741 -0.9756
11994TIP3    H157473   2.169   5.399   4.014 -0.0414 -0.8693 -2.0319
11994TIP3    H257474   2.231   5.296   4.106 -0.6447  1.3147  0.9730
11995TIP3   OH257475   1.999   6.435  17.021  0.3917 -0.5260  0.2376
11995TIP3    H157476   2.011   6.498  16.949  0.3991  1.8396  2.1760
11995TIP3    H257477   2.067   6.458  17.084  1.0360 -3.2095  0.6311
11996TIP3   OH257478   0.151   4.950  14.594 -1.2367 -0.4448 -0.0020
11996TIP3    H157479   0.184   5.039  14.607 -1.0579 -0.4088 -0.6451
11996TIP3    H257480   0.141   4.915  14.682  1.6735 -0.8801  0.2622
11997TIP3   OH257481   4.042   2.499  12.850  0.1676 -0.3923  0.1847
11997TIP3    H157482   4.089   2.583  12.851 -0.0979 -0.2372  1.3247
11997TIP3    H257483   4.037   2.474  12.943 -0.7066 -1.1386 -0.0557
11998TIP3   OH257484   6.683   2.615  14.927  0.0999 -0.0331  0.2245
11998TIP3    H157485   6.734   2.543  14.966 -0.6708 -0.2608  0.8481
11998TIP3    H257486   6.685   2.684  14.994 -0.5429 -0.1105  0.3313
11999TIP3   OH257487   4.707   2.427  15.530 -0.0942  0.6843 -0.2974
11999TIP3    H157488   4.677   2.445  15.441 -3.2491 -0.5932  0.3797
11999TIP3    H257489   4.663   2.493  15.585 -2.9312 -1.9272  0.8662
12000TIP3   OH257490   6.332   3.896   1.329  0.3025  0.1387 -0.2577
12000TIP3    H157491   6.374   3.864   1.249  0.9500  0.8530 -0.2200
12000TIP3    H257492   6.384   3.973   1.354 -1.6705  1.7664 -0.8270
12001TIP3   OH257493   1.410   5.577  16.272 -0.0929 -0.3867  0.5415
12001TIP3    H157494   1.441   5.563  16.361 -0.5629  0.4837  0.8525
12001TIP3    H257495   1.439   5.500  16.224 -0.8270 -1.4193  1.6993
12002TIP3   OH257496   5.844   4.005  12.140  0.3307  0.1243 -0.1039
12002TIP3    H157497   5.779   4.072  12.160  1.1991  1.6950 -2.2031
12002TIP3    H257498   5.921   4.029  12.193 -0.0386 -0.4365  0.6983
12003TIP3   OH257499   2.974   6.164  16.404  0.0569  0.0864 -0.7057
12003TIP3    H157500   2.993   6.099  16.336 -0.4471 -0.5328 -0.2652
12003TIP3    H257501   2.991   6.248  16.361 -0.1258 -0.2947 -1.5600
12004TIP3   OH257502   0.361   4.063   3.600  0.0417 -0.2430  0.0453
12004TIP3    H157503   0.372   3.970   3.622 -0.0957 -0.2166  0.2213
12004TIP3    H257504   0.334   4.062   3.508  1.3859 -0.3225 -0.3739
12005TIP3   OH257505   4.227   1.357   3.106  0.2511  0.3917  0.1173
12005TIP3    H157506   4.155   1.297   3.086  0.1390  0.0618  1.3946
12005TIP3    H257507   4.295   1.334   3.043 -0.5899  0.4162 -0.8297
12006TIP3   OH257508   3.581   0.843  12.667 -0.2432 -0.3830  0.2218
12006TIP3    H157509   3.559   0.758  12.705  0.6537 -0.8175 -0.1989
12006TIP3    H257510   3.498   0.890  12.664 -0.7058 -1.1444  0.7116
12007TIP3   OH257511   3.926   6.450  13.885 -0.1272 -0.0618 -0.5033
12007TIP3    H157512   3.930   6.364  13.925 -0.4320 -0.3305 -1.0360
12007TIP3    H257513   4.003   6.496  13.917 -0.8136  0.0433  1.0746
12008TIP3   OH257514   6.616   4.312  12.655  0.0528 -0.3658 -0.2175
12008TIP3    H157515   6.600   4.404  12.633  0.1705 -0.1192  0.6780
12008TIP3    H257516   6.652   4.274  12.574  1.2752  0.6979 -0.2217
12009TIP3   OH257517   4.788   4.645   0.504  0.1840  0.5912  0.4436
12009TIP3    H157518   4.722   4.648   0.434 -0.5996 -1.4094  1.0017
12009TIP3    H257519   4.777   4.558   0.542  1.8967  0.9268  1.8137
12010TIP3   OH257520   5.763   2.041   5.085  0.2339 -0.5905  0.7005
12010TIP3    H157521   5.795   1.959   5.123  1.0372 -0.6957 -0.1633
12010TIP3    H257522   5.688   2.015   5.032  0.3121 -0.7349  0.6592
12011TIP3   OH257523   5.625   5.989  15.962 -0.3521 -0.4515 -0.1190
12011TIP3    H157524   5.678   5.923  16.007 -0.2802 -0.2729  0.0574
12011TIP3    H257525   5.689   6.050  15.925 -0.3519 -1.1885 -1.3999
12012TIP3   OH257526   1.015   5.134  15.948 -0.4232 -0.2080  0.1198
12012TIP3    H157527   0.941   5.193  15.961 -0.1294  0.1357  0.2676
12012TIP3    H257528   1.009   5.071  16.021  0.3490  0.8001  1.0878
12013TIP3   OH257529   5.427   5.671   0.160  0.3955 -0.7983  0.0019
12013TIP3    H157530   5.423   5.763   0.136  2.1476 -0.7515 -0.1958
12013TIP3    H257531   5.385   5.666   0.245  0.0318  0.1276 -0.1136
12014TIP3   OH257532   3.990   1.475   2.332  0.0048 -0.3891  0.1680
12014TIP3    H157533   3.954   1.519   2.409  0.3014 -0.4653  0.3503
12014TIP3    H257534   3.953   1.387   2.336  1.3747 -0.9607  1.1916
12015TIP3   OH257535   6.766   3.775  10.553  0.2787  0.4387 -0.0146
12015TIP3    H157536   6.718   3.857  10.538 -0.8148  0.0441  1.1796
12015TIP3    H257537   6.852   3.804  10.585 -0.5372  1.1443  1.6473
12016TIP3   OH257538   1.188   1.920  11.697 -0.4041 -0.4240  0.2619
12016TIP3    H157539   1.185   2.006  11.657  0.1497  0.0198  1.1484
12016TIP3    H257540   1.269   1.881  11.666 -1.6094 -1.4876 -1.7889
12017TIP3   OH257541   4.071   0.575   1.940  0.2653  0.1162 -0.0272
12017TIP3    H157542   4.165   0.586   1.953  0.1532  0.0406  0.9843
12017TIP3    H257543   4.047   0.644   1.878  0.8321  0.7497  0.4428
12018TIP3   OH257544   3.982   6.006  13.308 -0.0455 -0.4424  0.7036
12018TIP3    H157545   4.073   6.033  13.301 -0.2231  0.2381  0.9164
12018TIP3    H257546   3.947   6.056  13.381 -0.6720 -0.4565  0.4259
12019TIP3   OH257547   4.414   5.599  16.246 -0.1629 -0.3196 -0.4437
12019TIP3    H157548   4.391   5.665  16.181  1.0217  0.8879  0.3075
12019TIP3    H257549   4.457   5.530  16.196  2.2764  1.3599 -0.8154
12020TIP3   OH257550   0.787   1.836   1.590  0.0018 -0.2784 -0.3714
12020TIP3    H157551   0.804   1.749   1.552  0.7780  0.0218 -0.7448
12020TIP3    H257552   0.737   1.818   1.669  1.3707 -1.1847  0.3301
12021TIP3   OH257553   1.229   0.697   2.060  0.0293 -0.0879 -0.5754
12021TIP3    H157554   1.305   0.644   2.084  0.4854  1.6143  2.1767
12021TIP3    H257555   1.264   0.762   2.000  0.7159  0.4390  0.3659
12022TIP3   OH257556   3.429   4.406  16.437  0.2135 -0.3419  0.4646
12022TIP3    H157557   3.497   4.410  16.504  1.9891  0.5462 -1.2770
12022TIP3    H257558   3.367   4.475  16.460 -0.5804 -1.6335  2.4862
12023TIP3   OH257559   5.016   6.509   3.169 -0.0181 -0.1458 -0.3260
12023TIP3    H157560   5.002   6.579   3.233  1.0926 -0.4105  0.2327
12023TIP3    H257561   4.936   6.509   3.117 -0.0271  1.5932 -0.3953
12024TIP3   OH257562   0.839   4.712  10.725  0.3081 -0.6085  0.5118
12024TIP3    H157563   0.870   4.768  10.796 -0.8932  1.2514 -0.3390
12024TIP3    H257564   0.890   4.739  10.649 -2.8167  2.2932 -0.8394
12025TIP3   OH257565   6.686   3.774   5.417  0.1774  0.0426  0.4596
12025TIP3    H157566   6.637   3.839   5.366 -0.3491 -0.5511  0.1895
12025TIP3    H257567   6.730   3.825   5.485 -0.9455  0.5849  0.8086
12026TIP3   OH257568   4.589   3.725  11.070  0.0446  0.2321  0.2073
12026TIP3    H157569   4.501   3.709  11.036 -0.4050  0.6845  1.1251
12026TIP3    H257570   4.586   3.813  11.106  0.6669 -0.0103  0.8842
12027TIP3   OH257571   5.658   5.964   3.647  0.4136  0.0298 -0.1013
12027TIP3    H157572   5.615   5.888   3.608 -0.2044  0.0730  0.4769
12027TIP3    H257573   5.674   6.023   3.573 -2.4849  0.9687 -0.1056
12028TIP3   OH257574   6.825   3.483  12.939 -0.5262  0.3056  0.5011
12028TIP3    H157575   6.883   3.443  13.003  0.2951  0.6726 -0.0025
12028TIP3    H257576   6.737   3.469  12.974 -0.1018  0.3185  1.5904
12029TIP3   OH257577   6.602   4.026  16.946 -0.6227  0.1500  0.4015
12029TIP3    H157578   6.674   4.039  16.884  0.4389 -0.2430  1.5096
12029TIP3    H257579   6.527   4.001  16.892  0.2442 -0.0592 -0.7250
12030TIP3   OH257580   5.719   0.415  14.041  1.1192 -0.2802 -0.5620
12030TIP3    H157581   5.767   0.400  14.123  0.3011 -2.6611 -0.4242
12030TIP3    H257582   5.627   0.409  14.067  0.8502 -0.8224 -1.6200
12031TIP3   OH257583   5.095   1.826  15.448 -0.0895  0.3556 -0.0359
12031TIP3    H157584   5.099   1.815  15.353  0.0855 -1.0858  0.1030
12031TIP3    H257585   5.030   1.762  15.477 -0.6774  1.2860  0.7624
12032TIP3   OH257586   1.899   1.194  13.998  0.2323 -0.0404 -0.3465
12032TIP3    H157587   1.916   1.246  13.920  0.7480  0.8161  0.3175
12032TIP3    H257588   1.977   1.139  14.008  0.1613 -0.1581 -0.4411
12033TIP3   OH257589   3.424   6.715   1.494 -0.2117  0.2115 -0.2821
12033TIP3    H157590   3.434   6.807   1.521  0.3279  0.8438 -2.3730
12033TIP3    H257591   3.338   6.712   1.452 -0.2271 -0.2451 -0.2137
12034TIP3   OH257592   0.238   5.329   2.686  0.4270  0.0818  0.1938
12034TIP3    H157593   0.203   5.305   2.771  0.4971  1.8820  0.7740
12034TIP3    H257594   0.223   5.423   2.679  0.5964  0.0197 -1.7074
12035TIP3   OH257595   6.438   6.249   4.863  0.2154 -0.0632  0.2283
12035TIP3    H157596   6.381   6.315   4.825  0.8461  0.8729  0.8682
12035TIP3    H257597   6.505   6.299   4.910  0.8531 -1.1507  0.5128
12036TIP3   OH257598   0.601   2.279   0.371  0.1070 -0.4567  0.1157
12036TIP3    H157599   0.506   2.266   0.361 -0.5325  1.6150  2.4087
12036TIP3    H257600   0.628   2.317   0.287 -1.2335 -0.4285 -0.3310
12037TIP3   OH257601   5.440   1.404  12.485 -0.1038  0.2293  0.0319
12037TIP3    H157602   5.532   1.380  12.472 -0.7171 -3.5330  1.3851
12037TIP3    H257603   5.441   1.499  12.497  3.4535  0.4392 -0.8161
12038TIP3   OH257604   0.212   5.964   4.216  0.1658 -0.0658 -0.4092
12038TIP3    H157605   0.158   6.034   4.180  2.4251  1.4509 -1.0542
12038TIP3    H257606   0.291   6.008   4.248  0.4254 -1.9940  1.8858
12039TIP3   OH257607   1.928   0.592  16.742  0.2022  0.0581 -0.1929
12039TIP3    H157608   1.877   0.546  16.809 -0.4967  0.3186 -0.5373
12039TIP3    H257609   2.019   0.583  16.771 -0.0823  0.1131  0.7578
12040TIP3   OH257610   2.201   2.223  14.560  0.4855 -0.1279 -0.5289
12040TIP3    H157611   2.181   2.292  14.496  1.1078 -0.5274 -1.1699
12040TIP3    H257612   2.179   2.141  14.516 -0.1377 -0.3599  0.1895
12041TIP3   OH257613   0.769   0.103  13.821 -0.0432 -0.4718 -0.4258
12041TIP3    H157614   0.835   0.041  13.789  1.2693  0.1253  0.9865
12041TIP3    H257615   0.685   0.059  13.804  0.6032 -0.8806 -3.0787
12042TIP3   OH257616   5.419   1.517  15.003  0.2806  0.4504  0.3238
12042TIP3    H157617   5.444   1.594  14.953 -0.8749  0.2155 -0.6409
12042TIP3    H257618   5.496   1.461  15.000  0.4452  0.7102 -0.6620
12043TIP3   OH257619   0.587   5.441   0.430 -0.6455  0.5426 -0.1541
12043TIP3    H157620   0.661   5.392   0.392 -2.7282 -1.5708 -1.7991
12043TIP3    H257621   0.600   5.434   0.525  0.4265 -1.1896 -0.3768
12044TIP3   OH257622   4.514   4.331  11.169 -0.1185  0.5219 -0.0104
12044TIP3    H157623   4.552   4.331  11.257  0.2137  1.9195 -0.1363
12044TIP3    H257624   4.422   4.308  11.182  0.1043 -0.0627  0.6028
12045TIP3   OH257625   1.778   2.458   0.025  0.3569  0.1284  0.0611
12045TIP3    H157626   1.821   2.533  -0.017 -0.2289 -0.5661 -1.9110
12045TIP3    H257627   1.742   2.408  -0.048 -1.0876 -0.9713  1.4567
12046TIP3   OH257628   1.905   0.827   0.572  0.2545 -0.0461 -0.3243
12046TIP3    H157629   1.983   0.870   0.538 -0.6945  1.1608 -1.0670
12046TIP3    H257630   1.863   0.894   0.627 -0.6274 -0.4208 -0.5244
12047TIP3   OH257631   1.457   1.210  12.601 -0.1097 -0.3522  0.2352
12047TIP3    H157632   1.444   1.268  12.675  0.4587  0.0052  0.0676
12047TIP3    H257633   1.371   1.172  12.584 -0.0775 -1.0782  1.5885
12048TIP3   OH257634   0.634   5.191   2.074  0.0283 -0.2829  0.1587
12048TIP3    H157635   0.543   5.166   2.091  0.2295 -1.7205 -0.6734
12048TIP3    H257636   0.684   5.146   2.142  0.4321 -2.6580 -1.5640
12049TIP3   OH257637   1.148   3.921  11.706 -0.3034  0.1921 -0.1362
12049TIP3    H157638   1.093   3.942  11.781 -0.9035  2.5774 -1.1393
12049TIP3    H257639   1.238   3.938  11.736 -0.6057  2.0978 -0.1759
12050TIP3   OH257640   6.375   1.073   2.333 -0.6937  0.1973 -0.7008
12050TIP3    H157641   6.315   1.142   2.361 -1.4592 -0.0854 -1.5918
12050TIP3    H257642   6.342   0.995   2.377 -0.7586  0.1147 -0.8956
12051TIP3   OH257643   0.986   4.460  11.206  0.0629  1.1991  0.1502
12051TIP3    H157644   0.894   4.486  11.200  0.1024  1.4169  0.4520
12051TIP3    H257645   1.002   4.410  11.126  0.1062  2.4586 -0.6509
12052TIP3   OH257646   4.950   5.993   2.945 -0.1608  0.1336 -0.3562
12052TIP3    H157647   4.861   5.974   2.914  0.1132  0.4104 -1.3492
12052TIP3    H257648   5.007   5.956   2.877  0.4679  0.6403 -0.1107
12053TIP3   OH257649   1.282   4.873   2.509 -0.2538  0.3694 -0.3379
12053TIP3    H157650   1.296   4.869   2.414  0.8338  1.3726 -0.2533
12053TIP3    H257651   1.210   4.812   2.526 -1.6255  1.4297 -2.0274
12054TIP3   OH257652   2.076   0.837  12.367 -0.2453 -0.3905  0.0968
12054TIP3    H157653   1.994   0.834  12.416 -0.0549 -0.6442  0.4004
12054TIP3    H257654   2.053   0.808  12.279 -0.6826  0.5183 -0.1022
12055TIP3   OH257655   5.432   3.643  15.321  0.2346  0.2122 -0.1558
12055TIP3    H157656   5.429   3.732  15.355 -0.2616 -0.0537  0.5109
12055TIP3    H257657   5.453   3.589  15.396  2.1906 -0.0928 -0.8622
12056TIP3   OH257658   4.609   2.855  16.022  0.0516  0.0468 -0.1690
12056TIP3    H157659   4.667   2.801  15.969 -1.8382 -2.8673  0.5026
12056TIP3    H257660   4.658   2.870  16.103  0.8967  0.0117 -0.6592
12057TIP3   OH257661   0.579   1.954   1.472  0.6736 -0.3717 -0.3432
12057TIP3    H157662   0.660   1.920   1.508 -0.4395 -1.2133  1.4960
12057TIP3    H257663   0.521   1.877   1.466 -0.3466  0.3911 -0.5683
12058TIP3   OH257664   1.298   2.904   0.581 -0.2342 -0.6740  0.1837
12058TIP3    H157665   1.249   2.925   0.660  1.3054 -1.4213  1.4082
12058TIP3    H257666   1.278   2.812   0.564  1.2885 -1.2283  1.1739
12059TIP3   OH257667   5.844   1.134  11.825  0.2555 -0.4508 -0.1233
12059TIP3    H157668   5.797   1.058  11.860 -1.6535 -0.3019 -2.1763
12059TIP3    H257669   5.801   1.209  11.865  0.9886 -0.3769  0.5515
12060TIP3   OH257670   6.189   1.126   6.053 -0.3340 -0.3177 -0.3856
12060TIP3    H157671   6.214   1.038   6.025  0.8525 -0.7475  1.7653
12060TIP3    H257672   6.139   1.112   6.133 -0.7557  0.9450 -0.4156
12061TIP3   OH257673   3.498   5.032   3.893  0.5099  0.0350 -0.4520
12061TIP3    H157674   3.581   5.031   3.941  0.3955 -0.9309 -0.2644
12061TIP3    H257675   3.431   5.037   3.961  0.4040  0.6833 -0.5989
12062TIP3   OH257676   1.733   4.941   1.123 -0.2829  0.1550 -0.2119
12062TIP3    H157677   1.807   4.896   1.162 -2.0408 -1.9293  0.9508
12062TIP3    H257678   1.738   4.919   1.030  0.3268 -0.3251 -0.0728
12063TIP3   OH257679   0.293   2.232   3.899  0.1272  0.3070  0.4298
12063TIP3    H157680   0.273   2.324   3.885  1.1661  0.8057  2.0057
12063TIP3    H257681   0.379   2.232   3.941 -0.8346 -1.2333  2.5707
12064TIP3   OH257682   3.806   4.100   1.630 -0.3775 -0.1633 -0.5819
12064TIP3    H157683   3.733   4.134   1.578 -0.2447 -0.4794 -0.9882
12064TIP3    H257684   3.768   4.079   1.715 -0.9251 -1.0013 -1.0142
12065TIP3   OH257685   2.070   5.508   2.908  0.5469 -0.0101 -0.3814
12065TIP3    H157686   2.083   5.464   2.992  0.8251  0.8914  0.0600
12065TIP3    H257687   2.090   5.441   2.842  0.4730 -0.6787  0.2671
12066TIP3   OH257688   2.020   2.751  12.040 -0.5498  0.0624  0.6034
12066TIP3    H157689   1.958   2.816  12.008 -0.0424  0.2745  0.0271
12066TIP3    H257690   2.043   2.782  12.129 -0.5539  0.5018  0.4571
12067TIP3   OH257691   5.320   3.804  15.982  0.6053 -0.4511 -0.0822
12067TIP3    H157692   5.334   3.746  15.907 -0.1210 -0.8571  0.0833
12067TIP3    H257693   5.338   3.749  16.058  1.6315  0.0423  0.0439
12068TIP3   OH257694   0.352   3.902   0.783 -0.1290 -0.9038  0.7575
12068TIP3    H157695   0.274   3.948   0.751  0.9972 -0.0683 -0.9806
12068TIP3    H257696   0.404   3.887   0.704  2.6493  0.8442  2.1031
12069TIP3   OH257697   6.194   6.477  13.649 -0.0482 -0.3440 -0.3181
12069TIP3    H157698   6.262   6.442  13.707 -1.2150 -2.1639  0.0540
12069TIP3    H257699   6.150   6.399  13.616 -0.6487  0.7321 -2.1691
12070TIP3   OH257700   2.902   0.270   1.206 -0.1335  0.5909 -0.4379
12070TIP3    H157701   2.892   0.228   1.292  1.5000 -0.2422 -0.6165
12070TIP3    H257702   2.825   0.242   1.157  0.7161 -2.0577 -0.4465
12071TIP3   OH257703   4.360   1.700  15.045 -0.0141  0.0207 -0.1322
12071TIP3    H157704   4.402   1.756  15.110 -0.1922  0.1367 -0.1139
12071TIP3    H257705   4.288   1.658  15.092 -0.4617  0.4954 -0.3729
12072TIP3   OH257706   5.818   1.245   0.332  0.0371  0.1526  0.1689
12072TIP3    H157707   5.835   1.266   0.241  1.4824  0.3378  0.4502
12072TIP3    H257708   5.765   1.318   0.364 -1.0484 -0.2410 -0.6663
12073TIP3   OH257709   1.929   3.641   4.644  0.2564  0.6624  0.2111
12073TIP3    H157710   1.848   3.691   4.628 -0.1726 -0.2720 -0.6578
12073TIP3    H257711   1.929   3.626   4.738 -0.0609  1.5405  0.3634
12074TIP3   OH257712   6.073   5.190   4.369 -0.1169 -0.2400 -0.0588
12074TIP3    H157713   6.059   5.219   4.279  0.1886 -0.0134 -0.0337
12074TIP3    H257714   5.985   5.175   4.404 -0.2426 -0.1286 -0.3274
12075TIP3   OH257715   3.558   4.913  11.504 -0.0487 -0.3712  0.3437
12075TIP3    H157716   3.474   4.911  11.549 -1.2187 -0.4093 -1.6860
12075TIP3    H257717   3.535   4.930  11.412  2.2883  1.6401  0.0184
12076TIP3   OH257718   2.646   4.607  12.219 -0.2708  0.0673  0.3631
12076TIP3    H157719   2.598   4.545  12.165  1.0270  1.1860 -2.2608
12076TIP3    H257720   2.640   4.572  12.308 -1.1190 -2.7901 -0.7220
12077TIP3   OH257721   6.764   0.562  14.460  1.0109 -0.2654 -0.2747
12077TIP3    H157722   6.827   0.633  14.470  0.3701  0.3014 -0.1620
12077TIP3    H257723   6.698   0.578  14.528 -0.1147  0.1027 -1.3994
12078TIP3   OH257724   2.819   3.162  12.605 -0.0285  0.2914  0.2474
12078TIP3    H157725   2.867   3.240  12.631 -2.3312  1.5353  1.0677
12078TIP3    H257726   2.786   3.125  12.687 -1.3639  0.1179 -0.3425
12079TIP3   OH257727   6.035   2.960  12.373  0.0686 -0.6665 -0.2445
12079TIP3    H157728   6.082   2.918  12.301  0.3260 -1.0332  0.1283
12079TIP3    H257729   5.944   2.962  12.344 -0.0289 -1.8903 -0.1074
12080TIP3   OH257730   2.669   1.162   3.189  1.1896 -0.4244 -0.4058
12080TIP3    H157731   2.625   1.077   3.194 -1.0411  0.5799 -1.6219
12080TIP3    H257732   2.611   1.222   3.235  2.6561  0.5115  0.2963
12081TIP3   OH257733   4.804   3.115   4.684  0.8279 -0.4502  0.0288
12081TIP3    H157734   4.874   3.059   4.719  1.0484  0.4204  1.0162
12081TIP3    H257735   4.849   3.196   4.660  0.5761 -0.7897 -1.7380
12082TIP3   OH257736   0.216   6.081   2.394 -0.7812 -0.4446 -0.0654
12082TIP3    H157737   0.256   6.085   2.481 -0.6522 -0.1534 -0.1348
12082TIP3    H257738   0.252   6.003   2.354 -0.3864 -0.2606 -0.0727
12083TIP3   OH257739   3.212   5.459   5.447  0.6530 -0.1058  0.1582
12083TIP3    H157740   3.205   5.439   5.541  2.6044  0.6732  0.5242
12083TIP3    H257741   3.143   5.523   5.431  1.6419  1.3970  1.6063
12084TIP3   OH257742   4.118   3.738   1.014  0.3754 -0.2983 -0.4496
12084TIP3    H157743   4.047   3.785   1.057  1.3470  1.0506 -0.2762
12084TIP3    H257744   4.192   3.745   1.074  0.6482 -1.7996 -0.5686
12085TIP3   OH257745   0.371   3.248  16.764  0.4765 -0.1726 -0.7496
12085TIP3    H157746   0.319   3.173  16.736 -1.6459  0.3959  1.4063
12085TIP3    H257747   0.432   3.213  16.829 -0.5317 -0.0503  0.2767
12086TIP3   OH257748   0.909   6.433  14.351 -0.3533 -0.0058 -0.4151
12086TIP3    H157749   0.906   6.492  14.276  0.3111 -2.1451 -2.2731
12086TIP3    H257750   1.002   6.413  14.361 -0.6678 -1.8702 -0.8612
12087TIP3   OH257751   4.254   3.146  12.312 -0.0940 -0.3435 -0.2192
12087TIP3    H157752   4.161   3.168  12.319  0.0946  0.3868  0.1433
12087TIP3    H257753   4.299   3.218  12.357  0.8416  1.1317 -3.2349
12088TIP3   OH257754   3.052   2.537   2.760  0.3278  0.1655 -0.3876
12088TIP3    H157755   3.110   2.600   2.717  1.9168 -1.0985 -0.2298
12088TIP3    H257756   2.972   2.538   2.707  0.7683  1.4320 -1.0713
12089TIP3   OH257757   0.435   1.634  15.496 -0.1823  0.0190 -0.1034
12089TIP3    H157758   0.435   1.635  15.591 -2.7272  0.0145 -0.0222
12089TIP3    H257759   0.346   1.608  15.472  0.4536 -0.2419 -2.4923
12090TIP3   OH257760   1.277   3.435   3.038 -0.1945  0.3633 -0.3153
12090TIP3    H157761   1.193   3.468   3.069  0.3627  1.4351  0.1237
12090TIP3    H257762   1.290   3.352   3.084  0.4298  1.7079  2.1341
12091TIP3   OH257763   1.545   5.109   2.547  0.4809 -0.1610 -0.3154
12091TIP3    H157764   1.517   5.165   2.475  0.3976 -0.0761 -0.2188
12091TIP3    H257765   1.637   5.131   2.561 -0.1506  1.7641  1.3341
12092TIP3   OH257766   6.416   2.097  10.669  0.1587  0.0678  0.6768
12092TIP3    H157767   6.404   2.091  10.574  0.8736  0.9036  0.5201
12092TIP3    H257768   6.475   2.024  10.690  0.3808  0.1625  0.3970
12093TIP3   OH257769   3.621   5.275  16.844 -0.2496  0.4962  0.2226
12093TIP3    H157770   3.534   5.314  16.854 -1.0916 -1.4272  0.8709
12093TIP3    H257771   3.607   5.199  16.789  1.3000  0.9086 -0.8092
12094TIP3   OH257772   0.225   6.471   0.398 -0.5707  0.1837  0.0994
12094TIP3    H157773   0.178   6.396   0.435 -0.9331 -0.0568 -0.8162
12094TIP3    H257774   0.314   6.462   0.431 -0.7824 -0.2489  0.5681
12095TIP3   OH257775   1.104   2.278   0.807 -0.1413 -0.1962 -0.4978
12095TIP3    H157776   1.098   2.358   0.755 -1.2894 -0.7536 -1.2596
12095TIP3    H257777   1.114   2.209   0.741 -0.8336 -0.8359  0.0651
12096TIP3   OH257778   1.740   2.018   3.926 -0.1134 -0.1628 -0.1740
12096TIP3    H157779   1.728   2.088   3.990  0.3590 -0.1626 -0.0861
12096TIP3    H257780   1.696   1.942   3.966 -1.3245  0.2753 -0.6246
12097TIP3   OH257781   3.603   2.512   3.534 -0.2748  0.2041  0.7467
12097TIP3    H157782   3.520   2.476   3.566 -0.0292  1.1863  2.6752
12097TIP3    H257783   3.589   2.606   3.529  0.0358  0.1800 -1.2047
12098TIP3   OH257784   5.623   0.379   6.052 -0.5716 -0.3538 -0.3764
12098TIP3    H157785   5.561   0.308   6.037 -0.6936 -0.6281  1.2365
12098TIP3    H257786   5.708   0.336   6.060 -0.8403 -0.5373  2.0746
12099TIP3   OH257787   5.319   4.075  12.138  0.1578  0.1147 -0.4504
12099TIP3    H157788   5.293   4.006  12.199  0.1403  0.7683  0.3099
12099TIP3    H257789   5.391   4.120  12.183  0.2894  0.4798 -1.0108
12100TIP3   OH257790   2.035   2.974   1.912  0.3570 -0.1590 -0.3257
12100TIP3    H157791   2.037   3.058   1.867  0.6562 -0.3005 -0.5797
12100TIP3    H257792   2.095   2.918   1.862  0.6750 -0.3225  0.2352
12101TIP3   OH257793   1.465   4.107   1.364 -0.8647  0.2270  0.0095
12101TIP3    H157794   1.459   4.192   1.409 -0.7430 -0.0735  0.6079
12101TIP3    H257795   1.559   4.093   1.353 -0.7540 -0.8496  1.9313
12102TIP3   OH257796   0.014   5.835  15.929  0.0012  0.0289  0.3008
12102TIP3    H157797  -0.026   5.756  15.965 -0.3368  1.1366  2.5486
12102TIP3    H257798   0.087   5.854  15.987  0.7464  0.7931 -0.8380
12103TIP3   OH257799   1.485   5.390   3.832  0.3043  0.1736 -0.5413
12103TIP3    H157800   1.409   5.397   3.890  1.7504 -1.5338  1.7530
12103TIP3    H257801   1.511   5.480   3.816 -1.6846  0.7746 -0.7241
12104TIP3   OH257802   1.012   2.750   2.309  0.0246  0.1226  0.1493
12104TIP3    H157803   1.074   2.785   2.245 -0.8413 -1.5086 -1.6774
12104TIP3    H257804   0.960   2.826   2.336  2.2342  1.3739  1.1605
12105TIP3   OH257805   5.392   3.743   4.533  0.4196 -0.4611 -0.1301
12105TIP3    H157806   5.458   3.812   4.547  0.1820 -0.4160  0.8422
12105TIP3    H257807   5.429   3.665   4.574 -0.3416 -0.3072  0.8881
12106TIP3   OH257808   1.571   0.556  10.460  0.0641 -0.3253  0.0470
12106TIP3    H157809   1.533   0.547  10.373  0.8907 -1.1589 -0.2592
12106TIP3    H257810   1.530   0.486  10.511 -2.6096  1.9544  1.2108
12107TIP3   OH257811   5.395   4.089   5.826  0.2696  0.2555  0.2224
12107TIP3    H157812   5.445   4.159   5.867  1.0984  0.1175 -0.5086
12107TIP3    H257813   5.444   4.010   5.845  0.0956  0.0568 -0.1336
12108TIP3   OH257814   1.229   2.337   3.186  0.4710  0.0455  0.4894
12108TIP3    H157815   1.154   2.361   3.239 -0.1395  0.9312 -0.7324
12108TIP3    H257816   1.305   2.355   3.241 -0.1574  0.6310  1.1703
12109TIP3   OH257817   4.351   0.665   4.644  0.0072 -0.1404 -0.3834
12109TIP3    H157818   4.365   0.755   4.614  1.3769  0.1298  0.9003
12109TIP3    H257819   4.330   0.616   4.565  1.4350  0.9005 -1.4681
12110TIP3   OH257820   5.811   0.783   3.079 -0.0633  0.1074 -0.5809
12110TIP3    H157821   5.781   0.710   3.134  0.6339  0.1855 -0.0813
12110TIP3    H257822   5.750   0.854   3.098  0.6090  0.3754  0.6860
12111TIP3   OH257823   5.909   4.187   1.892 -0.6658 -0.1449 -0.3763
12111TIP3    H157824   5.847   4.118   1.869  0.1353 -0.7539 -0.7583
12111TIP3    H257825   5.858   4.249   1.945 -1.7148 -0.3896 -1.0713
12112TIP3   OH257826   2.413   1.449   3.133  0.2518 -0.0422 -0.2825
12112TIP3    H157827   2.446   1.514   3.195 -0.1310 -1.6140  1.6739
12112TIP3    H257828   2.440   1.365   3.170 -0.9309 -1.1006 -1.6909
12113TIP3   OH257829   5.088   0.233   5.363  0.0262 -0.3497  0.2733
12113TIP3    H157830   5.153   0.238   5.432 -0.1373 -0.5458  0.4434
12113TIP3    H257831   5.010   0.196   5.405 -0.5477  0.8636  0.3232
12114TIP3   OH257832   5.448   2.661   1.589 -0.0292 -0.2566  0.3658
12114TIP3    H157833   5.537   2.686   1.563  0.0880 -0.4663  0.5578
12114TIP3    H257834   5.429   2.714   1.666 -0.2736  0.1688  0.0203
12115TIP3   OH257835   3.415   4.121   0.583  0.0383 -0.1313  0.4364
12115TIP3    H157836   3.438   4.150   0.495 -0.9606 -0.1522  0.1580
12115TIP3    H257837   3.364   4.194   0.620 -0.8050 -0.7195  0.4526
12116TIP3   OH257838   4.562   2.031   1.466  0.2927 -0.1342 -0.0163
12116TIP3    H157839   4.519   2.045   1.381  0.5731  0.2519 -0.1024
12116TIP3    H257840   4.608   2.114   1.482  1.5819 -0.7727 -0.2703
12117TIP3   OH257841   3.184   1.346  17.010  0.7236 -0.0548  0.5490
12117TIP3    H157842   3.162   1.382  17.096  0.9285  0.4873  0.3765
12117TIP3    H257843   3.137   1.263  17.007  0.2171  0.2072  0.9432
12118TIP3   OH257844   5.154   3.024  16.861 -0.3160 -0.2836  0.3235
12118TIP3    H157845   5.245   3.005  16.885 -0.5059 -0.9191  0.5359
12118TIP3    H257846   5.125   2.946  16.813 -0.8927 -0.2711  0.6475
12119TIP3   OH257847   3.499   0.071   5.002  0.0919  0.8848  0.1611
12119TIP3    H157848   3.565   0.133   4.971  0.0314  0.1903 -1.4604
12119TIP3    H257849   3.466   0.109   5.083  1.6327  1.8396  0.3697
12120TIP3   OH257850   2.834   0.209  11.095 -0.0768  0.2250 -0.1228
12120TIP3    H157851   2.825   0.162  11.013 -2.2196 -1.8930  1.1978
12120TIP3    H257852   2.793   0.294  11.079 -2.5544 -0.9851 -0.7124
12121TIP3   OH257853   6.817   2.243  15.806  0.0321  0.2389 -0.5240
12121TIP3    H157854   6.788   2.154  15.825  1.2411 -0.2915 -1.0269
12121TIP3    H257855   6.744   2.282  15.757 -0.5970 -0.3933 -0.1067
12122TIP3   OH257856   0.563   0.140  14.198 -0.0304  0.7510 -0.7378
12122TIP3    H157857   0.523   0.225  14.186  2.3038  2.2828  1.3411
12122TIP3    H257858   0.655   0.159  14.220  0.3469 -2.2170  0.8501
12123TIP3   OH257859   5.486   0.772   0.970 -0.0992  1.2074  0.6805
12123TIP3    H157860   5.423   0.806   0.907 -0.8515 -1.4185 -0.1228
12123TIP3    H257861   5.565   0.755   0.920 -1.2619 -2.5849 -0.1638
12124TIP3   OH257862   3.706   2.678  13.206  0.2077 -0.1038  0.4469
12124TIP3    H157863   3.651   2.754  13.221  0.3442  0.3246 -1.0418
12124TIP3    H257864   3.792   2.714  13.184  0.4558 -0.6991  0.4175
12125TIP3   OH257865   1.034   2.173  15.045  0.0595  0.4398  0.2812
12125TIP3    H157866   0.955   2.118  15.039  0.2110  0.2487  0.0324
12125TIP3    H257867   1.007   2.257  15.006 -0.2169  0.5977  0.7997
12126TIP3   OH257868   5.623   0.536   3.493 -0.6593  0.2656 -0.1030
12126TIP3    H157869   5.598   0.602   3.558  1.1653  0.7711  0.1427
12126TIP3    H257870   5.549   0.476   3.491 -1.0545  0.5969  1.9684
12127TIP3   OH257871   1.652   4.784   0.218  0.3858  0.5974  0.0384
12127TIP3    H157872   1.568   4.745   0.193  1.7014  0.5156 -5.4705
12127TIP3    H257873   1.711   4.709   0.230  0.5376  0.7252  0.0972
12128TIP3   OH257874   1.043   4.333   2.495  0.1035 -0.5668  0.0194
12128TIP3    H157875   1.060   4.364   2.406  1.7261 -0.6441  0.2672
12128TIP3    H257876   1.086   4.398   2.551 -2.1396  0.2928  0.8619
12129TIP3   OH257877   0.708   3.743   2.303  0.1334  0.1094  0.3716
12129TIP3    H157878   0.764   3.737   2.225 -1.1136  0.6582 -0.5904
12129TIP3    H257879   0.768   3.726   2.376  1.4908  0.3268 -0.6433
12130TIP3   OH257880   4.421   1.241  16.415  0.4310 -0.1893 -0.0971
12130TIP3    H157881   4.508   1.204  16.398  0.2947 -0.3015 -0.5508
12130TIP3    H257882   4.431   1.335  16.398  1.2103  0.3236  2.6234
12131TIP3   OH257883   0.887   2.029  15.825 -0.0025  0.3184  0.4330
12131TIP3    H157884   0.894   2.037  15.920 -0.3892  1.0958  0.4011
12131TIP3    H257885   0.977   2.033  15.794  0.0345  1.9381  0.6401
12132TIP3   OH257886   2.113   6.668  15.531 -0.0300  0.4859 -0.1082
12132TIP3    H157887   2.051   6.735  15.559 -0.4443 -1.1743  3.5633
12132TIP3    H257888   2.060   6.589  15.520  0.9940 -0.2248 -0.0755
12133TIP3   OH257889   0.595   4.134  12.834  0.8664  0.0809  0.3851
12133TIP3    H157890   0.634   4.192  12.898 -0.9857  0.0285  1.6285
12133TIP3    H257891   0.543   4.191  12.777 -0.6485 -0.2423  1.3762
12134TIP3   OH257892   1.436   3.899   5.969  1.1083  0.3481 -0.1974
12134TIP3    H157893   1.362   3.919   6.026  0.4930 -1.0802 -0.4498
12134TIP3    H257894   1.511   3.938   6.013  0.3108  1.2335  0.4125
12135TIP3   OH257895   5.177   1.505   2.083  0.6387 -0.3700 -0.1677
12135TIP3    H157896   5.266   1.513   2.050  1.0228 -0.8920  0.7230
12135TIP3    H257897   5.172   1.569   2.154  0.2918 -0.3358 -0.2192
12136TIP3   OH257898   2.598   6.521  12.402 -0.2122  0.5609 -0.3577
12136TIP3    H157899   2.611   6.602  12.452 -0.1000 -0.1506  0.7943
12136TIP3    H257900   2.687   6.491  12.383 -0.2519  0.4608 -0.3830
12137TIP3   OH257901   2.364   5.256   5.756 -0.0694 -0.1310  0.0620
12137TIP3    H157902   2.345   5.260   5.850 -1.9194  2.1334 -0.3217
12137TIP3    H257903   2.368   5.163   5.736 -0.9501 -0.6663  2.1355
12138TIP3   OH257904   4.985   0.512  11.703 -0.0971 -0.0165 -0.1385
12138TIP3    H157905   5.026   0.440  11.656 -0.4203 -0.1624 -0.1988
12138TIP3    H257906   5.037   0.589  11.680  1.4762 -0.5330  1.4785
12139TIP3   OH257907   1.657   6.342   0.767  0.6800  0.1476 -0.7328
12139TIP3    H157908   1.593   6.281   0.804 -0.3732  0.7375 -1.5072
12139TIP3    H257909   1.714   6.364   0.840  0.2232 -0.6811 -0.1029
12140TIP3   OH257910   3.307   4.843  14.404 -0.0339 -0.0790 -0.0343
12140TIP3    H157911   3.244   4.914  14.393  0.1647  0.3877  1.6168
12140TIP3    H257912   3.367   4.874  14.472  1.6066 -0.7734 -1.1078
12141TIP3   OH257913   4.610   6.193   2.066 -0.1967 -0.0569 -1.2537
12141TIP3    H157914   4.649   6.174   2.151 -2.0568  0.2891 -0.2818
12141TIP3    H257915   4.605   6.107   2.022 -2.7568 -0.9945  0.5899
12142TIP3   OH257916   5.050   5.885  13.212 -0.1133 -0.0108 -0.9182
12142TIP3    H157917   5.028   5.810  13.267  2.8437 -0.5837 -0.3507
12142TIP3    H257918   5.017   5.961  13.259 -0.9876 -0.7678 -0.2863
12143TIP3   OH257919   6.289   0.666   5.208  0.0814  0.4427  0.8823
12143TIP3    H157920   6.224   0.701   5.269 -0.8511  2.6687 -1.2490
12143TIP3    H257921   6.271   0.572   5.206 -2.3778  0.8402  1.2016
12144TIP3   OH257922   0.928   4.090   0.398  0.0312  0.2679 -0.1443
12144TIP3    H157923   0.954   4.001   0.374  1.0134  0.4711  0.1162
12144TIP3    H257924   0.999   4.145   0.365 -0.2174  0.8845  0.3325
12145TIP3   OH257925   3.099   1.667  13.066 -0.0016 -0.2236  0.0119
12145TIP3    H157926   3.168   1.732  13.076  1.4695 -1.2300 -2.5972
12145TIP3    H257927   3.131   1.590  13.113  0.0996 -0.3156 -0.2081
12146TIP3   OH257928   5.655   2.293  16.193  0.3905  0.5034  0.0174
12146TIP3    H157929   5.710   2.371  16.188  1.8784 -0.5037  0.0477
12146TIP3    H257930   5.645   2.276  16.286 -0.5006  1.0028  0.0325
12147TIP3   OH257931   5.667   5.639  12.933  0.3346  0.4217  0.1205
12147TIP3    H157932   5.578   5.608  12.945  0.0741  0.7256 -0.9190
12147TIP3    H257933   5.671   5.667  12.841  1.9715 -1.1564 -0.3505
12148TIP3   OH257934   2.249   1.957  16.389 -0.0077  0.0162  0.8650
12148TIP3    H157935   2.223   1.872  16.425  1.1197  0.4809  2.9373
12148TIP3    H257936   2.172   1.987  16.341 -1.0182 -1.4258  1.5174
12149TIP3   OH257937   1.607   6.069  11.282 -0.4442 -0.5258  0.2880
12149TIP3    H157938   1.638   6.155  11.311 -1.6705  0.2324 -0.5517
12149TIP3    H257939   1.557   6.088  11.203 -0.7005 -2.0356  0.0755
12150TIP3   OH257940   4.793   2.544   0.663  0.0647 -0.2158  0.2978
12150TIP3    H157941   4.856   2.498   0.718  0.1366 -0.9863 -0.4123
12150TIP3    H257942   4.741   2.474   0.622 -0.1888  0.3511 -0.3725
12151TIP3   OH257943   3.537   1.397  12.924 -0.0044 -0.1627  0.6020
12151TIP3    H157944   3.496   1.479  12.896 -0.6044 -0.5326  0.3836
12151TIP3    H257945   3.464   1.343  12.956 -0.0028 -1.5383 -1.4821
12152TIP3   OH257946   3.164   4.091  16.104 -0.6035  0.2258 -0.2543
12152TIP3    H157947   3.217   4.074  16.182  0.2914 -3.8498 -1.4803
12152TIP3    H257948   3.221   4.145  16.049  0.0377  0.5161  0.6641
12153TIP3   OH257949   3.550   2.394   6.124 -0.2843 -0.1000 -0.2541
12153TIP3    H157950   3.490   2.374   6.197  1.3438 -0.8988  0.9285
12153TIP3    H257951   3.498   2.376   6.046 -2.3471  1.5321  0.6428
12154TIP3   OH257952   2.397   5.441   4.885 -0.1411  0.2531 -0.0987
12154TIP3    H157953   2.324   5.391   4.920  0.2773 -0.2657  0.0438
12154TIP3    H257954   2.440   5.382   4.822 -0.1392  0.7279 -0.5547
12155TIP3   OH257955   4.325   0.569   1.150 -0.7710 -0.1267 -0.2175
12155TIP3    H157956   4.274   0.510   1.205  1.6868 -1.4381  0.8168
12155TIP3    H257957   4.387   0.513   1.104  0.6041  1.4417 -0.4146
12156TIP3   OH257958   1.866   4.814   2.602 -0.5429  0.2933 -0.1400
12156TIP3    H157959   1.864   4.761   2.682 -0.1909  1.1329  0.4424
12156TIP3    H257960   1.778   4.806   2.565 -0.0264 -2.0441 -0.9905
12157TIP3   OH257961   4.886   3.030  12.737 -0.3794 -0.0361 -0.2351
12157TIP3    H157962   4.973   2.999  12.761  0.5233  0.0215 -3.1213
12157TIP3    H257963   4.901   3.112  12.690 -1.9174 -0.3265 -1.3308
12158TIP3   OH257964   2.129   4.626   1.521 -0.1662 -0.3220 -0.2728
12158TIP3    H157965   2.132   4.560   1.452  1.1463  0.3362 -0.8660
12158TIP3    H257966   2.216   4.664   1.522  0.3066 -1.2020  2.6339
12159TIP3   OH257967   2.374   0.194  12.088  0.0352  0.5911 -0.1835
12159TIP3    H157968   2.363   0.228  11.999  0.9313 -1.6992 -1.2603
12159TIP3    H257969   2.296   0.141  12.104 -0.7618  2.0444  0.9753
12160TIP3   OH257970   1.236   0.556   3.309  0.4755 -0.2515  0.3202
12160TIP3    H157971   1.169   0.489   3.297  1.1673 -1.0710  0.8844
12160TIP3    H257972   1.313   0.521   3.263  1.0645 -0.2049  1.2430
12161TIP3   OH257973   2.962   5.687  10.189 -0.3738 -0.0169  0.7036
12161TIP3    H157974   2.875   5.724  10.203 -0.0529  1.3415 -0.6153
12161TIP3    H257975   3.015   5.723  10.261 -0.4858  0.6427  0.4616
12162TIP3   OH257976   4.843   6.650  13.463 -0.0099  0.1477 -0.0867
12162TIP3    H157977   4.748   6.642  13.450 -0.1258 -0.9182  1.2154
12162TIP3    H257978   4.854   6.732  13.511 -0.6247 -1.2421  2.5788
12163TIP3   OH257979   5.594   5.327  16.256 -0.1187 -0.2948 -0.3712
12163TIP3    H157980   5.640   5.314  16.173  1.7495  1.0637  0.3722
12163TIP3    H257981   5.560   5.417  16.251  1.2438  0.3339  0.8323
12164TIP3   OH257982   1.232   5.438  16.769  0.2617  0.0169  0.8039
12164TIP3    H157983   1.210   5.418  16.678 -0.7392 -1.8507  1.3972
12164TIP3    H257984   1.235   5.533  16.773  0.3216  0.1261 -1.1785
12165TIP3   OH257985   4.381   2.658   4.615  0.1505 -1.3205 -0.4205
12165TIP3    H157986   4.371   2.718   4.689  0.4835  0.3305 -1.6721
12165TIP3    H257987   4.424   2.581   4.653  0.0504 -0.6486  1.1517
12166TIP3   OH257988   2.608   2.662  12.495  0.4202 -0.1252 -0.4291
12166TIP3    H157989   2.520   2.647  12.462  0.1412 -0.3920  0.4063
12166TIP3    H257990   2.666   2.631  12.426 -0.0865  2.3116 -2.0844
12167TIP3   OH257991   4.020   1.778   3.658  0.4428 -0.5594 -0.7485
12167TIP3    H157992   4.059   1.733   3.584 -0.2831 -0.1091 -1.4202
12167TIP3    H257993   3.939   1.815   3.624  0.7297  0.7608 -0.0609
12168TIP3   OH257994   3.627   6.647  14.751  0.2268  0.1950 -0.0708
12168TIP3    H157995   3.666   6.614  14.833  0.2149  0.5975  0.0976
12168TIP3    H257996   3.673   6.729  14.734  2.6641 -1.4374 -2.2540
12169TIP3   OH257997   2.247   5.787   1.004  0.1875  0.8866  0.9135
12169TIP3    H157998   2.180   5.730   1.043 -0.0620  0.9539  0.5775
12169TIP3    H257999   2.199   5.856   0.961  0.3629 -0.3149 -1.3437
12170TIP3   OH258000   4.262   1.857  16.594  0.6465  0.2819 -0.2113
12170TIP3    H158001   4.285   1.863  16.502  0.1360  0.3332 -0.3400
12170TIP3    H258002   4.314   1.926  16.637 -0.3095  1.3484 -0.7064
12171TIP3   OH258003   1.225   1.791  11.182 -1.0274  0.3428  1.1886
12171TIP3    H158004   1.267   1.858  11.235  0.5657 -0.6821  1.2908
12171TIP3    H258005   1.279   1.786  11.103 -3.1130  1.5474 -0.3935
12172TIP3   OH258006   1.578   3.634  11.038 -0.5507 -0.5711 -0.1990
12172TIP3    H158007   1.555   3.681  11.118  0.0023  0.5397 -0.6689
12172TIP3    H258008   1.494   3.603  11.003 -0.6563 -2.6007  1.6939
12173TIP3   OH258009   3.808   4.574  16.939 -0.1665 -0.3350  0.4337
12173TIP3    H158010   3.831   4.628  17.014  2.4191 -0.3836 -0.2487
12173TIP3    H258011   3.761   4.634  16.880 -0.4682  0.2056  1.2145
12174TIP3   OH258012   5.579   4.653  12.156  0.4768  0.3201 -0.0032
12174TIP3    H158013   5.584   4.708  12.078  0.1379  0.9255  0.3898
12174TIP3    H258014   5.659   4.602  12.155  0.2961  0.0387 -0.9505
12175TIP3   OH258015   4.306   5.976   0.121 -0.4570 -0.3878  0.1877
12175TIP3    H158016   4.321   6.004   0.031  0.7513  0.4974  0.6345
12175TIP3    H258017   4.327   5.882   0.121  0.2303 -0.2401 -0.3110
12176TIP3   OH258018   4.125   4.903   3.099 -0.5918 -0.3748  0.3584
12176TIP3    H158019   4.084   4.990   3.094  2.5931  1.2139 -1.6867
12176TIP3    H258020   4.086   4.854   3.027  0.8857  1.1262 -1.5984
12177TIP3   OH258021   0.527   2.709   1.247  0.0360  0.2104 -0.6221
12177TIP3    H158022   0.609   2.756   1.263 -0.1446  0.1175  0.7135
12177TIP3    H258023   0.460   2.768   1.281 -0.5856  0.7636 -2.6680
12178TIP3   OH258024   5.093   2.837   0.279 -0.2366  0.2317  0.5569
12178TIP3    H158025   5.084   2.774   0.207  1.8257  0.0360  0.4241
12178TIP3    H258026   5.031   2.907   0.257 -1.8576 -1.2525  0.2027
12179TIP3   OH258027   5.572   4.871   4.308  0.0784 -0.1949  0.2581
12179TIP3    H158028   5.542   4.850   4.397  0.5115  1.2052  0.7701
12179TIP3    H258029   5.643   4.934   4.322  0.9389 -0.8330 -1.0561
12180TIP3   OH258030   0.551   2.972   4.507 -0.0920 -0.0285  0.3212
12180TIP3    H158031   0.485   2.918   4.549 -0.4085  0.7329  0.8392
12180TIP3    H258032   0.539   3.059   4.546  0.0960  0.5338 -0.8054
12181TIP3   OH258033   3.144   6.718  11.665  0.0094  0.2986  0.0349
12181TIP3    H158034   3.124   6.640  11.717 -1.2680  1.7848  1.9131
12181TIP3    H258035   3.090   6.710  11.587 -1.1723 -0.0361  0.8670
12182TIP3   OH258036   3.491   1.748  16.782 -0.6954 -0.0537  0.1649
12182TIP3    H158037   3.496   1.693  16.704  4.1543 -0.0411  0.1691
12182TIP3    H258038   3.502   1.686  16.855  0.5359  0.4476  0.4236
12183TIP3   OH258039   4.029   4.824   5.608  0.5967 -0.2344 -0.3414
12183TIP3    H158040   3.981   4.870   5.539 -0.2016  1.2868  1.1536
12183TIP3    H258041   4.043   4.891   5.675  1.4501 -1.6387  0.9231
12184TIP3   OH258042   0.734   5.027  12.453  0.6786 -0.0195 -0.1183
12184TIP3    H158043   0.771   5.114  12.471  0.7337 -0.3115  1.3239
12184TIP3    H258044   0.800   4.983  12.399  0.4263  0.9943 -1.2908
12185TIP3   OH258045   1.378   5.766   1.937  0.5854  0.0374 -0.5176
12185TIP3    H158046   1.466   5.743   1.966 -0.1800 -1.5504  0.7581
12185TIP3    H258047   1.343   5.821   2.008  0.6407  0.9233 -1.1642
12186TIP3   OH258048   4.953   1.255   1.049 -1.0007  0.4641  0.1665
12186TIP3    H158049   5.027   1.195   1.061 -1.7196 -0.2992  0.9177
12186TIP3    H258050   4.992   1.335   1.014 -0.0416 -0.4920 -1.0001
12187TIP3   OH258051   1.766   0.761  11.321 -0.0080 -0.3829  0.3728
12187TIP3    H158052   1.783   0.727  11.409 -2.2383 -1.2075  0.5597
12187TIP3    H258053   1.723   0.845  11.335  1.1665  0.2941  0.0084
12188TIP3   OH258054   0.464   4.988  11.569  0.2760 -0.2974 -0.0968
12188TIP3    H158055   0.387   4.931  11.579  0.9282 -0.8880  2.3093
12188TIP3    H258056   0.445   5.064  11.624  0.4969  0.6353 -1.2771
12189TIP3   OH258057   4.657   2.559   3.060  0.4924  0.1953  0.4771
12189TIP3    H158058   4.600   2.582   3.133  2.0361  1.1447  1.4342
12189TIP3    H258059   4.696   2.475   3.086 -0.3696 -0.4290 -0.1563
12190TIP3   OH258060   3.565   4.182   3.799 -0.2943 -0.2869  0.1009
12190TIP3    H158061   3.515   4.105   3.826 -0.4694 -0.4040 -0.5353
12190TIP3    H258062   3.512   4.256   3.829  0.5626 -0.3785  1.9788
12191TIP3   OH258063   1.271   3.501   1.266 -0.2812 -0.2239 -0.2189
12191TIP3    H158064   1.230   3.486   1.351  0.5717 -0.9668  0.0731
12191TIP3    H258065   1.358   3.461   1.273  0.5273  1.3372 -0.8007
12192TIP3   OH258066   3.077   0.189  15.288  0.1627  0.1863 -0.2402
12192TIP3    H158067   3.040   0.132  15.355  2.0019 -1.3579 -0.4589
12192TIP3    H258068   3.044   0.276  15.311 -0.6578 -0.5512  1.6270
12193TIP3   OH258069   1.255   1.999   2.123  0.2833 -0.3126 -0.5820
12193TIP3    H158070   1.314   1.985   2.048  0.1636  3.4313 -1.5918
12193TIP3    H258071   1.168   2.003   2.084 -0.3340 -2.3509  0.4345
12194TIP3   OH258072   1.154   6.307   0.284  0.2243  0.4348  0.0393
12194TIP3    H158073   1.122   6.227   0.244  1.0495  0.7248 -1.2868
12194TIP3    H258074   1.143   6.374   0.216  0.7789  1.1568  0.6369
12195TIP3   OH258075   5.707   6.024   1.407  0.0614 -0.1635 -0.0503
12195TIP3    H158076   5.616   6.050   1.419 -0.2536 -1.6017  0.9426
12195TIP3    H258077   5.708   5.930   1.426  1.9853  0.0751  1.4315
12196TIP3   OH258078   4.822   1.500   2.493  0.1156 -0.1356  0.4314
12196TIP3    H158079   4.795   1.577   2.442  0.6657 -0.7112 -0.7593
12196TIP3    H258080   4.750   1.438   2.485  0.2986 -0.3148  0.1598
12197TIP3   OH258081   4.370   6.757   3.236 -0.2491 -0.1628 -0.3563
12197TIP3    H158082   4.347   6.712   3.318 -1.2908 -0.7292 -0.9315
12197TIP3    H258083   4.303   6.729   3.174  0.5344  0.2374 -1.4209
12198TIP3   OH258084   3.078   0.554  11.516  0.4497 -0.5048  0.6473
12198TIP3    H158085   3.160   0.571  11.470  0.6269 -1.1521  0.7234
12198TIP3    H258086   3.010   0.579  11.454  0.6498 -2.6991 -0.5240
12199TIP3   OH258087   2.934   2.969   0.279  0.2618 -0.7616 -0.5086
12199TIP3    H158088   2.887   2.929   0.206  1.0358 -1.3388 -0.6987
12199TIP3    H258089   3.005   2.908   0.299 -0.3680 -0.9925  1.2295
12200TIP3   OH258090   6.607   1.885  10.723 -0.3773  0.5427 -0.3232
12200TIP3    H158091   6.656   1.806  10.701 -0.6108  0.0432  0.8712
12200TIP3    H258092   6.667   1.935  10.778 -0.8360  0.3880  0.3273
12201TIP3   OH258093   0.602   0.482   5.140  0.6405  0.0695 -0.1539
12201TIP3    H158094   0.666   0.456   5.074  1.4144 -0.2360  0.6995
12201TIP3    H258095   0.646   0.467   5.224 -0.2358  0.6703  0.4324
12202TIP3   OH258096   0.009   2.246   1.726 -0.0380 -0.5284 -0.6818
12202TIP3    H158097   0.032   2.328   1.770  1.3483 -0.6902 -1.0456
12202TIP3    H258098   0.056   2.249   1.643  0.5642 -1.9660 -0.4210
12203TIP3   OH258099   4.325   0.199  15.677 -0.0808  0.0156  0.2362
12203TIP3    H158100   4.358   0.258  15.745 -2.7709  1.1142  0.7538
12203TIP3    H258101   4.360   0.235  15.595 -0.3771  1.4019  0.6898
12204TIP3   OH258102   3.346   3.266  10.576 -0.4632  0.5901  0.1213
12204TIP3    H158103   3.309   3.253  10.663  0.8992 -1.9436  0.4183
12204TIP3    H258104   3.341   3.180  10.535  1.7684  0.9780 -1.1343
12205TIP3   OH258105   4.112   4.543  16.419  0.0364 -0.2916 -0.2901
12205TIP3    H158106   4.139   4.525  16.329  0.8130  0.1099 -0.1526
12205TIP3    H258107   4.193   4.571  16.462 -0.6763  1.3475  0.0537
12206TIP3   OH258108   0.339   0.905   1.430 -0.0654  0.4820 -0.5177
12206TIP3    H158109   0.244   0.896   1.418 -0.3742  1.1524  1.1322
12206TIP3    H258110   0.374   0.818   1.410 -0.8675  0.5346 -2.3159
12207TIP3   OH258111   2.389   3.413   1.888 -0.1290  0.1629  0.4413
12207TIP3    H158112   2.393   3.350   1.816  1.1376  1.4070 -0.6160
12207TIP3    H258113   2.480   3.424   1.916 -0.5648 -0.1546  2.1601
12208TIP3   OH258114   0.027   5.717   3.896  0.2000 -0.4363  0.1221
12208TIP3    H158115   0.123   5.718   3.899  0.2572 -0.5569 -1.3696
12208TIP3    H258116   0.003   5.643   3.951  1.0408 -1.4837 -0.8694
12209TIP3   OH258117   1.441   4.786  10.987  0.1432 -0.2714  0.2888
12209TIP3    H158118   1.466   4.878  10.975 -1.2718  0.1258  0.2087
12209TIP3    H258119   1.494   4.757  11.061  2.6135 -0.2333 -1.3572
12210TIP3   OH258120   3.665   4.905   4.882 -0.0312  0.5113  0.0791
12210TIP3    H158121   3.659   4.894   4.977  1.2881 -2.9373 -0.0932
12210TIP3    H258122   3.575   4.899   4.851 -0.3604  0.3617  1.0224
12211TIP3   OH258123   6.612   3.168  16.906  0.0462  0.1632 -0.0287
12211TIP3    H158124   6.648   3.080  16.892  1.6461  0.7663  0.0554
12211TIP3    H258125   6.645   3.194  16.992 -1.0875  0.5443  0.3074
12212TIP3   OH258126   0.299   0.226  12.155  0.4782 -0.1351 -0.2185
12212TIP3    H158127   0.263   0.137  12.158 -1.4955  0.6267  1.5806
12212TIP3    H258128   0.310   0.244  12.062 -0.7780 -1.6491 -0.7182
12213TIP3   OH258129   0.258   6.435   4.073  0.3277  0.3553 -0.2091
12213TIP3    H158130   0.275   6.407   4.163 -0.8999  1.7239  0.5107
12213TIP3    H258131   0.265   6.355   4.021 -2.0023 -1.1561  1.5538
12214TIP3   OH258132   2.686   3.366  11.018 -0.2672 -0.4781 -0.2328
12214TIP3    H158133   2.771   3.335  10.987  0.1490  1.7235 -1.5661
12214TIP3    H258134   2.696   3.373  11.113  0.6598 -1.3092 -0.2550
12215TIP3   OH258135   2.962   2.143   2.102  0.1484  0.7973  0.1859
12215TIP3    H158136   3.027   2.168   2.168 -0.4378 -1.6540  1.8365
12215TIP3    H258137   2.917   2.068   2.141 -1.8813  0.7661 -2.0379
12216TIP3   OH258138   6.011   5.590   0.351  0.2876 -0.1700 -0.1959
12216TIP3    H158139   6.033   5.633   0.269 -1.6209  0.0524 -0.6454
12216TIP3    H258140   5.964   5.656   0.402  2.9580  0.2767  1.8971
12217TIP3   OH258141   2.037   6.399  12.897  0.2792  0.2685  0.6972
12217TIP3    H158142   1.996   6.395  12.811  1.7892 -1.2303 -0.0178
12217TIP3    H258143   2.096   6.475  12.892  1.9002 -0.9979 -0.3812
12218TIP3   OH258144   5.074   6.445  12.723 -0.3799  0.0686 -0.3251
12218TIP3    H158145   5.143   6.390  12.761 -0.8405 -0.9661 -0.9639
12218TIP3    H258146   5.112   6.533  12.724  0.3685 -0.2356  0.7162
12219TIP3   OH258147   5.239   5.534  14.527  0.0804 -0.2538 -0.0012
12219TIP3    H158148   5.227   5.622  14.562 -2.2919 -0.3137 -0.4909
12219TIP3    H258149   5.291   5.546  14.448 -0.3033  0.7230 -0.1209
12220TIP3   OH258150   4.669   5.179   2.584 -0.4493  0.3536  0.4731
12220TIP3    H158151   4.735   5.230   2.536  0.8964 -0.2875  1.5801
12220TIP3    H258152   4.589   5.231   2.576 -0.2092  0.4655 -2.1050
12221TIP3   OH258153   0.137   1.202  12.566  0.5919  0.5318 -0.6033
12221TIP3    H158154   0.124   1.274  12.628 -1.4701  0.8562 -1.3509
12221TIP3    H258155   0.200   1.145  12.609  0.4688  1.5885  1.0579
12222TIP3   OH258156   1.340   5.807  12.443  0.5782  0.3628 -0.5215
12222TIP3    H158157   1.298   5.893  12.444  0.6323  0.4442 -2.3830
12222TIP3    H258158   1.430   5.825  12.415  1.3856 -0.0312  1.6327
12223TIP3   OH258159   0.482   4.357  11.903  0.4681  0.2853  0.4149
12223TIP3    H158160   0.534   4.335  11.826 -1.0598  1.3530 -0.9895
12223TIP3    H258161   0.479   4.453  11.903 -0.7997  0.2661  0.9326
12224TIP3   OH258162   6.037   5.958   3.534  0.2477  0.1144 -0.2489
12224TIP3    H158163   6.013   5.971   3.626 -0.7771  1.2742 -0.6435
12224TIP3    H258164   6.051   5.864   3.526  0.6428  0.0317  1.1565
12225TIP3   OH258165   1.604   5.476  13.805 -0.3962 -0.2127  0.0573
12225TIP3    H158166   1.522   5.480  13.756 -0.6305  1.0227  0.4871
12225TIP3    H258167   1.656   5.550  13.772  1.3341 -2.0137 -1.4815
12226TIP3   OH258168   0.954   4.445  16.078 -0.0638 -0.2674 -0.4590
12226TIP3    H158169   0.920   4.474  15.993  0.0514  0.6890 -0.1902
12226TIP3    H258170   1.008   4.518  16.109  0.7992 -1.0567 -0.0660
12227TIP3   OH258171   5.758   3.020   3.537 -0.2695 -0.0448  0.6960
12227TIP3    H158172   5.834   3.052   3.585 -0.3801  0.5881  0.4550
12227TIP3    H258173   5.787   3.014   3.446 -0.3446 -0.3338  0.6887
12228TIP3   OH258174   5.347   0.473  10.341  0.4849  0.2533 -0.4559
12228TIP3    H158175   5.357   0.567  10.326  0.8715 -0.1274 -3.0221
12228TIP3    H258176   5.318   0.467  10.432 -0.4606  2.9040 -0.4743
12229TIP3   OH258177   0.245   3.597  13.545  0.6410 -0.1882  0.4552
12229TIP3    H158178   0.238   3.502  13.550  3.2864 -0.4807  0.2395
12229TIP3    H258179   0.198   3.621  13.465  1.7955 -1.6133 -0.7102
12230TIP3   OH258180   1.431   5.489  14.028  0.1368  0.2953 -0.0220
12230TIP3    H158181   1.458   5.442  14.107 -0.3822 -0.3569 -0.2244
12230TIP3    H258182   1.508   5.487  13.972  0.4687  0.6561  0.4111
12231TIP3   OH258183   3.513   4.190   0.327  0.0454 -0.1752 -0.0569
12231TIP3    H158184   3.472   4.220   0.245 -0.0789  0.4928  0.2410
12231TIP3    H258185   3.604   4.175   0.304  0.1088  0.4318 -0.2256
12232TIP3   OH258186   0.446   3.042   6.404 -0.2569 -0.2573 -0.2999
12232TIP3    H158187   0.446   3.021   6.311  0.5912  0.7331 -0.5510
12232TIP3    H258188   0.376   3.107   6.415  0.8612  1.0564 -0.6368
12233TIP3   OH258189   1.493   0.006  15.852  0.0692  0.0848 -0.3997
12233TIP3    H158190   1.476  -0.063  15.915 -0.5174 -2.0288 -2.7407
12233TIP3    H258191   1.439   0.080  15.882 -1.3260 -1.3325  0.7289
12234TIP3   OH258192   2.565   5.888   3.299 -0.2386  0.4857 -0.9229
12234TIP3    H158193   2.593   5.820   3.237  0.0427  0.4306 -0.7428
12234TIP3    H258194   2.543   5.963   3.245 -1.4004 -0.0261 -1.1896
12235TIP3   OH258195   6.186   5.644  12.662  0.1483  0.0322  0.0400
12235TIP3    H158196   6.169   5.734  12.637 -2.1398 -0.3677 -0.1119
12235TIP3    H258197   6.185   5.645  12.758  1.2740  0.3326  0.0574
12236TIP3   OH258198   2.497   0.278   3.979  0.5323  0.0288  0.7299
12236TIP3    H158199   2.544   0.217   4.037  1.8868 -0.1597 -0.5149
12236TIP3    H258200   2.463   0.223   3.909  1.2774  0.5998 -0.1038
12237TIP3   OH258201   5.376   5.581  12.665 -0.1231  0.0296  0.2381
12237TIP3    H158202   5.317   5.636  12.717  0.1305 -0.0974  0.6564
12237TIP3    H258203   5.463   5.602  12.696  0.0481  0.0858 -0.2631
12238TIP3   OH258204   5.813   2.420   4.536  0.3292  0.7592 -0.0196
12238TIP3    H158205   5.841   2.368   4.611 -2.4410 -0.3770  0.3471
12238TIP3    H258206   5.783   2.356   4.472  1.1936  1.7822 -1.5232
12239TIP3   OH258207   6.075   4.458   2.600  0.0487  0.1799  0.3969
12239TIP3    H158208   6.158   4.474   2.646  0.3738 -0.1747 -0.0505
12239TIP3    H258209   6.059   4.364   2.612  0.6365 -0.1232 -1.0046
12240TIP3   OH258210   1.653   5.163  14.692 -0.2104  0.0456  0.5898
12240TIP3    H158211   1.608   5.245  14.671 -1.2113 -1.0176 -1.7794
12240TIP3    H258212   1.583   5.105  14.722  0.3194 -0.3101  1.1697
12241TIP3   OH258213   0.084   6.457   0.042 -0.0193  0.2355 -0.0763
12241TIP3    H158214   0.003   6.437  -0.004  0.1872  0.1792 -0.4178
12241TIP3    H258215   0.066   6.537   0.090 -0.0423  0.6335 -0.7405
12242TIP3   OH258216   0.466   5.998   4.729  0.1647 -0.0767  0.3492
12242TIP3    H158217   0.447   6.028   4.818 -1.9896 -0.5711  0.1195
12242TIP3    H258218   0.499   6.076   4.684 -2.2373  1.2247  0.6356
12243TIP3   OH258219   3.788   2.536  12.194 -0.6038  0.5582 -0.0667
12243TIP3    H158220   3.814   2.620  12.232  0.4106 -0.5560  1.8024
12243TIP3    H258221   3.775   2.556  12.101  1.0167  2.4880  0.0498
12244TIP3   OH258222   2.512   4.528  11.916  0.3996 -0.0108  0.6714
12244TIP3    H158223   2.572   4.602  11.915  0.9810 -0.4512 -0.9792
12244TIP3    H258224   2.469   4.531  11.830 -1.8926  0.2336  1.7613
12245TIP3   OH258225   4.462   4.426  15.254  0.1460  0.1618 -0.1842
12245TIP3    H158226   4.553   4.407  15.231  0.5452  0.0627  1.3501
12245TIP3    H258227   4.447   4.515  15.221  0.8387  0.2153 -0.3621
12246TIP3   OH258228   5.509   4.779   2.307 -0.0826  0.3820  0.1922
12246TIP3    H158229   5.526   4.870   2.280  1.9959 -0.2749 -0.8853
12246TIP3    H258230   5.522   4.727   2.228 -2.9802 -0.7638  0.3490
12247TIP3   OH258231   0.119   6.120  12.831 -1.0376  0.0166 -0.4762
12247TIP3    H158232   0.102   6.139  12.738  1.9233  0.4145 -1.0335
12247TIP3    H258233   0.143   6.204  12.869 -0.9910 -0.3619  0.3479
12248TIP3   OH258234   0.903   3.558   0.890  0.5846 -0.0708 -0.3900
12248TIP3    H158235   0.809   3.561   0.875  0.7291  0.1645 -1.3131
12248TIP3    H258236   0.925   3.646   0.922  0.6247  0.1707 -1.0655
12249TIP3   OH258237   5.304   6.699  11.708 -0.1111  0.2060 -0.4685
12249TIP3    H158238   5.209   6.708  11.703 -0.0499  0.5534 -1.1905
12249TIP3    H258239   5.332   6.770  11.766 -0.4009 -0.7397  0.8769
12250TIP3   OH258240   0.893   4.039  16.671  0.3929  0.4827  0.3639
12250TIP3    H158241   0.934   3.955  16.694  0.2859  0.2406 -0.3011
12250TIP3    H258242   0.809   4.015  16.632  0.6770  0.8492 -0.5108
12251TIP3   OH258243   3.864   4.324  16.825 -0.3232 -0.0317 -0.2840
12251TIP3    H158244   3.876   4.411  16.861  0.5971 -0.9913  1.9019
12251TIP3    H258245   3.888   4.332  16.733 -0.8725  2.1267 -0.2758
12252TIP3   OH258246   6.010   5.549   4.538  0.2823  0.0660 -0.0488
12252TIP3    H158247   5.916   5.551   4.520  0.4068 -0.8926 -0.9105
12252TIP3    H258248   6.020   5.598   4.620 -0.8700  0.7795 -0.3147
12253TIP3   OH258249   0.110   5.751   1.519  0.4875  0.2515 -0.3017
12253TIP3    H158250   0.183   5.811   1.505  1.2581 -0.7978 -0.8959
12253TIP3    H258251   0.140   5.689   1.585 -0.4919  0.7876  0.6894
12254TIP3   OH258252   3.036   1.109  11.808 -0.2030 -0.1885 -0.4317
12254TIP3    H158253   2.968   1.064  11.858  0.2142 -0.6161 -0.2403
12254TIP3    H258254   3.044   1.194  11.852 -1.4949  0.3825 -1.2374
12255TIP3   OH258255   2.023   2.575  15.144  0.1177 -0.0664  0.4538
12255TIP3    H158256   1.944   2.628  15.138  0.0798  0.2463  2.9516
12255TIP3    H258257   2.041   2.549  15.053 -1.7668  1.3881 -0.4028
12256TIP3   OH258258   2.822   3.377  15.900  0.3901 -0.3074 -0.3248
12256TIP3    H158259   2.848   3.378  15.808 -1.4513 -2.4250 -0.9802
12256TIP3    H258260   2.748   3.437  15.905  0.5290 -0.1458 -0.2164
12257TIP3   OH258261   0.201   5.643  14.995  0.3766  0.1545  0.0385
12257TIP3    H158262   0.238   5.619  15.080  2.7986  0.5305 -0.8373
12257TIP3    H258263   0.138   5.574  14.976 -1.0348  0.6011  2.5665
12258TIP3   OH258264   0.729   2.934  10.527  0.3036 -0.8378  0.4121
12258TIP3    H158265   0.639   2.934  10.559 -0.4994  1.4938 -1.5648
12258TIP3    H258266   0.760   2.845  10.543 -1.3370 -0.9631  3.7122
12259TIP3   OH258267   4.705   0.072  17.102  0.1414 -0.0245 -0.1134
12259TIP3    H158268   4.628   0.128  17.114 -2.1862 -2.1816 -3.2576
12259TIP3    H258269   4.762   0.121  17.044 -0.3856  0.3307 -0.3386
12260TIP3   OH258270   0.128   4.455  12.102  0.2445 -0.4607 -0.0963
12260TIP3    H158271   0.154   4.377  12.151  0.0009 -0.6832 -0.3274
12260TIP3    H258272   0.033   4.454  12.103  0.2398  0.1157  0.3507
12261TIP3   OH258273   5.595   2.448  14.739 -0.4344 -0.2945  0.0259
12261TIP3    H158274   5.600   2.416  14.829 -1.2528 -1.5264 -0.3378
12261TIP3    H258275   5.676   2.417  14.698 -0.6359 -0.8228  0.0185
12262TIP3   OH258276   4.277   5.818  13.170 -0.3167 -0.4625 -0.6542
12262TIP3    H158277   4.283   5.899  13.119  0.6533  0.4703  0.8841
12262TIP3    H258278   4.276   5.749  13.103  0.9358  0.6988 -1.9644
12263TIP3   OH258279   3.465   5.526   5.610  0.3725  0.3092  0.5016
12263TIP3    H158280   3.431   5.437   5.608 -0.5300  0.6529  0.1606
12263TIP3    H258281   3.408   5.572   5.671  0.8533  0.6547  0.6987
12264TIP3   OH258282   5.035   2.168  10.741  0.1997  0.4873 -0.0188
12264TIP3    H158283   5.042   2.263  10.750 -0.1329  0.4711  0.4482
12264TIP3    H258284   5.076   2.133  10.820 -1.2209  0.2903  0.6520
12265TIP3   OH258285   6.531   0.295  14.502 -0.8830  0.6022 -0.4378
12265TIP3    H158286   6.616   0.286  14.544 -1.0482  0.0846 -0.1996
12265TIP3    H258287   6.518   0.213  14.455 -1.3006  0.6252 -0.3740
12266TIP3   OH258288   2.898   4.886   1.087  0.3353 -0.4003 -0.2177
12266TIP3    H158289   2.814   4.842   1.095 -0.1708  0.5508 -0.2246
12266TIP3    H258290   2.889   4.967   1.138  0.8996  0.1999 -1.0442
12267TIP3   OH258291   2.343   3.534   3.079 -0.6333  0.3000  0.3547
12267TIP3    H158292   2.404   3.562   3.147 -0.2725 -0.4302  0.3405
12267TIP3    H258293   2.376   3.449   3.051 -0.6828  0.6606 -0.8508
12268TIP3   OH258294   0.680   5.480   3.208 -0.3328  0.3230  0.2388
12268TIP3    H158295   0.644   5.398   3.242  1.1355 -0.2581  0.4703
12268TIP3    H258296   0.773   5.476   3.230 -0.2800  2.1798  0.4724
12269TIP3   OH258297   5.869   6.457   3.139  0.7535  0.4022  0.2238
12269TIP3    H158298   5.799   6.519   3.119  0.3422  0.0043  0.3881
12269TIP3    H258299   5.852   6.432   3.230 -0.1267 -1.2469 -0.3487
12270TIP3   OH258300   4.604   2.258   5.673 -0.3962 -0.3523 -0.2006
12270TIP3    H158301   4.653   2.335   5.643 -2.6052  1.4317  0.5206
12270TIP3    H258302   4.640   2.240   5.760 -1.0621  1.0433  0.3993
12271TIP3   OH258303   6.538   6.603  11.429 -0.1356  0.1342  0.5804
12271TIP3    H158304   6.467   6.640  11.482 -1.8731 -1.0420 -0.7731
12271TIP3    H258305   6.550   6.514  11.464 -2.1327 -1.1036 -1.5489
12272TIP3   OH258306   6.044   6.011  15.207 -0.1585  0.2753 -0.1037
12272TIP3    H158307   6.066   6.104  15.209  0.0468  0.2538 -1.2355
12272TIP3    H258308   6.038   5.987  15.300 -0.5008  1.4759  0.2122
12273TIP3   OH258309   1.381   5.489  15.740 -0.2987 -0.5534  0.0998
12273TIP3    H158310   1.324   5.414  15.760 -1.5138  0.0404 -1.0559
12273TIP3    H258311   1.397   5.529  15.825 -1.3043 -0.9526  0.4988
12274TIP3   OH258312   3.558   1.664   2.044 -0.0614 -0.0071 -0.2586
12274TIP3    H158313   3.619   1.606   1.999  0.9090  0.5303  0.3401
12274TIP3    H258314   3.566   1.639   2.137 -1.2685 -0.3962 -0.2380
12275TIP3   OH258315   6.158   4.689  15.986  0.5624 -0.0745 -0.0038
12275TIP3    H158316   6.210   4.609  15.997  0.7995 -0.0627 -0.9367
12275TIP3    H258317   6.109   4.674  15.906  0.4023  0.6125 -0.0352
12276TIP3   OH258318   2.643   1.009  12.072  0.4273  0.0370  0.2772
12276TIP3    H158319   2.637   1.017  12.167 -2.0969  0.5766  0.1293
12276TIP3    H258320   2.553   1.007  12.042  1.1599 -0.4208 -2.1152
12277TIP3   OH258321   4.585   1.148  14.667  0.2413 -0.0241  0.3372
12277TIP3    H158322   4.577   1.180  14.577 -1.6119  0.7253  0.7161
12277TIP3    H258323   4.547   1.060  14.665  1.3908 -0.5317  0.1528
12278TIP3   OH258324   5.145   3.741   4.848 -0.1245 -0.0233 -0.2365
12278TIP3    H158325   5.125   3.678   4.779 -1.8496 -0.1016  0.2885
12278TIP3    H258326   5.120   3.826   4.812  0.0101  0.0757 -0.1009
12279TIP3   OH258327   1.910   1.403   0.796  0.0302  0.2596 -0.4766
12279TIP3    H158328   1.968   1.461   0.846 -0.1794  0.8412 -0.9027
12279TIP3    H258329   1.832   1.394   0.852  1.2405 -2.0552  0.9917
12280TIP3   OH258330   4.600   3.106  11.014 -0.1878  0.2466 -0.1299
12280TIP3    H158331   4.539   3.180  11.017 -1.4333 -0.7089 -0.7319
12280TIP3    H258332   4.575   3.059  10.934  0.2087 -1.1195  0.5369
12281TIP3   OH258333   3.598   3.557   2.021  0.6715  0.0975  0.5003
12281TIP3    H158334   3.604   3.584   1.929  0.3705 -0.9753  0.1503
12281TIP3    H258335   3.525   3.607   2.056  0.3310 -0.0055 -0.0463
12282TIP3   OH258336   0.532   3.756  10.797 -0.0934  0.3651 -0.4688
12282TIP3    H158337   0.514   3.850  10.801 -1.1700  0.2408  4.6203
12282TIP3    H258338   0.447   3.717  10.774 -0.1746  0.5571 -0.4980
12283TIP3   OH258339   0.727   4.343   1.721  0.3758 -0.1417 -0.0033
12283TIP3    H158340   0.813   4.382   1.733 -0.1428  0.9941  0.1087
12283TIP3    H258341   0.697   4.321   1.809  1.4002 -2.5209 -0.1562
12284TIP3   OH258342   6.714   4.322   2.598  0.5343 -0.3540 -0.2141
12284TIP3    H158343   6.761   4.394   2.640  1.2708 -1.5528  1.0917
12284TIP3    H258344   6.641   4.304   2.658 -0.0987 -0.2010 -0.9276
12285TIP3   OH258345   5.623   2.910  15.190  0.7720  0.4945 -1.0179
12285TIP3    H158346   5.590   2.961  15.116 -0.9215  1.6629  0.4507
12285TIP3    H258347   5.702   2.957  15.218 -0.9567  2.7479  0.5495
12286TIP3   OH258348   1.670   5.255   3.690  0.1258  1.1934 -0.1547
12286TIP3    H158349   1.628   5.292   3.768 -1.5106  1.0444 -0.9180
12286TIP3    H258350   1.679   5.330   3.631  2.8744  1.6681  0.7033
12287TIP3   OH258351   6.769   5.406   0.883 -0.2622 -0.1705 -0.0023
12287TIP3    H158352   6.792   5.482   0.937 -2.2574 -0.3134  1.1564
12287TIP3    H258353   6.850   5.355   0.877  0.7093  1.2518  0.5274
12288TIP3   OH258354   0.992   0.791  14.541 -0.2512 -0.2124  0.2555
12288TIP3    H158355   0.950   0.714  14.503 -1.2220 -0.0470  0.9749
12288TIP3    H258356   0.929   0.825  14.604  0.3452  0.9170  0.2769
12289TIP3   OH258357   3.369   6.641  11.212 -0.2069  0.8227  0.2066
12289TIP3    H158358   3.460   6.648  11.184 -0.0790 -0.7201  0.1291
12289TIP3    H258359   3.321   6.619  11.133 -0.5505  0.9796  0.3691
12290TIP3   OH258360   1.499   1.652   0.329  0.8736 -0.0775 -0.1691
12290TIP3    H158361   1.576   1.668   0.384  1.8482  1.2343 -1.8013
12290TIP3    H258362   1.534   1.602   0.255 -0.5396 -2.4540  0.6789
12291TIP3   OH258363   2.660   3.413   1.945 -0.3045  0.0069 -0.0868
12291TIP3    H158364   2.722   3.437   2.014 -1.8700 -1.1351  1.8131
12291TIP3    H258365   2.690   3.463   1.869  2.5139  0.0363  0.8968
12292TIP3   OH258366   6.418   1.613  15.860 -0.1834  0.2936  0.0161
12292TIP3    H158367   6.450   1.661  15.937  1.8205 -1.4614  0.3887
12292TIP3    H258368   6.479   1.636  15.790  0.6069 -1.3172  0.1156
12293TIP3   OH258369   2.038   4.529  13.732 -0.1480 -0.2167  0.1809
12293TIP3    H158370   2.030   4.610  13.782  2.5322  0.7526 -0.7850
12293TIP3    H258371   2.025   4.459  13.796 -1.4723  0.9563  1.2373
12294TIP3   OH258372   5.483   5.267  13.252 -0.2796 -0.3783 -0.6450
12294TIP3    H158373   5.454   5.352  13.288  0.7423 -0.2770 -0.0320
12294TIP3    H258374   5.416   5.246  13.187 -0.6036  0.8592 -0.7512
12295TIP3   OH258375   0.495   6.342   5.013 -0.3057  0.1276 -0.0641
12295TIP3    H158376   0.513   6.340   5.107 -0.5174  1.1984  0.0103
12295TIP3    H258377   0.480   6.250   4.990  2.3390 -0.5233  0.4245
12296TIP3   OH258378   3.475   1.030  15.876  0.1252  0.6771 -0.3571
12296TIP3    H158379   3.565   1.000  15.864  0.2362  0.0864  1.6376
12296TIP3    H258380   3.481   1.096  15.945 -1.0852 -0.0992  0.5264
12297TIP3   OH258381   0.387   1.115  10.245 -0.8191 -0.3621 -0.4030
12297TIP3    H158382   0.378   1.076  10.158 -1.3264 -1.6182  0.1861
12297TIP3    H258383   0.452   1.184  10.233 -1.3679 -0.0567 -1.9158
12298TIP3   OH258384   3.363   3.838   0.791  0.0197  0.2832  0.0616
12298TIP3    H158385   3.289   3.899   0.785  0.0529  0.4568  1.1084
12298TIP3    H258386   3.327   3.763   0.840  0.2748 -0.0531 -0.2667
12299TIP3   OH258387   2.696   0.957  11.042  0.4136 -0.4854 -0.7229
12299TIP3    H158388   2.772   0.949  10.984  0.2065 -2.2740 -0.7960
12299TIP3    H258389   2.628   0.906  10.999 -1.3861  2.3053 -1.4277
12300TIP3   OH258390   4.110   5.858  12.505 -0.6043 -0.2356  0.3303
12300TIP3    H158391   4.016   5.841  12.496 -0.3397 -1.2978 -0.5702
12300TIP3    H258392   4.150   5.813  12.431  0.6065  0.3828  0.5834
12301TIP3   OH258393   3.620   5.589  12.340 -0.0834  0.2786 -0.6415
12301TIP3    H158394   3.591   5.648  12.271 -2.3716  1.3910  1.1427
12301TIP3    H258395   3.676   5.525  12.295 -0.2265  1.8340 -3.2029
12302TIP3   OH258396   2.353   4.408   4.492  0.1335 -0.1344  0.3456
12302TIP3    H158397   2.381   4.317   4.486  1.0914  0.1456  0.2773
12302TIP3    H258398   2.318   4.417   4.581  2.3048 -0.0042  1.2678
12303TIP3   OH258399   0.085   6.841   2.696  0.0564 -0.3599  0.1204
12303TIP3    H158400   0.060   6.890   2.774 -1.1765 -0.6340 -0.0754
12303TIP3    H258401   0.031   6.761   2.699  1.4409 -1.3308  0.0198
12304TIP3   OH258402   3.315   4.933   0.112 -0.6076 -0.0129 -0.1841
12304TIP3    H158403   3.380   4.989   0.154 -0.9979 -0.2666  0.7911
12304TIP3    H258404   3.367   4.861   0.074 -0.0977  1.0383 -1.5546
12305TIP3   OH258405   4.774   1.674   5.266  0.2095 -0.1097  0.2193
12305TIP3    H158406   4.839   1.635   5.325  1.0288  0.8014 -0.0538
12305TIP3    H258407   4.699   1.694   5.322  0.1728 -1.1170  0.5514
12306TIP3   OH258408   3.297   5.763   0.164  0.1184  0.4468 -0.0140
12306TIP3    H158409   3.339   5.843   0.132 -2.0958  1.5721 -0.3180
12306TIP3    H258410   3.288   5.708   0.086 -2.0084  1.6859 -0.7565
12307TIP3   OH258411   5.764   6.498  16.319 -0.1170 -0.0516 -0.7026
12307TIP3    H158412   5.740   6.590  16.304  0.4301  0.2870  0.4420
12307TIP3    H258413   5.786   6.494  16.412 -2.5830 -1.8941 -0.0990
12308TIP3   OH258414   0.429   2.454  11.684 -0.1780  0.1070 -0.1487
12308TIP3    H158415   0.383   2.370  11.684 -0.2314  0.1318 -0.8710
12308TIP3    H258416   0.369   2.515  11.642  0.4780  0.1605 -1.0322
12309TIP3   OH258417   2.306   4.125   4.842  0.0411  0.8951  0.3075
12309TIP3    H158418   2.382   4.098   4.894  0.2741  1.7895  0.4569
12309TIP3    H258419   2.249   4.048   4.842  0.6481  0.4248  0.7475
12310TIP3   OH258420   3.015   5.279   0.669  0.2759 -0.4283  0.4169
12310TIP3    H158421   3.002   5.271   0.575  1.8017  0.5647  0.0790
12310TIP3    H258422   3.096   5.232   0.687 -0.0898 -0.7549  1.2669
12311TIP3   OH258423   3.341   6.691  16.010  0.1867 -0.1889 -0.5359
12311TIP3    H158424   3.288   6.760  15.970  2.0518  1.2634 -0.6430
12311TIP3    H258425   3.389   6.736  16.079  1.6371 -1.3203 -0.7698
12312TIP3   OH258426   5.515   6.021  14.034  0.0586 -0.1811 -0.1801
12312TIP3    H158427   5.570   6.098  14.021 -1.7831  0.9322 -1.9213
12312TIP3    H258428   5.570   5.947  14.006  0.8066  0.8483 -1.5423
12313TIP3   OH258429   2.859   3.310   3.197  0.8392  0.0804  0.1528
12313TIP3    H158430   2.932   3.353   3.243  0.0619 -0.6090  2.1337
12313TIP3    H258431   2.887   3.220   3.186 -0.5563 -0.8298  3.1159
12314TIP3   OH258432   6.795   3.908  15.153 -0.2923  0.0930  0.1831
12314TIP3    H158433   6.837   3.822  15.166  0.3389  0.3240 -0.2628
12314TIP3    H258434   6.702   3.888  15.140  0.0970 -0.7145 -1.8090
12315TIP3   OH258435   2.241   4.942  14.401 -0.0334  0.1493 -0.2225
12315TIP3    H158436   2.333   4.954  14.422  0.0305  0.2518 -0.5579
12315TIP3    H258437   2.209   4.882  14.468  0.5006 -0.6453 -0.6650
12316TIP3   OH258438   0.385   4.607   2.174  0.2057 -0.3843 -0.0910
12316TIP3    H158439   0.357   4.580   2.261 -1.3190 -1.4560 -0.8664
12316TIP3    H258440   0.404   4.525   2.128  1.8671  0.2023 -0.5188
12317TIP3   OH258441   3.225   6.525  13.349  0.6894 -0.0646 -0.3374
12317TIP3    H158442   3.250   6.496  13.261  3.2973  0.9594 -0.0405
12317TIP3    H258443   3.260   6.615  13.355 -0.5148  0.3357  1.3284
12318TIP3   OH258444   2.501   2.956   3.258 -0.0443 -0.1112  0.2225
12318TIP3    H158445   2.494   3.042   3.300  1.0991  1.0868 -1.8765
12318TIP3    H258446   2.419   2.945   3.211 -0.9545 -1.0511  1.9508
12319TIP3   OH258447   3.844   5.680   2.312 -0.2562  0.1200  0.1094
12319TIP3    H158448   3.793   5.618   2.261 -0.4407  0.7406 -0.4769
12319TIP3    H258449   3.932   5.676   2.273 -0.2551  0.1839  0.1053
12320TIP3   OH258450   6.294   0.453  14.520  0.2718  0.0991 -0.3604
12320TIP3    H158451   6.285   0.475  14.613  0.0485 -0.4205 -0.2527
12320TIP3    H258452   6.368   0.393  14.517  2.0678  2.2213 -0.8874
12321TIP3   OH258453   4.980   4.260   1.677  0.7077 -0.8038 -0.2858
12321TIP3    H158454   5.035   4.272   1.754  0.0503  3.4108 -0.2332
12321TIP3    H258455   5.017   4.319   1.611 -2.2030  0.3363 -1.0785
12322TIP3   OH258456   0.701   1.347   5.521 -0.2551 -0.0591 -0.1471
12322TIP3    H158457   0.794   1.346   5.499 -0.4212  0.0768 -0.8963
12322TIP3    H258458   0.670   1.259   5.499 -0.2304 -0.2303  0.4724
12323TIP3   OH258459   5.072   4.285   1.296  0.2975 -0.6261 -0.2792
12323TIP3    H158460   5.075   4.370   1.340  0.4494 -0.3466 -0.8248
12323TIP3    H258461   5.117   4.225   1.356  0.3550 -0.2847  0.0200
12324TIP3   OH258462   3.985   5.568  12.356  0.5481 -0.8375 -0.1997
12324TIP3    H158463   3.984   5.615  12.272 -0.0605  1.1091  0.8278
12324TIP3    H258464   3.909   5.511  12.353 -0.7483  0.8314 -0.1568
12325TIP3   OH258465   6.087   1.391   5.162 -0.0349  0.5460 -0.2328
12325TIP3    H158466   6.015   1.352   5.113  0.2078 -1.8387  1.0925
12325TIP3    H258467   6.049   1.468   5.204 -2.2601 -1.3131  1.4322
12326TIP3   OH258468   2.586   3.112   6.341  0.7683  0.0815 -0.5377
12326TIP3    H158469   2.587   3.017   6.332  2.0129  0.0832 -0.5206
12326TIP3    H258470   2.677   3.137   6.352  0.3670  1.1879  0.5546
12327TIP3   OH258471   3.441   2.575  11.685 -0.3421 -0.0149 -0.2874
12327TIP3    H158472   3.508   2.638  11.656 -2.5640  2.7679  0.1749
12327TIP3    H258473   3.472   2.544  11.770  1.7400 -1.1588 -1.3719
12328TIP3   OH258474   2.658   3.335   1.548  0.0960 -0.2678 -0.3246
12328TIP3    H158475   2.563   3.327   1.541  0.1188 -1.6378  0.6167
12328TIP3    H258476   2.692   3.251   1.516  0.8318 -0.8556  1.8165
12329TIP3   OH258477   1.748   4.673  11.726  0.8957 -0.2009 -0.4631
12329TIP3    H158478   1.756   4.588  11.768 -1.1050  0.3348  1.1964
12329TIP3    H258479   1.729   4.734  11.798  1.3077  1.4912 -1.7079
12330TIP3   OH258480   5.282   4.824   0.190 -0.7851 -0.1156  0.2852
12330TIP3    H158481   5.314   4.736   0.170 -1.3660 -0.3070  0.1839
12330TIP3    H258482   5.193   4.826   0.155 -1.0806  0.2309  1.0306
12331TIP3   OH258483   3.838   4.002   4.874 -0.6447  0.0758 -0.2085
12331TIP3    H158484   3.865   3.916   4.840 -1.1520  0.3847 -1.4838
12331TIP3    H258485   3.748   4.012   4.841 -0.4863  1.2140 -0.3060
12332TIP3   OH258486   2.047   5.790   3.976 -0.0388  0.0825  0.0818
12332TIP3    H158487   2.007   5.727   4.035 -0.7661 -0.8602 -1.3482
12332TIP3    H258488   2.033   5.875   4.017 -0.5534 -0.5324  1.2212
12333TIP3   OH258489   6.782   4.914   3.589  0.1594 -0.1192  0.2159
12333TIP3    H158490   6.753   4.857   3.660  2.2838  0.1252  1.3532
12333TIP3    H258491   6.795   4.856   3.515 -1.4726 -0.4711  0.1591
12334TIP3   OH258492   5.393   2.227  11.183 -0.3663 -1.0209 -0.8784
12334TIP3    H158493   5.313   2.265  11.147 -0.6072 -0.9511 -0.2788
12334TIP3    H258494   5.374   2.134  11.192 -0.1200 -1.1288 -1.4190
12335TIP3   OH258495   1.012   1.086   3.662  0.2295  0.5471  0.2520
12335TIP3    H158496   1.009   0.991   3.651  1.0579  0.5143  0.2831
12335TIP3    H258497   0.921   1.110   3.680 -0.5664  0.1086 -2.5957
12336TIP3   OH258498   5.238   4.366  16.055  0.4346  0.5296  0.1014
12336TIP3    H158499   5.146   4.343  16.066  0.7187 -0.2555  0.9807
12336TIP3    H258500   5.238   4.438  15.991 -0.6717 -0.2973 -0.8600
12337TIP3   OH258501   4.347   4.686  11.076  0.1493  0.0896 -0.1831
12337TIP3    H158502   4.320   4.660  11.164 -0.7996 -0.1135 -0.5243
12337TIP3    H258503   4.302   4.769  11.060 -1.7382 -1.0741 -1.4036
12338TIP3   OH258504   3.899   6.601  14.633  0.1292  0.0488  0.0931
12338TIP3    H158505   3.892   6.680  14.686 -0.5573 -0.3830  0.6646
12338TIP3    H258506   3.853   6.624  14.552  0.1370  0.3162  0.1609
12339TIP3   OH258507   0.253   4.160   5.136  0.2926  0.0671  0.2010
12339TIP3    H158508   0.293   4.204   5.061  1.7952 -3.4150 -1.2878
12339TIP3    H258509   0.209   4.084   5.097 -1.9644  0.0537  2.5576
12340TIP3   OH258510   1.361   4.273  16.727 -0.7058  0.0094 -0.5658
12340TIP3    H158511   1.334   4.345  16.670  3.0345  0.9505 -1.4066
12340TIP3    H258512   1.453   4.259  16.706 -0.7100 -3.6382  1.1336
12341TIP3   OH258513   5.003   6.470  15.261  0.3345 -0.0782  0.4234
12341TIP3    H158514   5.084   6.508  15.229 -0.1863  0.2170 -0.5994
12341TIP3    H258515   4.943   6.476  15.186 -1.7217  2.8611  2.0938
12342TIP3   OH258516   0.508   5.695  16.096  0.3939  0.5091  0.2339
12342TIP3    H158517   0.473   5.739  16.173 -3.4838  1.9902 -2.0611
12342TIP3    H258518   0.535   5.766  16.038  0.7091 -0.4495 -0.8314
12343TIP3   OH258519   6.532   0.655  15.724 -0.5750  0.1343  0.2402
12343TIP3    H158520   6.610   0.629  15.772 -0.0197  0.8392 -0.2497
12343TIP3    H258521   6.514   0.582  15.665 -0.8678 -0.4428  1.0306
12344TIP3   OH258522   6.551   6.640  14.965  0.2008  0.4190  0.8588
12344TIP3    H158523   6.621   6.690  14.923  2.0757 -1.5788  1.3973
12344TIP3    H258524   6.509   6.591  14.894  1.1301 -0.3778  0.8395
12345TIP3   OH258525   3.096   1.782   5.331  0.6409 -0.1065  0.0043
12345TIP3    H158526   3.105   1.876   5.312  0.9496  0.0865  1.0443
12345TIP3    H258527   3.057   1.779   5.419  2.8002 -0.9216  1.0090
12346TIP3   OH258528   3.321   6.421  15.034 -0.6271 -0.1960 -0.2553
12346TIP3    H158529   3.252   6.486  15.018  0.3814  0.9490 -0.0289
12346TIP3    H258530   3.390   6.469  15.080  0.7452 -1.0638 -1.3191
12347TIP3   OH258531   5.320   6.800  12.876  0.6549  0.3183  0.3848
12347TIP3    H158532   5.306   6.757  12.791 -2.3587 -0.6406  1.2327
12347TIP3    H258533   5.397   6.757  12.912  0.9935 -0.4479 -1.1579
12348TIP3   OH258534   2.523   4.698   1.713 -0.1364  0.0365  0.4894
12348TIP3    H158535   2.472   4.688   1.793 -0.1508 -2.0824  0.2755
12348TIP3    H258536   2.462   4.736   1.650 -0.3160  1.1037  1.2952
12349TIP3   OH258537   4.992   5.849  11.053 -0.0626 -0.0469  0.0084
12349TIP3    H158538   4.916   5.823  11.001  2.0034 -0.9922 -2.7552
12349TIP3    H258539   4.992   5.944  11.051 -1.5080 -0.0061  0.6620
12350TIP3   OH258540   1.342   5.902   5.576  0.2241  0.3817 -0.2827
12350TIP3    H158541   1.317   5.939   5.661  2.7672  1.4331  0.1074
12350TIP3    H258542   1.425   5.858   5.592 -0.7641 -2.1991 -1.6258
12351TIP3   OH258543   4.384   1.896  16.008  0.6754  0.0962 -0.1796
12351TIP3    H158544   4.323   1.832  15.971  0.5092 -0.6309  1.2801
12351TIP3    H258545   4.415   1.946  15.932  0.0690 -1.0703 -1.2363
12352TIP3   OH258546   5.459   6.135  12.298 -0.1157 -0.3326  0.3765
12352TIP3    H158547   5.520   6.065  12.323 -0.3955 -0.1354  1.7083
12352TIP3    H258548   5.417   6.160  12.380 -0.8203  0.6515 -0.2629
12353TIP3   OH258549   4.190   0.177   3.761 -0.0260 -0.0221  0.5801
12353TIP3    H158550   4.252   0.182   3.688  0.3685  0.4209  0.9369
12353TIP3    H258551   4.223   0.241   3.824 -2.6332  2.7023 -0.5615
12354TIP3   OH258552   3.281   1.546  16.620 -0.3522 -0.5192 -0.3513
12354TIP3    H158553   3.212   1.608  16.644 -0.0372 -0.5906  0.7945
12354TIP3    H258554   3.356   1.601  16.596 -0.7275 -0.4447 -1.4038
12355TIP3   OH258555   4.385   4.645   0.424 -0.6684 -0.0543 -0.4620
12355TIP3    H158556   4.385   4.740   0.437  0.2654 -0.1740  0.6629
12355TIP3    H258557   4.324   4.611   0.489 -1.5330 -0.2001 -1.3217
12356TIP3   OH258558   4.703   5.984   2.827  0.1849  0.2075 -0.1496
12356TIP3    H158559   4.677   6.063   2.874 -0.5974  0.8672 -1.6077
12356TIP3    H258560   4.655   5.913   2.869 -0.0219  0.6743  0.4121
12357TIP3   OH258561   2.945   6.104   1.119 -0.0349 -0.5111 -0.2217
12357TIP3    H158562   2.872   6.043   1.107 -0.7812  0.2375  0.4449
12357TIP3    H258563   2.904   6.187   1.143  1.0042  0.0961 -0.4712
12358TIP3   OH258564   5.385   5.451   4.865  0.5351 -0.2343 -0.1091
12358TIP3    H158565   5.351   5.375   4.818 -0.0114 -0.1547  0.1550
12358TIP3    H258566   5.479   5.449   4.848  0.6203 -1.2989  0.3583
12359TIP3   OH258567   1.247   5.562  11.143  0.0025  0.0099  0.0491
12359TIP3    H158568   1.164   5.572  11.095  0.9032 -0.5427 -1.7018
12359TIP3    H258569   1.287   5.649  11.141  0.8488 -0.3755 -1.8359
12360TIP3   OH258570   3.224   2.245   5.927 -0.5550  0.3763  0.3209
12360TIP3    H158571   3.143   2.196   5.940 -0.4915  0.5025  1.2799
12360TIP3    H258572   3.243   2.283   6.013  0.4578  0.4397  0.0832
12361TIP3   OH258573   4.832   6.643  16.767 -0.5406 -0.0037 -0.5021
12361TIP3    H158574   4.907   6.592  16.796  0.1529  0.8153 -0.8281
12361TIP3    H258575   4.862   6.734  16.769 -0.9231  0.1976 -2.3858
12362TIP3   OH258576   4.493   1.528  14.892 -0.0863 -0.2823  0.0799
12362TIP3    H158577   4.485   1.565  14.804  1.0714 -0.7023 -0.2242
12362TIP3    H258578   4.458   1.596  14.949 -0.4232  0.1920 -0.6658
12363TIP3   OH258579   5.563   0.268  11.091  0.1783 -0.7147  0.0252
12363TIP3    H158580   5.560   0.193  11.033 -0.2267  0.2895 -1.3021
12363TIP3    H258581   5.646   0.311  11.071  0.1739 -0.5193  0.4102
12364TIP3   OH258582   3.890   5.818   5.312 -0.1936 -0.2073  0.3553
12364TIP3    H158583   3.948   5.894   5.305 -1.0883  0.4077 -0.6835
12364TIP3    H258584   3.930   5.752   5.255  1.8404 -1.4501  2.9437
12365TIP3   OH258585   6.268   2.426   1.298  0.5727 -0.2043  0.8315
12365TIP3    H158586   6.210   2.428   1.375  0.0789  0.7248  0.4504
12365TIP3    H258587   6.321   2.347   1.310 -1.6041 -1.7706  0.5667
12366TIP3   OH258588   0.261   3.683  14.789  0.1909 -0.2316  0.5224
12366TIP3    H158589   0.331   3.634  14.747 -0.2347 -0.6624  0.3096
12366TIP3    H258590   0.181   3.637  14.764 -0.0709 -0.5104  1.8043
12367TIP3   OH258591   3.263   1.825   3.211  0.1531 -0.0682  1.0724
12367TIP3    H158592   3.323   1.848   3.282  0.3369 -1.4484  1.3949
12367TIP3    H258593   3.299   1.870   3.134  0.6852  0.4053  1.5908
12368TIP3   OH258594   4.559   5.485  14.871 -0.2428 -0.1525  0.3735
12368TIP3    H158595   4.572   5.413  14.933  1.2250 -0.3146 -0.0791
12368TIP3    H258596   4.577   5.445  14.785 -0.8582  0.4143 -0.0338
12369TIP3   OH258597   5.261   4.694   5.629 -0.8836 -0.8385  0.0031
12369TIP3    H158598   5.248   4.612   5.580  0.1694  0.1016 -2.0009
12369TIP3    H258599   5.278   4.759   5.561  0.4760  0.6216  1.6552
12370TIP3   OH258600   3.740   1.249   0.219  0.2637 -0.5351 -0.3796
12370TIP3    H158601   3.723   1.338   0.249  1.4714 -0.1842 -0.6717
12370TIP3    H258602   3.781   1.260   0.133  1.5752 -1.3057  0.1269
12371TIP3   OH258603   0.224   3.794   3.250  0.4134  1.1189 -0.1646
12371TIP3    H158604   0.291   3.742   3.205  1.1267  0.7694  1.2594
12371TIP3    H258605   0.162   3.729   3.284  0.9541  1.2186  1.0543
12372TIP3   OH258606   2.394   0.040  15.327 -0.1707  0.6793  0.7209
12372TIP3    H158607   2.382   0.019  15.419  1.1216  0.3948  0.8434
12372TIP3    H258608   2.396   0.136  15.324  3.9016  0.7969  1.6574
12373TIP3   OH258609   0.869   5.409   4.432  0.1829 -0.3247  0.2902
12373TIP3    H158610   0.797   5.392   4.370  2.3674 -1.4098 -2.1565
12373TIP3    H258611   0.860   5.501   4.454 -2.1531 -0.5070  0.3939
12374TIP3   OH258612   6.459   3.180   3.287 -0.0342 -0.1194 -0.1095
12374TIP3    H158613   6.468   3.088   3.263  1.1148  0.2426 -1.1782
12374TIP3    H258614   6.501   3.186   3.372 -1.1994 -0.7926  0.5432
12375TIP3   OH258615   2.464   3.502  12.235  1.0137  0.0149  0.3732
12375TIP3    H158616   2.556   3.487  12.212  0.9704 -1.1438  0.8834
12375TIP3    H258617   2.458   3.597  12.250  2.2663  0.0252  0.9278
12376TIP3   OH258618   4.859   5.606  11.379 -0.0417 -0.3681 -0.0802
12376TIP3    H158619   4.929   5.670  11.389 -1.0181  1.2717 -2.6254
12376TIP3    H258620   4.902   5.527  11.346  0.7125  0.5276 -1.3440
12377TIP3   OH258621   1.664   4.596  12.114 -0.0289  0.0954  0.2203
12377TIP3    H158622   1.688   4.588  12.206  1.0301  1.0405  0.0415
12377TIP3    H258623   1.732   4.651  12.076 -1.0609  0.6583 -0.8838
12378TIP3   OH258624   0.711   1.871  16.411  0.3526  0.2881  0.6634
12378TIP3    H158625   0.695   1.965  16.397 -1.2594 -0.2620 -1.6883
12378TIP3    H258626   0.807   1.864  16.418  0.4822  2.1215  1.3018
12379TIP3   OH258627   6.378   3.815   5.248  0.5703 -0.0491 -0.4039
12379TIP3    H158628   6.372   3.903   5.285  1.3337 -0.8780  1.8152
12379TIP3    H258629   6.396   3.830   5.155 -3.7483  2.1882 -1.1651
12380TIP3   OH258630   6.364   2.445  11.209  0.3726 -0.1894 -0.6966
12380TIP3    H158631   6.449   2.403  11.227  1.4651  1.7026 -1.2102
12380TIP3    H258632   6.333   2.403  11.129  1.4985  0.0419 -1.2706
12381TIP3   OH258633   4.725   4.457   0.081  0.2101  0.3180  0.1624
12381TIP3    H158634   4.768   4.417   0.157 -0.6816 -0.9974  0.0109
12381TIP3    H258635   4.656   4.395   0.057  0.0801  0.9986 -1.3517
12382TIP3   OH258636   3.583   6.131   0.772 -0.5810 -0.5000 -0.0795
12382TIP3    H158637   3.649   6.177   0.719 -1.4082 -0.8408 -1.4615
12382TIP3    H258638   3.504   6.183   0.762 -1.6866 -2.3733 -2.1106
12383TIP3   OH258639   3.900   6.041   1.602  0.2430  0.0779  0.5399
12383TIP3    H158640   3.908   6.022   1.695 -1.8468  0.0305  0.7481
12383TIP3    H258641   3.807   6.057   1.588  0.7127  1.6474 -1.2547
12384TIP3   OH258642   6.351   6.592  16.626 -0.5728 -0.1024  0.0035
12384TIP3    H158643   6.401   6.551  16.697  1.3338 -1.6526 -2.1201
12384TIP3    H258644   6.389   6.680  16.618 -0.4053 -0.1281  0.4821
12385TIP3   OH258645   3.413   2.815  13.085  0.4489 -0.6115  0.1604
12385TIP3    H158646   3.459   2.821  13.169 -0.7817  1.0766  0.7686
12385TIP3    H258647   3.390   2.722  13.077  3.3676 -1.4295  0.0868
12386TIP3   OH258648   0.700   5.248   5.191  0.1286 -0.4515 -0.8439
12386TIP3    H158649   0.738   5.233   5.105 -1.0587 -0.9425 -1.3148
12386TIP3    H258650   0.628   5.185   5.196 -0.3872  0.1925  0.1344
12387TIP3   OH258651   0.487   3.359   3.269  0.3456 -0.7484 -0.7155
12387TIP3    H158652   0.529   3.290   3.321 -0.7115 -0.3295  0.7592
12387TIP3    H258653   0.560   3.402   3.224  1.5693 -0.1375  1.6614
12388TIP3   OH258654   2.231   1.676  15.623  0.3149 -0.4117 -0.2602
12388TIP3    H158655   2.163   1.630  15.671  2.4213 -2.5937  0.8543
12388TIP3    H258656   2.241   1.626  15.542  2.5486 -2.1034  0.9153
12389TIP3   OH258657   1.046   5.043   3.583 -0.3453 -0.2319  0.3893
12389TIP3    H158658   1.027   5.097   3.660  0.1797 -1.2933  1.2831
12389TIP3    H258659   1.030   4.953   3.612  1.9224 -0.8346 -0.0575
12390TIP3   OH258660   4.914   1.075  10.633 -0.0494  0.3535  0.1674
12390TIP3    H158661   4.897   1.164  10.662  1.6259  0.0743  2.2464
12390TIP3    H258662   5.009   1.068  10.630 -0.1335 -1.5623  0.7322
12391TIP3   OH258663   5.796   1.227   3.863  0.0887 -0.1970  0.0590
12391TIP3    H158664   5.890   1.227   3.847 -0.0259 -0.4044 -0.6821
12391TIP3    H258665   5.777   1.140   3.897  0.3182  0.2097  1.2817
12392TIP3   OH258666   6.805   0.422  12.632 -0.0491  0.4045 -0.5357
12392TIP3    H158667   6.748   0.409  12.707  2.7251 -2.6302  1.2879
12392TIP3    H258668   6.881   0.468  12.667  1.1727 -0.8142 -1.4814
12393TIP3   OH258669   0.571   3.905  12.689  0.2944  0.0660 -0.0712
12393TIP3    H158670   0.595   3.963  12.761 -1.0292  0.1596  0.3171
12393TIP3    H258671   0.480   3.882  12.705  0.5713 -1.5582 -0.6156
12394TIP3   OH258672   5.251   6.300  15.628  0.2786  0.3776 -0.4607
12394TIP3    H158673   5.182   6.357  15.664  1.8864  1.8510  0.4478
12394TIP3    H258674   5.217   6.272  15.543 -1.7577  0.4206  0.2746
12395TIP3   OH258675   1.407   0.202   5.166 -0.8828 -0.0247 -0.5342
12395TIP3    H158676   1.395   0.114   5.130  0.2429  0.0674 -1.1937
12395TIP3    H258677   1.491   0.231   5.130 -0.0267  0.3641  1.6169
12396TIP3   OH258678   4.067   2.790   3.721 -0.2849  0.3828 -0.1200
12396TIP3    H158679   4.082   2.794   3.816  1.5001  2.4298 -0.4238
12396TIP3    H258680   4.117   2.863   3.685 -0.5506 -0.6031 -2.7215
12397TIP3   OH258681   1.875   5.171  14.477 -0.2155 -0.6909 -0.8585
12397TIP3    H158682   1.909   5.255  14.508  0.5882 -1.3501  0.1033
12397TIP3    H258683   1.798   5.154  14.531 -1.1456  0.0160 -1.9211
12398TIP3   OH258684   2.589   3.680  11.066  0.1318 -0.0545 -0.2580
12398TIP3    H158685   2.562   3.591  11.041  0.3156 -0.2146  0.1171
12398TIP3    H258686   2.549   3.736  10.999 -1.1093 -0.2919  0.2552
12399TIP3   OH258687   5.744   0.650   5.454 -0.0333  0.1095  0.0836
12399TIP3    H158688   5.801   0.616   5.384 -0.2010 -1.1835  0.5491
12399TIP3    H258689   5.779   0.611   5.534  0.1894  1.6292  0.7608
12400TIP3   OH258690   0.304   4.352  14.336  0.1057  0.7193  0.1449
12400TIP3    H158691   0.278   4.311  14.254 -0.1117 -0.0125  0.5737
12400TIP3    H258692   0.256   4.304  14.403 -0.6974  2.0957  0.6169
12401TIP3   OH258693   5.911   3.657   0.660 -0.0240 -0.6935  0.2902
12401TIP3    H158694   5.911   3.599   0.735 -0.9613 -0.1511  0.7398
12401TIP3    H258695   5.827   3.641   0.617  1.5738 -3.0185 -2.3147
12402TIP3   OH258696   4.792   1.412  16.009  0.0688 -0.6070  0.0506
12402TIP3    H158697   4.754   1.443  15.927 -0.3638  0.1912  0.5359
12402TIP3    H258698   4.861   1.474  16.029  1.4397 -1.8599 -0.6414
12403TIP3   OH258699   3.709   3.761  16.442  0.6470  0.0675 -0.0114
12403TIP3    H158700   3.683   3.701  16.372 -0.0045 -1.3413  1.3717
12403TIP3    H258701   3.688   3.848  16.408 -1.2323 -0.6893 -0.9365
12404TIP3   OH258702   1.257   1.334   0.652  0.0776 -0.0449 -0.2087
12404TIP3    H158703   1.339   1.359   0.611  0.4526 -0.4854  0.2539
12404TIP3    H258704   1.249   1.240   0.634  0.4221 -0.3209  1.0035
12405TIP3   OH258705   2.017   2.605   4.229  0.2676  0.0383 -0.3729
12405TIP3    H158706   1.994   2.651   4.310  0.6678  1.3580 -0.9730
12405TIP3    H258707   2.092   2.551   4.253  2.5838  2.8992 -0.5156
12406TIP3   OH258708   1.645   0.545  11.195  1.1546  0.2432 -0.2239
12406TIP3    H158709   1.636   0.532  11.101 -0.1487 -0.4242 -0.0347
12406TIP3    H258710   1.684   0.632  11.204 -0.1294  0.9772 -1.3690
12407TIP3   OH258711   1.131   4.604  16.216  0.0900  0.3378 -0.6656
12407TIP3    H158712   1.151   4.522  16.263  0.1055 -0.5047 -2.0935
12407TIP3    H258713   1.213   4.653  16.218  0.6491 -0.5352 -1.4494
12408TIP3   OH258714   1.117   4.932   5.378 -0.4919  0.4218  0.0041
12408TIP3    H158715   1.181   4.874   5.419  1.7541  1.4071 -1.8830
12408TIP3    H258716   1.032   4.892   5.397  0.8198 -2.4364  0.3244
12409TIP3   OH258717   1.600   2.198   4.790 -0.1860  0.3237  0.3865
12409TIP3    H158718   1.603   2.202   4.885  1.1634  0.0259  0.3894
12409TIP3    H258719   1.682   2.239   4.762 -0.1622 -0.3680 -0.6072
12410TIP3   OH258720   4.087   2.340  13.061  0.0343  0.4238 -0.1276
12410TIP3    H158721   4.036   2.284  13.119  1.0574  0.4507  0.8205
12410TIP3    H258722   4.156   2.283  13.026 -1.2158  0.1026 -2.2493
12411TIP3   OH258723   1.680   6.124   4.767 -0.2391 -0.3118 -0.0763
12411TIP3    H158724   1.602   6.179   4.777  1.9931  2.8953  2.0076
12411TIP3    H258725   1.695   6.088   4.855  1.1689  0.0111 -0.1700
12412TIP3   OH258726   2.412   1.075  11.617 -0.4138 -0.2591  0.8453
12412TIP3    H158727   2.392   1.157  11.571  1.1568  0.0046  0.5621
12412TIP3    H258728   2.473   1.029  11.558  0.5778 -0.5414  2.0504
12413TIP3   OH258729   4.753   0.399  11.626 -0.2037  0.2945  0.4367
12413TIP3    H158730   4.831   0.450  11.647 -0.5010  1.0604 -0.2141
12413TIP3    H258731   4.682   0.447  11.669  0.0701 -3.2844  5.8531
12414TIP3   OH258732   0.224   0.965   3.616 -0.0400  0.1632  0.5659
12414TIP3    H158733   0.182   0.879   3.619 -1.3744  0.7554 -0.4172
12414TIP3    H258734   0.162   1.023   3.661 -0.0032  0.9423 -0.3722
12415TIP3   OH258735   3.282   6.128  11.014  0.3415 -0.1856  0.2167
12415TIP3    H158736   3.272   6.045  11.060 -0.5094 -1.1323 -1.6053
12415TIP3    H258737   3.291   6.105  10.922  0.9605  1.7034 -0.2481
12416TIP3   OH258738   5.826   2.186  15.052  0.2628  0.5635  0.2590
12416TIP3    H158739   5.906   2.175  15.002  0.2247  1.5349 -0.0378
12416TIP3    H258740   5.800   2.097  15.076  0.6164  0.1174 -0.9231
12417TIP3   OH258741   1.393   3.867   2.792  0.1551  0.2563  0.2619
12417TIP3    H158742   1.310   3.898   2.758 -0.2313 -0.7993  0.2070
12417TIP3    H258743   1.401   3.909   2.878 -0.4336  0.3689  0.2669
12418TIP3   OH258744   4.879   5.442  12.255  0.3136 -0.0119 -0.4190
12418TIP3    H158745   4.964   5.480  12.236  0.4604  0.6686  1.4043
12418TIP3    H258746   4.852   5.401  12.173  1.6384  1.1777 -1.4967
12419TIP3   OH258747   0.831   6.065  15.134  0.9166  0.0619 -0.3517
12419TIP3    H158748   0.875   6.149  15.149  0.7433 -0.1146  1.4097
12419TIP3    H258749   0.829   6.055  15.039  0.2868  2.4036 -0.6458
12420TIP3   OH258750   2.977   1.035   6.419  0.2015 -0.5372 -0.2958
12420TIP3    H158751   2.917   0.960   6.420 -0.8804  0.3081  0.1386
12420TIP3    H258752   2.920   1.111   6.431  1.3962  0.2842  0.3024
12421TIP3   OH258753   1.475   2.778   4.580 -0.8411  0.4549  0.4257
12421TIP3    H158754   1.570   2.784   4.567 -0.8205  0.1216  0.4094
12421TIP3    H258755   1.455   2.685   4.564 -1.4962  0.9210 -1.8431
12422TIP3   OH258756   2.688   6.313   1.116  0.2891  0.0021 -0.2822
12422TIP3    H158757   2.683   6.344   1.026  1.6323  0.1987 -0.3044
12422TIP3    H258758   2.764   6.358   1.153  0.0101 -0.4029  0.8196
12423TIP3   OH258759   5.595   0.009  11.906  0.6296 -0.0722 -0.3607
12423TIP3    H158760   5.599  -0.062  11.842 -0.3013  0.6051 -1.2040
12423TIP3    H258761   5.651  -0.020  11.978 -1.0692 -2.4567  0.1007
12424TIP3   OH258762   4.629   2.875  11.168  0.7105  0.5389  0.0779
12424TIP3    H158763   4.706   2.901  11.218  0.8009  0.2750  0.0787
12424TIP3    H258764   4.608   2.951  11.115  0.0448  1.1770  1.2055
12425TIP3   OH258765   4.205   6.525  14.769 -0.0333 -0.5401  0.2949
12425TIP3    H158766   4.178   6.606  14.725 -0.2405 -1.1682 -0.7679
12425TIP3    H258767   4.125   6.493  14.811  0.1329 -0.0133  1.0373
12426TIP3   OH258768   5.348   1.121   0.539 -0.2690 -0.6525  0.3469
12426TIP3    H158769   5.301   1.063   0.480  1.0744 -2.1252  0.6529
12426TIP3    H258770   5.420   1.157   0.486 -1.8865  1.9474 -0.2566
12427TIP3   OH258771   1.968   0.462   0.270  0.0198 -0.4382  0.3526
12427TIP3    H158772   1.885   0.417   0.284  0.4758 -1.2127  0.6149
12427TIP3    H258773   2.017   0.404   0.211  1.2550 -1.1074  1.9675
12428TIP3   OH258774   0.138   2.619   3.020  0.5064  0.7691 -0.2196
12428TIP3    H158775   0.076   2.557   2.982  0.5510  0.8822 -0.4796
12428TIP3    H258776   0.087   2.698   3.035  0.1191  0.2590  1.3461
12429TIP3   OH258777   3.911   1.587   5.685 -0.0580  0.3985 -0.1993
12429TIP3    H158778   3.881   1.611   5.773 -0.2626 -2.1942  0.5410
12429TIP3    H258779   4.006   1.587   5.691 -0.0546  1.1785 -0.2622
12430TIP3   OH258780   3.882   2.048  12.083  0.2595  0.2124  0.5175
12430TIP3    H158781   3.936   1.991  12.137  0.3330  0.3571  0.5972
12430TIP3    H258782   3.857   2.120  12.141  0.9767  0.7726  0.1429
12431TIP3   OH258783   1.816   3.100  14.855 -0.2811  0.9033  0.4635
12431TIP3    H158784   1.729   3.097  14.814 -0.0540  0.7407 -0.0160
12431TIP3    H258785   1.874   3.133  14.786  0.5493 -1.6110 -0.1439
12432TIP3   OH258786   2.418   3.790   2.488 -0.5189 -0.0135  0.0092
12432TIP3    H158787   2.484   3.794   2.419 -1.3490 -0.7670 -0.8676
12432TIP3    H258788   2.468   3.787   2.569  0.5160 -0.3146 -0.6219
12433TIP3   OH258789   3.066   2.063   5.394  0.4015  0.3395 -0.1820
12433TIP3    H158790   3.059   2.099   5.483  0.7749 -2.2528  0.9839
12433TIP3    H258791   2.986   2.093   5.350 -0.0097  1.3113  1.1420
12434TIP3   OH258792   3.876   2.726  11.759  0.1511  0.2438 -0.3403
12434TIP3    H158793   3.865   2.643  11.806 -1.2898  1.0976  0.9050
12434TIP3    H258794   3.857   2.793  11.824  1.3372  1.5797 -1.3144
12435TIP3   OH258795   4.605   4.939   0.399 -0.1156 -0.1270 -0.8131
12435TIP3    H158796   4.686   4.971   0.359 -0.1137  0.0684 -0.6572
12435TIP3    H258797   4.633   4.867   0.455  0.6182  2.4231  2.4667
12436TIP3   OH258798   5.624   4.280   5.186  0.2015 -0.5048 -0.2245
12436TIP3    H158799   5.628   4.313   5.097 -0.7205  2.3325  0.6647
12436TIP3    H258800   5.532   4.291   5.211  0.5322 -0.7781  1.2036
12437TIP3   OH258801   6.317   4.857  11.942 -0.0594  0.1055 -0.0026
12437TIP3    H158802   6.311   4.906  12.024  1.1804 -0.3778  0.3850
12437TIP3    H258803   6.299   4.922  11.874  1.0180  0.9833  0.5361
12438TIP3   OH258804   6.493   5.976   4.556 -0.0253  0.6558 -0.0253
12438TIP3    H158805   6.424   6.030   4.518 -0.4570 -1.0000 -1.7134
12438TIP3    H258806   6.548   6.038   4.604 -0.2548  2.6677 -2.1863
12439TIP3   OH258807   1.385   3.988   0.817  0.3959  0.3892 -0.4126
12439TIP3    H158808   1.438   3.961   0.891 -1.2534 -0.0501  0.6618
12439TIP3    H258809   1.365   3.907   0.770 -1.6948  0.1131  0.8560
12440TIP3   OH258810   1.737   4.779  10.801  0.5530 -0.2363  0.1444
12440TIP3    H158811   1.728   4.779  10.896 -0.1993  0.2618  0.0818
12440TIP3    H258812   1.806   4.843  10.783 -1.8458  2.6071  0.1890
12441TIP3   OH258813   6.527   3.263   3.925 -0.2837 -0.1479 -0.6992
12441TIP3    H158814   6.567   3.190   3.879  0.7239 -1.0235  1.4177
12441TIP3    H258815   6.464   3.222   3.985  0.3220  0.6872  0.5430
12442TIP3   OH258816   5.618   3.081   1.469  0.1536  0.1519  0.1895
12442TIP3    H158817   5.695   3.052   1.420  0.6410  1.4091  0.1753
12442TIP3    H258818   5.636   3.054   1.559  0.0430 -0.6396 -0.0170
12443TIP3   OH258819   4.093   2.009  13.120 -0.1303 -0.4085  0.0470
12443TIP3    H158820   4.038   1.951  13.069 -0.0507 -0.7965  0.3952
12443TIP3    H258821   4.157   2.043  13.058  0.8078 -1.9069  0.1408
12444TIP3   OH258822   0.710   0.719   4.822 -0.0322  0.3009 -0.4988
12444TIP3    H158823   0.647   0.727   4.893 -0.2004 -0.4018 -0.5664
12444TIP3    H258824   0.747   0.807   4.813  0.6488  0.2071  1.0602
12445TIP3   OH258825   0.506   3.070  14.007 -0.0958  0.1593  0.2278
12445TIP3    H158826   0.583   3.124  14.023  0.0109  0.4635 -1.2054
12445TIP3    H258827   0.541   2.986  13.976 -0.2772 -0.6431  2.0338
12446TIP3   OH258828   5.883   6.506  16.650  0.5130 -0.0151  0.1155
12446TIP3    H158829   5.946   6.566  16.610  0.6959  0.0474  0.5013
12446TIP3    H258830   5.809   6.562  16.673  0.0445 -0.1838 -0.8980
12447TIP3   OH258831   6.176   0.400  11.422  0.3736 -0.1404 -0.2668
12447TIP3    H158832   6.169   0.336  11.492 -1.5722  0.5313  0.2054
12447TIP3    H258833   6.233   0.358  11.357 -1.1810 -2.5503 -0.1881
12448TIP3   OH258834   2.807   3.990   3.202 -0.4177  0.1435 -0.1684
12448TIP3    H158835   2.835   3.913   3.152  0.9608  0.4352  0.0977
12448TIP3    H258836   2.753   4.040   3.142 -0.4563 -0.5122 -0.6910
12449TIP3   OH258837   6.783   2.748  15.242  0.2119  0.4920  0.3349
12449TIP3    H158838   6.785   2.665  15.195  1.8854  0.1680  0.9113
12449TIP3    H258839   6.740   2.809  15.182  0.8036 -0.2948 -0.9212
12450TIP3   OH258840   2.741   4.547  10.541  0.4541  0.0372  0.1134
12450TIP3    H158841   2.775   4.526  10.453  0.4398 -1.9488  0.5440
12450TIP3    H258842   2.646   4.539  10.532  0.1869  2.7333 -0.3594
12451TIP3   OH258843   2.605   2.522   5.301 -0.0341  0.1084  0.6607
12451TIP3    H158844   2.568   2.559   5.381  0.6353  3.8461 -0.5640
12451TIP3    H258845   2.694   2.496   5.325 -0.3768 -0.3567  1.4748
12452TIP3   OH258846   5.881   4.920  12.390 -0.5954  0.2438 -0.5670
12452TIP3    H158847   5.951   4.909  12.454 -1.5578 -1.2025  0.2799
12452TIP3    H258848   5.926   4.952  12.311  0.9787 -0.4102  0.0220
12453TIP3   OH258849   4.429   3.880  14.272  0.3843  0.8092  0.3979
12453TIP3    H158850   4.338   3.895  14.297  0.0085  0.0348 -0.4080
12453TIP3    H258851   4.423   3.842  14.184  1.4467  0.0412  0.6372
12454TIP3   OH258852   4.426   3.038  14.057  0.4911 -1.1502  0.4493
12454TIP3    H158853   4.512   3.062  14.022 -0.1835 -0.6557 -0.9645
12454TIP3    H258854   4.432   2.944  14.076  1.0163 -1.3642 -0.7004
12455TIP3   OH258855   4.249   2.043  11.859 -0.4649 -0.5575  0.4203
12455TIP3    H158856   4.167   1.996  11.869 -0.9287  0.5156  2.2255
12455TIP3    H258857   4.226   2.121  11.809 -0.2762 -0.8389 -0.1166
12456TIP3   OH258858   0.694   4.480  12.161 -0.3428  0.7190  0.6334
12456TIP3    H158859   0.599   4.489  12.152 -0.3467  0.6885  0.6422
12456TIP3    H258860   0.705   4.416  12.232 -0.3154  0.7457  0.6528
12457TIP3   OH258861   3.085   5.813  15.438  0.2349  0.7844  0.0738
12457TIP3    H158862   3.177   5.840  15.433 -0.1695  2.1155 -0.6344
12457TIP3    H258863   3.042   5.883  15.487 -0.1969 -0.4848  1.6012
12458TIP3   OH258864   1.763   0.607   0.833 -0.0077 -1.3650 -0.0984
12458TIP3    H158865   1.683   0.649   0.864 -1.3035 -1.1308 -3.3671
12458TIP3    H258866   1.738   0.563   0.752  2.8657 -2.6128 -0.4564
12459TIP3   OH258867   1.036   3.980  11.222 -0.1126  0.0814  0.1610
12459TIP3    H158868   1.007   3.906  11.170 -1.8001  1.7733 -1.4473
12459TIP3    H258869   1.008   3.959  11.311 -0.8175 -1.0974 -0.3212
12460TIP3   OH258870   3.659   4.777   1.739  0.3529  0.0183 -0.0763
12460TIP3    H158871   3.619   4.839   1.678  1.7758 -0.4751 -1.5754
12460TIP3    H258872   3.740   4.819   1.766  1.1201 -0.9700 -0.7677
12461TIP3   OH258873   1.910   0.335   5.080 -0.2607 -0.2416 -0.2322
12461TIP3    H158874   1.936   0.353   4.989  1.9821 -0.8376  0.2174
12461TIP3    H258875   1.916   0.240   5.088 -0.5670 -0.2051  0.5005
12462TIP3   OH258876   2.916   6.028   3.421  0.2797  0.5527 -0.0514
12462TIP3    H158877   2.957   6.053   3.339 -1.5338 -0.5986 -1.4075
12462TIP3    H258878   2.880   5.940   3.404 -1.4623  0.9032  1.4502
12463TIP3   OH258879   2.772   1.457   3.243 -0.5422 -0.1432  0.6346
12463TIP3    H158880   2.809   1.543   3.265 -0.7570  0.3785 -0.8943
12463TIP3    H258881   2.678   1.470   3.248 -0.5725 -0.3414  0.5774
12464TIP3   OH258882   0.746   1.173  16.104  0.1352  0.7447  0.0260
12464TIP3    H158883   0.767   1.219  16.185  3.1159  0.4553 -0.4444
12464TIP3    H258884   0.814   1.201  16.042  0.5762 -2.2598 -1.0465
12465TIP3   OH258885   0.701   6.045   1.949  0.0978  0.3303 -0.0267
12465TIP3    H158886   0.748   6.090   2.019 -0.4019  0.8423 -0.0107
12465TIP3    H258887   0.625   6.101   1.931  0.0012 -0.0052 -0.6967
12466TIP3   OH258888   3.996   0.049  11.404  0.1016  0.1605  0.3127
12466TIP3    H158889   3.994  -0.044  11.384  1.9868 -0.1086  1.1991
12466TIP3    H258890   3.909   0.067  11.440  0.8438 -2.1778  3.7289
12467TIP3   OH258891   2.803   2.343   3.979 -0.1901 -0.2046 -0.5969
12467TIP3    H158892   2.819   2.267   3.923 -1.0141  0.0451 -1.1956
12467TIP3    H258893   2.828   2.418   3.924  0.3101 -0.0184 -0.1259
12468TIP3   OH258894   2.796   0.702  13.783 -0.0087 -0.2742 -0.2316
12468TIP3    H158895   2.815   0.734  13.695  2.7822  2.1729  1.0935
12468TIP3    H258896   2.764   0.613  13.770 -1.8982  0.7569 -3.7877
12469TIP3   OH258897   6.607   2.483   5.509 -0.5975  0.5079  0.2788
12469TIP3    H158898   6.577   2.553   5.567  0.3568  0.8966  0.3198
12469TIP3    H258899   6.663   2.428   5.565 -0.0798  0.5985 -0.1443
12470TIP3   OH258900   5.628   4.782   4.061  0.7332  0.4797  0.0736
12470TIP3    H158901   5.698   4.717   4.067  1.4358  1.0791 -1.2127
12470TIP3    H258902   5.628   4.824   4.147 -0.4605 -1.8786  1.3254
12471TIP3   OH258903   3.584   6.225  11.159  0.1851 -0.0123 -0.0115
12471TIP3    H158904   3.515   6.232  11.226 -0.4969  1.0530 -0.8056
12471TIP3    H258905   3.665   6.224  11.210 -0.3042  1.0515  0.8462
12472TIP3   OH258906   4.171   0.755  13.123  0.2047 -0.3302 -0.1526
12472TIP3    H158907   4.199   0.701  13.196 -1.1934 -0.9927 -0.0758
12472TIP3    H258908   4.081   0.780  13.144  0.4858  1.2252 -0.6621
12473TIP3   OH258909   5.780   3.315   2.179  0.1560  0.6572  0.3972
12473TIP3    H158910   5.842   3.380   2.211 -0.5339  1.8326 -0.5623
12473TIP3    H258911   5.834   3.250   2.134  0.7996  0.9130  0.7956
12474TIP3   OH258912   6.217   5.566   3.974 -0.1037  1.1634  0.2466
12474TIP3    H158913   6.162   5.555   3.896  0.6326 -2.1661  0.0362
12474TIP3    H258914   6.254   5.654   3.965 -0.4726  1.1134 -2.9169
12475TIP3   OH258915   5.225   3.406   5.803 -0.3230  0.0939 -0.7005
12475TIP3    H158916   5.147   3.382   5.753  0.3439  0.3910 -1.9202
12475TIP3    H258917   5.237   3.333   5.864 -1.5579  0.0578 -0.4808
12476TIP3   OH258918   0.086   2.055  11.141 -0.3156  0.2124  0.5551
12476TIP3    H158919   0.159   2.115  11.128 -1.1439  1.2057  0.3917
12476TIP3    H258920   0.055   2.074  11.229 -0.6233  0.0561  0.4794
12477TIP3   OH258921   6.000   1.886  12.817  0.2881  0.3766 -0.5491
12477TIP3    H158922   5.943   1.913  12.745 -0.4753  1.3268  0.3841
12477TIP3    H258923   5.944   1.835  12.875  1.2677 -1.7062 -1.3522
12478TIP3   OH258924   2.780   2.651  15.641 -0.7237  0.5295  0.1418
12478TIP3    H158925   2.808   2.675  15.552 -2.3302  0.0643 -0.5342
12478TIP3    H258926   2.709   2.713  15.661 -0.0407  0.9554  1.3249
12479TIP3   OH258927   3.375   4.922  12.549  0.2926  0.1833  0.4273
12479TIP3    H158928   3.341   5.004  12.586 -1.2360 -0.4048  0.3823
12479TIP3    H258929   3.416   4.948  12.466 -1.2275  0.7798 -0.1741
12480TIP3   OH258930   3.856   3.511  15.430  0.3765  0.2087  0.4151
12480TIP3    H158931   3.867   3.569  15.355 -0.6405  0.5694  0.5310
12480TIP3    H258932   3.943   3.507  15.470  0.4792  1.6059  0.3727
12481TIP3   OH258933   0.240   3.436  15.364 -0.1427 -0.5501  0.1652
12481TIP3    H158934   0.333   3.458  15.371 -0.0852 -0.6967 -0.1206
12481TIP3    H258935   0.196   3.505  15.413  0.2355 -1.7057  2.2336
12482TIP3   OH258936   4.450   0.996   0.109  0.2924 -0.0138  0.2598
12482TIP3    H158937   4.396   1.033   0.179 -0.6896 -0.9682  0.0370
12482TIP3    H258938   4.523   0.955   0.155  0.3266  0.4495  0.6309
12483TIP3   OH258939   2.392   0.552   4.494 -0.4458 -0.6675 -1.2254
12483TIP3    H158940   2.464   0.576   4.551 -1.0552  1.5390 -1.2981
12483TIP3    H258941   2.335   0.497   4.548 -1.1921  1.6511  0.4661
12484TIP3   OH258942   6.731   1.124  12.399 -0.2369 -0.4451 -0.1449
12484TIP3    H158943   6.763   1.208  12.366 -2.6237  0.0608 -1.4230
12484TIP3    H258944   6.779   1.110  12.480 -0.2809  2.5207  0.5152
12485TIP3   OH258945   3.419   6.361  13.205 -0.3354  0.3354  0.2263
12485TIP3    H158946   3.495   6.416  13.186  1.1611 -1.7606 -0.2578
12485TIP3    H258947   3.439   6.277  13.163 -3.0847 -0.2259 -0.2012
12486TIP3   OH258948   6.114   6.035  13.371 -0.2355 -0.1651 -0.5460
12486TIP3    H158949   6.072   5.950  13.377 -0.5326  0.0770  1.5836
12486TIP3    H258950   6.045   6.098  13.394  0.4350  0.5052 -0.3189
12487TIP3   OH258951   0.636   4.531  14.625  0.1097 -0.2525  0.1421
12487TIP3    H158952   0.589   4.473  14.685  0.0794  3.1563  3.8744
12487TIP3    H258953   0.728   4.517  14.646  0.1499  0.2994  0.3475
12488TIP3   OH258954   0.817   6.403  15.967 -0.0350  0.1945 -0.2953
12488TIP3    H158955   0.797   6.481  16.018  0.2561 -0.0385  0.1712
12488TIP3    H258956   0.763   6.412  15.888 -1.7725 -0.2431  0.7844
12489TIP3   OH258957   6.495   1.213   3.576 -0.4093  0.0431 -0.2152
12489TIP3    H158958   6.534   1.130   3.551 -0.2546  0.1769 -0.4216
12489TIP3    H258959   6.409   1.190   3.610 -0.2945 -0.2176 -0.0970
12490TIP3   OH258960   3.600   1.096  12.487 -0.2862 -0.1827  0.2344
12490TIP3    H158961   3.647   1.053  12.558  2.1419  2.8105  0.6807
12490TIP3    H258962   3.586   1.186  12.518 -0.6177  0.7925 -2.4201
12491TIP3   OH258963   6.046   4.022  12.335  0.0595  0.2304  0.4502
12491TIP3    H158964   6.131   3.980  12.347 -0.2662  0.0428  2.4018
12491TIP3    H258965   6.066   4.116  12.330  0.3699  0.2024  1.1025
12492TIP3   OH258966   0.004   5.901  12.947 -0.4751  0.5827 -0.1719
12492TIP3    H158967   0.021   5.817  12.904  4.2196  0.7884  0.6909
12492TIP3    H258968   0.048   5.965  12.891 -2.2138  2.2146  0.2552
12493TIP3   OH258969   1.661   6.115   3.569 -0.0172 -0.1445 -0.3608
12493TIP3    H158970   1.633   6.065   3.492 -1.7651  0.2857 -0.0287
12493TIP3    H258971   1.583   6.121   3.624  1.0071  0.2120  1.1032
12494TIP3   OH258972   1.210   5.657  12.662  0.1071 -0.1367  0.3028
12494TIP3    H158973   1.200   5.719  12.733  0.1864 -0.0707  0.2569
12494TIP3    H258974   1.255   5.706  12.593  2.7648 -0.9831  1.2954
12495TIP3   OH258975   1.401   1.301  11.102  0.5831  0.1565  0.1543
12495TIP3    H158976   1.471   1.331  11.043 -0.1120  1.1059 -0.2184
12495TIP3    H258977   1.432   1.324  11.189  1.3962 -0.7982  0.1308
12496TIP3   OH258978   5.225   1.159  13.003 -0.1788  0.4368  0.0399
12496TIP3    H158979   5.179   1.135  12.923 -0.7314 -1.2220  0.8084
12496TIP3    H258980   5.206   1.088  13.064  0.6017  1.4290  1.5050
12497TIP3   OH258981   1.859   4.339  15.240  0.0142 -0.8563  0.3464
12497TIP3    H158982   1.840   4.433  15.247 -2.0157 -1.3466  2.4685
12497TIP3    H258983   1.899   4.330  15.154 -1.4130  1.7192 -0.7191
12498TIP3   OH258984   4.627   3.679   4.596 -0.2097 -0.1520  0.5420
12498TIP3    H158985   4.690   3.742   4.561 -0.3762 -0.4185 -0.2538
12498TIP3    H258986   4.620   3.702   4.689  1.0456 -0.1102  0.6482
12499TIP3   OH258987   0.195   0.336  13.735  0.3564  0.0386  0.5204
12499TIP3    H158988   0.133   0.407  13.717  1.0126  0.6071  0.4611
12499TIP3    H258989   0.247   0.328  13.656  2.0901  1.3670  1.4560
12500TIP3   OH258990   1.297   0.205   1.335 -0.2330 -0.9704  0.2534
12500TIP3    H158991   1.286   0.113   1.358 -0.6641 -0.8528  0.5418
12500TIP3    H258992   1.376   0.232   1.382 -0.9330 -0.8152  1.3845
12501TIP3   OH258993   4.394   5.867  11.848 -0.3323 -0.2098 -0.1435
12501TIP3    H158994   4.488   5.851  11.852 -0.1117  0.7913 -0.7871
12501TIP3    H258995   4.387   5.962  11.836 -1.4638 -0.1150  1.0835
12502TIP3   OH258996   2.470   2.470   0.516  0.3604 -0.2008  0.7244
12502TIP3    H158997   2.455   2.385   0.473 -0.4340 -0.4865  1.5319
12502TIP3    H258998   2.562   2.469   0.540  0.7740 -0.1138 -0.7881
12503TIP3   OH258999   1.343   6.257  11.862  0.3154  0.3767 -0.4776
12503TIP3    H159000   1.408   6.219  11.804 -0.0782 -1.5754  0.3069
12503TIP3    H259001   1.342   6.200  11.939 -1.4669  1.0304  0.0451
12504TIP3   OH259002   1.191   2.436   2.057  0.5681 -0.3981 -0.0358
12504TIP3    H159003   1.142   2.433   1.975  1.4289  0.0517 -0.5798
12504TIP3    H259004   1.244   2.515   2.050  2.0657 -1.3453  0.1270
12505TIP3   OH259005   3.507   2.188   6.467  0.0169 -0.0192  0.1292
12505TIP3    H159006   3.445   2.130   6.423  0.2055  1.2293 -1.9110
12505TIP3    H259007   3.454   2.262   6.495  0.4397  0.8089 -1.1622
12506TIP3   OH259008   2.354   2.980  10.232  0.1237 -0.7336 -0.4062
12506TIP3    H159009   2.383   2.889  10.226 -0.7833 -0.9760 -1.4385
12506TIP3    H259010   2.278   2.977  10.290  0.3268 -0.5717 -0.1309
12507TIP3   OH259011   5.274   0.724   5.188 -0.7463  0.1066 -0.1942
12507TIP3    H159012   5.257   0.785   5.117 -0.9431 -1.2074 -1.3243
12507TIP3    H259013   5.225   0.759   5.262 -0.8460  1.3044 -0.8015
12508TIP3   OH259014   0.597   1.222  14.649  0.1074  0.5158 -0.4734
12508TIP3    H159015   0.629   1.311  14.639  0.3650  0.6434  1.1728
12508TIP3    H259016   0.506   1.231  14.678 -0.1077  0.2260 -1.0424
12509TIP3   OH259017   6.145   3.201  15.381 -0.5275 -0.5914  0.4630
12509TIP3    H159018   6.063   3.157  15.359 -1.0657  1.2873 -1.6755
12509TIP3    H259019   6.213   3.134  15.368 -1.5768 -1.7365  0.7427
12510TIP3   OH259020   5.624   5.578  10.861 -0.3332  0.3287 -0.1476
12510TIP3    H159021   5.556   5.511  10.868 -0.5537  0.5709  0.0550
12510TIP3    H259022   5.690   5.539  10.804 -0.7131  0.1457 -0.4714
12511TIP3   OH259023   1.176   1.540   2.784  0.0200 -0.1140 -0.1494
12511TIP3    H159024   1.161   1.449   2.757 -0.7670  0.5246 -2.0325
12511TIP3    H259025   1.091   1.571   2.813  0.5702 -0.3465  1.8530
12512TIP3   OH259026   5.837   1.363   1.642 -0.3058 -0.7178 -0.1625
12512TIP3    H159027   5.769   1.422   1.674  1.7307  0.9398  1.4882
12512TIP3    H259028   5.861   1.311   1.719  0.5736 -0.9181 -0.5555
12513TIP3   OH259029   0.603   2.231  11.017 -0.3051  0.2269 -0.3335
12513TIP3    H159030   0.632   2.287  11.089 -0.4013 -0.2846  0.1040
12513TIP3    H259031   0.617   2.142  11.048 -0.1466  0.0045 -1.0332
12514TIP3   OH259032   6.631   1.008   2.502  0.1344  0.5862 -0.0342
12514TIP3    H159033   6.547   1.021   2.459 -0.4574 -0.6217  0.7188
12514TIP3    H259034   6.610   0.977   2.589  1.3355 -1.3008 -0.3523
12515TIP3   OH259035   4.929   1.387   4.229  0.1746 -0.3420  0.0152
12515TIP3    H159036   5.019   1.410   4.208  0.8905 -1.3470  1.7964
12515TIP3    H259037   4.915   1.423   4.317 -1.4317  0.4208 -0.4985
12516TIP3   OH259038   3.777   2.058  13.820  0.3892 -0.4066 -0.2449
12516TIP3    H159039   3.819   2.051  13.906  1.7976 -0.6384 -0.9198
12516TIP3    H259040   3.732   1.974  13.808 -2.6207  0.7916  1.6067
12517TIP3   OH259041   3.042   0.463   1.965  0.4493  0.3109  0.0022
12517TIP3    H159042   3.019   0.537   1.908 -0.8671 -0.3229 -0.3507
12517TIP3    H259043   2.993   0.479   2.046  0.6871  0.1655  0.1751
12518TIP3   OH259044   3.286   2.143  14.460 -0.8843  0.3394 -0.1173
12518TIP3    H159045   3.227   2.147  14.535  0.1459  0.4945  0.7028
12518TIP3    H259046   3.285   2.231  14.423  0.7354  1.0647  1.4242
12519TIP3   OH259047   5.475   5.338  10.879 -0.5528 -0.0626 -0.1910
12519TIP3    H159048   5.507   5.261  10.831  0.2638  1.3750 -2.0319
12519TIP3    H259049   5.399   5.306  10.927  1.1256 -2.6069  1.0059
12520TIP3   OH259050   2.961   3.535  13.847  0.2180  0.4895 -0.4378
12520TIP3    H159051   2.881   3.585  13.830 -1.7199 -2.0635  0.5119
12520TIP3    H259052   3.000   3.523  13.761 -3.0252 -2.1582 -1.7835
12521TIP3   OH259053   0.910   4.329  10.413  0.1970 -0.0633 -0.6794
12521TIP3    H159054   0.925   4.312  10.320  0.5885  0.7457 -0.7623
12521TIP3    H259055   0.899   4.423  10.420 -0.8696 -0.2145 -0.0476
12522TIP3   OH259056   1.140   5.250   3.087 -0.0588 -0.6467  0.0602
12522TIP3    H159057   1.184   5.239   3.003  1.9960  0.2482  0.9560
12522TIP3    H259058   1.162   5.171   3.136  1.2097  0.0998  0.7532
12523TIP3   OH259059   5.282   6.827   1.651  0.2116 -0.0782  0.1682
12523TIP3    H159060   5.210   6.769   1.675 -0.3333  0.7233  0.5016
12523TIP3    H259061   5.243   6.888   1.588  0.9562 -0.5060 -0.7306
12524TIP3   OH259062   6.266   4.266  14.257  0.6637 -0.2853 -0.3531
12524TIP3    H159063   6.256   4.299  14.168 -1.0792 -1.1029 -0.4970
12524TIP3    H259064   6.184   4.221  14.276  1.2349 -0.6716  1.4514
12525TIP3   OH259065   0.964   1.793  16.700 -0.3564 -0.0599  0.7206
12525TIP3    H159066   1.038   1.745  16.662  1.1859  2.2575  0.5457
12525TIP3    H259067   0.897   1.727  16.715  0.8916 -1.9061 -1.2651
12526TIP3   OH259068   1.648   6.225  16.045 -0.4887  0.0642 -0.0134
12526TIP3    H159069   1.595   6.276  15.983  2.0330  0.2368 -2.1913
12526TIP3    H259070   1.683   6.153  15.994  0.9822 -0.3279  1.4514
12527TIP3   OH259071   3.013   6.022  10.300  0.0765  0.3718  0.8553
12527TIP3    H159072   2.985   6.098  10.351  1.0664  1.2869  0.0699
12527TIP3    H259073   2.967   6.030  10.217  0.6416  0.4524  0.5423
12528TIP3   OH259074   3.281   5.118   4.060  0.4137 -0.1526  0.2949
12528TIP3    H159075   3.208   5.106   4.120 -0.3880 -0.5364 -0.7376
12528TIP3    H259076   3.260   5.198   4.012  0.3889 -0.5694 -0.3966
12529TIP3   OH259077   2.014   3.508  13.416 -0.1057 -0.0241  0.0054
12529TIP3    H159078   2.015   3.518  13.512  0.9154  2.7714 -0.1943
12529TIP3    H259079   2.071   3.433  13.399  0.3855 -0.0408  1.5670
12530TIP3   OH259080   6.357   4.803  11.623  0.3248 -0.2485  0.0367
12530TIP3    H159081   6.441   4.779  11.582  0.6631  0.4454  0.3167
12530TIP3    H259082   6.378   4.877  11.679 -0.2431 -0.8723  1.0877
12531TIP3   OH259083   0.054   2.924  16.200 -0.0730  0.1582  0.5690
12531TIP3    H159084  -0.013   2.872  16.156 -0.4509  0.7951  0.3884
12531TIP3    H259085   0.118   2.859  16.230 -0.9351 -0.4896  1.0524
12532TIP3   OH259086   0.840   5.099   0.096  0.3112  0.8435  0.3788
12532TIP3    H159087   0.935   5.096   0.104  0.2493  0.4618  1.0695
12532TIP3    H259088   0.814   5.008   0.083  0.1325  1.0840 -1.2190
12533TIP3   OH259089   1.043   4.535  16.676 -1.1051 -0.5035  0.3754
12533TIP3    H159090   1.022   4.443  16.690 -0.2329 -0.8801 -0.6062
12533TIP3    H259091   1.135   4.535  16.647 -1.4897  0.5241 -0.9998
12534TIP3   OH259092   1.969   3.962  15.564  0.2508  0.0017  0.4209
12534TIP3    H159093   1.884   3.973  15.522  0.6685  0.4805 -0.3176
12534TIP3    H259094   2.030   4.010  15.508  0.8611  0.4568  1.4509
12535TIP3   OH259095   0.113   1.829   0.706  0.5481  0.3018 -0.2629
12535TIP3    H159096   0.078   1.822   0.795  0.2801  2.4417 -0.1448
12535TIP3    H259097   0.036   1.830   0.650  0.5051  2.0766 -0.2310
12536TIP3   OH259098   0.073   5.895   4.562  0.1094 -0.6275  0.1066
12536TIP3    H159099   0.105   5.805   4.555 -3.0425 -1.8565 -0.1218
12536TIP3    H259100  -0.022   5.886   4.566 -0.3281  2.7490 -0.1678
12537TIP3   OH259101   1.045   1.809  13.204 -0.2677  0.2702 -0.2955
12537TIP3    H159102   0.968   1.849  13.244 -0.3721 -1.8688  1.8822
12537TIP3    H259103   1.054   1.725  13.248  3.1352  0.2773 -0.7098
12538TIP3   OH259104   4.624   3.817  16.080 -0.8912  0.0010 -0.3787
12538TIP3    H159105   4.719   3.824  16.081 -0.8959  0.4651  2.2346
12538TIP3    H259106   4.606   3.736  16.032  0.7327  0.2748 -1.5263
12539TIP3   OH259107   1.566   1.831  13.846  0.1666  0.2576  0.2729
12539TIP3    H159108   1.648   1.856  13.889 -0.3655  1.3688  0.6668
12539TIP3    H259109   1.517   1.912  13.838 -0.9348 -0.4087  0.0953
12540TIP3   OH259110   0.223   5.070   0.818 -0.1936  0.1137  1.2501
12540TIP3    H159111   0.303   5.042   0.863 -0.3772 -1.0353  0.9102
12540TIP3    H259112   0.158   5.003   0.841 -0.6691  0.2721  0.4123
12541TIP3   OH259113   6.118   1.420  13.590  0.0147 -0.1600  0.4153
12541TIP3    H159114   6.106   1.438  13.683  1.2047 -1.4940  0.8717
12541TIP3    H259115   6.191   1.357  13.587 -0.8201 -1.1190 -1.3194
12542TIP3   OH259116   1.171   5.066  10.683 -0.3091  0.0162 -0.2545
12542TIP3    H159117   1.144   5.147  10.640 -4.4973  0.6131  2.8449
12542TIP3    H259118   1.108   5.000  10.652  0.1287 -0.8968  0.7273
12543TIP3   OH259119   0.306   0.215  14.435  0.4188  0.3462  0.2606
12543TIP3    H159120   0.327   0.251  14.521 -1.9281 -2.0749  2.0204
12543TIP3    H259121   0.240   0.274  14.400 -0.7267 -0.1319  1.4926
12544TIP3   OH259122   2.463   1.398   4.940 -0.0245  0.3454 -0.0589
12544TIP3    H159123   2.482   1.377   5.032  0.2682  1.4326  0.1447
12544TIP3    H259124   2.378   1.358   4.923  0.1600 -0.3168  0.5269
12545TIP3   OH259125   0.065   6.713   5.440 -0.3350 -0.2254 -0.0819
12545TIP3    H159126   0.047   6.803   5.415 -0.6034  0.0099  0.9068
12545TIP3    H259127   0.106   6.719   5.526 -0.2759 -1.0387 -0.0396
12546TIP3   OH259128   0.352   4.380   2.856 -0.2620 -0.2294  0.2966
12546TIP3    H159129   0.446   4.371   2.867 -0.3521 -2.7574 -0.5322
12546TIP3    H259130   0.316   4.370   2.944  0.2012  1.0143  0.6602
12547TIP3   OH259131   4.285   3.075  11.414  0.2005 -0.3469  0.0448
12547TIP3    H159132   4.332   3.157  11.424  0.3724 -0.3877 -0.3899
12547TIP3    H259133   4.194   3.096  11.435 -0.4082  0.7532 -3.1633
12548TIP3   OH259134   0.280   3.034   1.045  0.7086  0.0564  0.4671
12548TIP3    H159135   0.364   3.020   1.001  0.0856 -1.7023 -0.2452
12548TIP3    H259136   0.219   3.056   0.975  0.5826  1.5973  1.0128
12549TIP3   OH259137   5.100   3.910   4.154  0.5773 -0.1747 -0.2967
12549TIP3    H159138   5.167   3.881   4.091  0.9225 -0.6366  0.2717
12549TIP3    H259139   5.104   3.845   4.224 -1.3360 -0.9468 -0.8247
12550TIP3   OH259140   1.655   6.687  13.215 -0.4026 -0.2642 -0.2152
12550TIP3    H159141   1.746   6.713  13.198 -0.3809  0.3055  0.6843
12550TIP3    H259142   1.624   6.652  13.132  0.1262  1.0454 -1.0002
12551TIP3   OH259143   2.511   0.514  15.051  0.0987  0.6499  0.3163
12551TIP3    H159144   2.437   0.570  15.077 -0.0263 -0.1861  1.8495
12551TIP3    H259145   2.586   0.574  15.048 -0.8052  1.8781 -2.8587
12552TIP3   OH259146   0.638   2.494  15.801 -0.5661 -0.1153 -0.4358
12552TIP3    H159147   0.544   2.480  15.800 -0.3337 -1.9381 -0.2821
12552TIP3    H259148   0.655   2.553  15.727 -1.8177  0.2247 -0.4626
12553TIP3   OH259149   5.801   4.049   5.184  0.6918 -0.7960 -0.5334
12553TIP3    H159150   5.816   4.036   5.091 -0.9351 -1.2939 -0.7612
12553TIP3    H259151   5.736   4.119   5.188  0.6766 -0.8450  0.2277
12554TIP3   OH259152   2.147   5.191   1.568 -0.5412 -0.1650  0.1311
12554TIP3    H159153   2.176   5.171   1.657 -0.0979  0.1941  0.0688
12554TIP3    H259154   2.183   5.278   1.549 -2.4222  0.7152  0.3856
12555TIP3   OH259155   4.367   6.149  16.806 -0.4090  0.6819 -0.8947
12555TIP3    H159156   4.462   6.156  16.817 -0.5765  0.2870  1.2231
12555TIP3    H259157   4.354   6.146  16.711  1.8332 -1.0525 -1.2375
12556TIP3   OH259158   1.366   0.796  15.551  0.1114 -0.1838  0.0276
12556TIP3    H159159   1.373   0.722  15.492 -1.0782 -0.3486  0.0776
12556TIP3    H259160   1.284   0.839  15.526 -1.5218 -1.4136  2.8211
12557TIP3   OH259161   5.433   6.483  11.923  0.2681 -0.0329  0.3665
12557TIP3    H159162   5.463   6.432  11.999 -1.0397  0.4944  1.2822
12557TIP3    H259163   5.373   6.548  11.961 -0.8098 -0.0795 -1.1801
12558TIP3   OH259164   1.907   5.144  14.858  0.2064 -0.0580 -0.4984
12558TIP3    H159165   1.838   5.180  14.803 -0.1878  0.9128  0.5857
12558TIP3    H259166   1.978   5.208  14.852  0.0810  0.1673  0.2474
12559TIP3   OH259167   1.582   0.948  15.478  0.0256 -0.6786 -0.4328
12559TIP3    H159168   1.549   0.871  15.525 -1.1583  0.9606  1.6516
12559TIP3    H259169   1.567   0.928  15.386 -0.3695 -2.8704  0.0463
12560TIP3   OH259170   0.770   4.664   2.192 -0.1507 -0.1253  0.6105
12560TIP3    H159171   0.694   4.636   2.243  0.6152  1.6978  2.9127
12560TIP3    H259172   0.755   4.757   2.174 -0.5291 -0.7292 -2.9236
12561TIP3   OH259173   2.973   5.432  16.031  0.0612 -0.6119  0.6306
12561TIP3    H159174   2.915   5.374  16.079 -1.0508  1.2671  1.6777
12561TIP3    H259175   2.930   5.447  15.947  0.2037 -1.0498  0.4785
12562TIP3   OH259176   1.846   0.464  10.538  0.4799  0.6145  0.1845
12562TIP3    H159177   1.929   0.505  10.515  0.5395  0.1277 -0.4958
12562TIP3    H259178   1.790   0.478  10.462  0.1269  0.4188  0.4015
12563TIP3   OH259179   2.485   1.466  11.556 -0.0852 -0.2972  0.2896
12563TIP3    H159180   2.448   1.411  11.488  1.1010 -2.6428  1.4396
12563TIP3    H259181   2.421   1.464  11.627 -0.3692  0.4554  0.0707
12564TIP3   OH259182   0.833   6.226  16.184 -0.0599 -0.4256 -0.2755
12564TIP3    H159183   0.833   6.244  16.090  0.5368 -1.9545 -0.6072
12564TIP3    H259184   0.795   6.304  16.224 -0.9122 -0.0061 -1.8311
12565TIP3   OH259185   3.295   4.002  12.566  0.5525 -0.0207 -0.0202
12565TIP3    H159186   3.201   4.004  12.583  0.4924  1.0819 -0.4687
12565TIP3    H259187   3.332   4.061  12.631  0.8289  0.3472 -0.5086
12566TIP3   OH259188   4.182   0.516  11.388 -0.1477  0.3646  0.1502
12566TIP3    H159189   4.193   0.594  11.333 -0.5805 -0.6923 -1.4804
12566TIP3    H259190   4.265   0.508  11.435  0.0536  1.5614  0.0300
12567TIP3   OH259191   1.485   1.025   4.897  0.2796 -0.1066  0.7722
12567TIP3    H159192   1.531   1.101   4.862  0.4113 -0.5897 -0.1446
12567TIP3    H259193   1.440   0.988   4.821 -2.8623  1.1695  1.8402
12568TIP3   OH259194   1.080   6.707  11.503  0.6177  0.4287  0.9287
12568TIP3    H159195   1.117   6.657  11.576  2.4644 -3.6723 -2.3967
12568TIP3    H259196   1.147   6.773  11.483  0.2452  1.3595  2.5864
12569TIP3   OH259197   4.182   5.615  14.102  0.2860 -0.1972  0.2343
12569TIP3    H159198   4.158   5.597  14.193  1.9450 -0.8217  0.5643
12569TIP3    H259199   4.275   5.595  14.096 -0.3328 -3.1318 -2.3467
12570TIP3   OH259200   5.098   0.390   5.130 -0.5845 -0.0108 -0.0646
12570TIP3    H159201   5.126   0.482   5.129 -0.6707  0.0146 -0.1655
12570TIP3    H259202   5.098   0.366   5.223  2.2116 -0.7584 -0.1645
12571TIP3   OH259203   4.256   2.516   5.377 -0.4139  0.3248  0.4810
12571TIP3    H159204   4.224   2.606   5.372  0.4852  0.6145 -0.6277
12571TIP3    H259205   4.189   2.464   5.333  0.4071  0.8713 -1.4949
12572TIP3   OH259206   3.687   3.814  13.056  0.6687 -0.6345  0.0745
12572TIP3    H159207   3.710   3.746  12.994 -0.3843 -1.4532  0.5489
12572TIP3    H259208   3.771   3.848  13.087  1.2843 -3.0834  1.3091
12573TIP3   OH259209   2.543   6.055  16.955 -1.2999  0.2030 -0.4326
12573TIP3    H159210   2.479   6.086  16.891  0.8832  1.0556 -2.3677
12573TIP3    H259211   2.584   5.980  16.912  2.6507  2.8437 -1.8862
12574TIP3   OH259212   0.612   6.820  14.677  0.2474  0.0310 -0.1536
12574TIP3    H159213   0.550   6.775  14.734 -0.2435  2.5669  1.4695
12574TIP3    H259214   0.558   6.852  14.604  0.1526  0.0016 -0.0959
12575TIP3   OH259215   3.850   5.953   0.992 -0.5212 -0.6309  0.2746
12575TIP3    H159216   3.873   6.043   0.968 -0.0368 -0.6641  0.5933
12575TIP3    H259217   3.790   5.924   0.924  0.4948 -0.5861 -0.6763
12576TIP3   OH259218   5.032   4.867  14.493  0.5205  0.3714 -0.3003
12576TIP3    H159219   5.077   4.890  14.574 -1.3308  2.9545  0.1059
12576TIP3    H259220   5.009   4.950  14.453 -1.6992 -0.8024 -1.6911
12577TIP3   OH259221   6.668   6.535   3.341 -0.5349  0.7616 -0.2719
12577TIP3    H159222   6.633   6.623   3.351 -1.8233  0.1913  0.4928
12577TIP3    H259223   6.596   6.484   3.305  0.4220  0.1599 -1.4247
12578TIP3   OH259224   1.832   1.749  15.560 -0.1816  0.1024 -0.2303
12578TIP3    H159225   1.739   1.727  15.565  0.3006 -2.1820 -0.1960
12578TIP3    H259226   1.859   1.763  15.651 -0.2284 -0.5832 -0.1034
12579TIP3   OH259227   0.424   3.327  13.510  0.1907  0.2887  0.6498
12579TIP3    H159228   0.506   3.305  13.465  0.8456  2.0521  0.9101
12579TIP3    H259229   0.417   3.261  13.579  0.1728 -1.2830 -0.7919
12580TIP3   OH259230   6.715   3.343  11.993  0.3286 -0.0172  0.4336
12580TIP3    H159231   6.643   3.374  11.937  1.5092 -0.9687 -1.7256
12580TIP3    H259232   6.685   3.362  12.082 -2.1317  0.5857 -0.4252
12581TIP3   OH259233   3.984   5.716  13.124 -0.5280  0.2885  0.7491
12581TIP3    H159234   4.011   5.668  13.046  0.5435 -0.0285  1.2903
12581TIP3    H259235   4.065   5.753  13.159 -1.3481  2.9288  0.1069
12582TIP3   OH259236   0.731   3.584   2.566 -0.0385  0.1374 -0.3374
12582TIP3    H159237   0.672   3.542   2.629 -0.0914 -0.0167 -0.4898
12582TIP3    H259238   0.711   3.542   2.482 -0.0843  0.4611 -0.4881
12583TIP3   OH259239   1.374   2.834   3.718 -0.1105  0.2830  0.1019
12583TIP3    H159240   1.278   2.837   3.713 -0.1368  0.4934  0.6655
12583TIP3    H259241   1.394   2.744   3.743 -0.2095  0.4813  0.9072
12584TIP3   OH259242   0.394   4.540  11.612 -0.4762  0.4638  0.3187
12584TIP3    H159243   0.414   4.559  11.703 -0.7003 -1.0861  0.7066
12584TIP3    H259244   0.466   4.485  11.581 -1.8499 -1.5221  0.4727
12585TIP3   OH259245   6.790   0.699   3.197 -0.7945 -0.3013 -0.2065
12585TIP3    H159246   6.799   0.682   3.291  1.9430  0.0445 -0.3259
12585TIP3    H259247   6.723   0.637   3.168 -1.4579 -0.6558  1.8853
12586TIP3   OH259248   5.388   0.197  15.167  0.0391  0.3608 -0.3291
12586TIP3    H159249   5.436   0.276  15.144 -1.8875  0.9650 -2.6806
12586TIP3    H259250   5.327   0.224  15.235  1.2931  0.1603  0.9163
12587TIP3   OH259251   0.032   4.762  15.192  0.3192 -1.1975 -0.0630
12587TIP3    H159252   0.065   4.693  15.134  0.9495 -0.1627 -0.9624
12587TIP3    H259253   0.080   4.840  15.166  0.0227 -0.5245  1.3211
12588TIP3   OH259254   4.418   3.926   5.009  0.3853  0.0754  0.0024
12588TIP3    H159255   4.440   3.964   4.924  1.3909 -0.3256  0.0695
12588TIP3    H259256   4.404   4.002   5.066  0.2188  0.3435 -0.3889
12589TIP3   OH259257   6.699   1.310  14.972  0.4270  0.8161 -0.2401
12589TIP3    H159258   6.605   1.306  14.955  0.6910  0.9421 -1.8897
12589TIP3    H259259   6.727   1.393  14.934  1.2093  0.8275  0.3163
12590TIP3   OH259260   2.297   2.510   5.053  0.4804  0.2939 -0.1661
12590TIP3    H159261   2.371   2.475   5.003  2.7767  2.2379  1.6371
12590TIP3    H259262   2.302   2.465   5.137  0.6711  1.6550  0.5637
12591TIP3   OH259263   3.162   2.137   1.558 -0.4251 -0.5234  0.9419
12591TIP3    H159264   3.150   2.079   1.634 -1.3088 -0.1313  1.1153
12591TIP3    H259265   3.145   2.224   1.592  2.4438  0.0887  1.0639
12592TIP3   OH259266   4.016   1.403   2.710 -0.9587 -0.1412  0.8194
12592TIP3    H159267   4.034   1.423   2.802 -1.5639  3.2028  0.3470
12592TIP3    H259268   3.957   1.328   2.713 -0.6591 -0.3648  3.1209
12593TIP3   OH259269   6.393   0.793   6.269  0.1728  0.2244 -0.1411
12593TIP3    H159270   6.487   0.812   6.266 -0.1011  1.5293 -1.9971
12593TIP3    H259271   6.353   0.876   6.293 -0.5959  0.1133 -0.9954
12594TIP3   OH259272   2.242   1.325   3.519 -0.1148 -0.3197 -0.1087
12594TIP3    H159273   2.147   1.334   3.524 -0.3018 -1.9816 -0.3692
12594TIP3    H259274   2.272   1.338   3.609 -0.3790  1.9874 -0.2888
12595TIP3   OH259275   4.930   5.394  14.624 -0.3853  0.0902  0.0926
12595TIP3    H159276   4.920   5.312  14.672 -1.2497 -1.2245 -2.1180
12595TIP3    H259277   4.991   5.373  14.553 -0.6722  1.3197 -0.5552
12596TIP3   OH259278   3.464   2.743   1.743  0.4111 -0.3035 -0.1332
12596TIP3    H159279   3.384   2.776   1.701 -1.2564 -1.3174  2.0602
12596TIP3    H259280   3.496   2.815   1.796  0.1376 -0.3443  0.0870
12597TIP3   OH259281   1.537   0.923  14.389 -0.0658 -0.3875  0.7658
12597TIP3    H159282   1.617   0.947  14.436  0.2039 -0.2990  0.2701
12597TIP3    H259283   1.544   0.828  14.376 -0.7943 -0.6355  2.1031
12598TIP3   OH259284   4.369   2.497  13.027 -0.1593  0.0946 -0.0029
12598TIP3    H159285   4.286   2.450  13.035 -0.0237 -0.3435 -1.0873
12598TIP3    H259286   4.343   2.589  13.017 -0.3987  0.5543  3.4562
12599TIP3   OH259287   3.088   3.269  15.382  0.0825  0.1513  0.1769
12599TIP3    H159288   3.084   3.186  15.430 -0.3722  1.0053  1.6622
12599TIP3    H259289   3.118   3.244  15.294 -0.0286 -1.5752  0.5930
12600TIP3   OH259290   0.060   0.393   2.788 -0.0815 -0.1077 -0.5929
12600TIP3    H159291   0.007   0.317   2.763 -0.3778  0.2746 -1.1256
12600TIP3    H259292   0.103   0.420   2.707 -0.9399  1.0528 -0.6936
12601TIP3   OH259293   4.620   3.355  15.274  0.2244 -0.0478 -0.0954
12601TIP3    H159294   4.589   3.443  15.293  1.5074  0.8181 -1.7440
12601TIP3    H259295   4.548   3.313  15.227  0.0389  0.5265 -0.3247
12602TIP3   OH259296   1.287   1.828   9.863  0.0454  1.1030 -0.0308
12602TIP3    H159297   1.361   1.774   9.889  0.0046  1.1385  0.1636
12602TIP3    H259298   1.211   1.783   9.901 -0.4051 -0.5674 -2.6142
12603TIP3   OH259299   2.470   1.305   6.118 -0.6310  0.4169 -0.0193
12603TIP3    H159300   2.491   1.392   6.084 -2.9030  0.1601 -2.4186
12603TIP3    H259301   2.377   1.310   6.140 -1.1125 -1.6413 -1.2577
12604TIP3   OH259302   0.159   5.555   3.614  0.0902 -0.0195 -0.0699
12604TIP3    H159303   0.214   5.573   3.690 -0.1500 -0.3969  0.2005
12604TIP3    H259304   0.095   5.492   3.646  0.7914 -1.2099 -0.9233
12605TIP3   OH259305   5.093   3.366  12.982 -0.0830  0.4291  0.4054
12605TIP3    H159306   5.042   3.288  13.005 -0.8306  0.9376  0.5262
12605TIP3    H259307   5.184   3.338  12.986 -0.3536 -0.4920  0.2452
12606TIP3   OH259308   5.628   5.199   2.887  0.7426 -0.6551 -0.4289
12606TIP3    H159309   5.645   5.264   2.956  0.6725  0.4358 -1.4182
12606TIP3    H259310   5.714   5.165   2.864  0.8923 -0.1015 -0.6865
12607TIP3   OH259311   0.993   2.014   3.958  0.4295 -0.1006 -0.1282
12607TIP3    H159312   1.002   2.034   3.865 -0.6004 -0.2901 -0.2833
12607TIP3    H259313   0.929   1.943   3.961 -2.7542  2.5213  0.9041
12608TIP3   OH259314   4.867   1.329   1.332 -0.2488  0.4370 -0.2440
12608TIP3    H159315   4.860   1.267   1.259  0.8451 -2.2462  1.7593
12608TIP3    H259316   4.807   1.294   1.399  1.0403  1.0367  1.2747
12609TIP3   OH259317   5.095   5.944   4.999 -0.6097  0.1897 -0.0287
12609TIP3    H159318   5.038   5.907   4.933 -0.4717  1.3304 -0.8159
12609TIP3    H259319   5.159   5.876   5.017  0.3473  0.4210 -2.2960
12610TIP3   OH259320   4.419   2.701   0.260  0.5402 -0.0953  0.4004
12610TIP3    H159321   4.400   2.787   0.299 -0.3821  0.1687 -0.6071
12610TIP3    H259322   4.424   2.642   0.335 -1.0709  0.4302  0.9523
12611TIP3   OH259323   6.464   3.502  16.489  0.4797 -0.1229 -0.5170
12611TIP3    H159324   6.528   3.474  16.555 -0.3730  2.1411  1.3938
12611TIP3    H259325   6.517   3.543  16.421  1.1728  1.0287  0.6619
12612TIP3   OH259326   3.371   5.068  15.889 -0.0859 -0.4096 -0.0090
12612TIP3    H159327   3.443   5.020  15.931 -0.1369 -0.5708 -0.1095
12612TIP3    H259328   3.292   5.036  15.932 -0.1850 -0.9697 -0.6082
12613TIP3   OH259329   5.399   1.182  14.073  0.3244 -0.2319  0.5250
12613TIP3    H159330   5.362   1.094  14.078 -0.3701  0.0754  0.9640
12613TIP3    H259331   5.456   1.189  14.149  0.8871 -0.5210  0.1378
12614TIP3   OH259332   5.501   6.739   0.072 -1.0310  0.3547 -0.0070
12614TIP3    H159333   5.579   6.761   0.123 -0.1150 -1.3709 -0.5661
12614TIP3    H259334   5.491   6.645   0.083 -0.5031 -0.2220 -3.2791
12615TIP3   OH259335   6.399   5.205  15.534 -0.5036 -0.4453  0.3128
12615TIP3    H159336   6.472   5.267  15.528  0.3749 -1.5437 -4.1549
12615TIP3    H259337   6.441   5.121  15.553 -0.6111 -0.9003 -1.2785
12616TIP3   OH259338   6.333   6.405  12.516 -0.6447  0.3022  0.2886
12616TIP3    H159339   6.404   6.349  12.547 -0.3754 -0.3799 -1.4604
12616TIP3    H259340   6.258   6.381  12.570 -0.1054 -0.5552  0.6702
12617TIP3   OH259341   1.546   6.610  11.312 -0.2691 -0.2292  0.5639
12617TIP3    H159342   1.538   6.704  11.292  1.1079 -0.3129 -0.5443
12617TIP3    H259343   1.515   6.567  11.233  0.9078 -0.6626  0.3214
12618TIP3   OH259344   2.120   4.707   0.273 -0.9789 -0.1183  0.2699
12618TIP3    H159345   2.209   4.672   0.264 -1.0798 -0.2889 -0.0790
12618TIP3    H259346   2.105   4.757   0.192 -1.2274 -0.1482  0.2967
12619TIP3   OH259347   2.982   0.902  15.659 -0.1121 -0.4740 -0.7915
12619TIP3    H159348   2.923   0.880  15.731 -1.6242 -0.1017 -1.8800
12619TIP3    H259349   3.069   0.880  15.692 -0.7551 -0.2537  1.1654
12620TIP3   OH259350   0.464   2.121  11.743  0.1832  0.5268 -0.2724
12620TIP3    H159351   0.534   2.123  11.808 -0.2038 -1.2270  0.2414
12620TIP3    H259352   0.393   2.171  11.782 -0.3860 -1.2769  1.1064
12621TIP3   OH259353   3.321   4.499  12.678  0.4872 -0.0082  0.2551
12621TIP3    H159354   3.334   4.502  12.584  2.5624  0.4658  0.5073
12621TIP3    H259355   3.359   4.581  12.710  1.3191 -0.8889  1.6459
12622TIP3   OH259356   4.115   2.624  13.542  0.1011  0.1702  0.5140
12622TIP3    H159357   4.105   2.686  13.615 -1.2469  0.1480  0.3886
12622TIP3    H259358   4.110   2.538  13.583 -1.4625  0.1506  0.3458
12623TIP3   OH259359   5.659   3.693   0.075  0.0557  0.0172 -0.1349
12623TIP3    H159360   5.750   3.719   0.065 -0.1238  0.2710 -1.3060
12623TIP3    H259361   5.646   3.625   0.010 -0.6443  0.1474 -0.1440
12624TIP3   OH259362   3.500   2.182  11.587 -0.2372  0.0010 -0.3267
12624TIP3    H159363   3.551   2.249  11.541 -1.3258 -0.0862 -1.7498
12624TIP3    H259364   3.452   2.137  11.517  1.2519 -3.0002  0.4629
12625TIP3   OH259365   4.642   6.599   1.717  0.2060  0.1539 -0.5479
12625TIP3    H159366   4.735   6.602   1.738  0.3436 -1.3751 -0.8438
12625TIP3    H259367   4.598   6.610   1.801  0.6334  0.9636 -0.4173
12626TIP3   OH259368   0.926   0.339  10.711 -0.2627 -0.4968  0.0769
12626TIP3    H159369   0.867   0.403  10.749  2.0995  2.2869 -0.6113
12626TIP3    H259370   0.986   0.316  10.781  2.2726  2.4054 -0.9263
12627TIP3   OH259371   1.908   0.665  15.578  0.3725 -0.2222 -0.1345
12627TIP3    H159372   1.977   0.732  15.571 -1.4115  1.7539  0.1462
12627TIP3    H259373   1.898   0.632  15.489  0.1857  1.0753 -0.6166
12628TIP3   OH259374   4.140   0.081  15.255 -0.6677  0.5504 -0.0773
12628TIP3    H159375   4.073   0.148  15.239 -0.6617  0.6733  0.3975
12628TIP3    H259376   4.223   0.128  15.246 -0.6181  0.2896 -1.1711
12629TIP3   OH259377   1.187   4.253  14.479 -0.3919  0.0909  0.2621
12629TIP3    H159378   1.230   4.326  14.524 -1.2945 -0.7473  2.6893
12629TIP3    H259379   1.116   4.293  14.430  1.8512  1.2747 -2.2387
12630TIP3   OH259380   0.509   1.221   5.321  0.1711  0.3451 -0.2654
12630TIP3    H159381   0.463   1.172   5.253  0.8650 -0.6117 -0.0729
12630TIP3    H259382   0.496   1.169   5.400  0.9073  0.4745 -0.0522
12631TIP3   OH259383   3.269   5.859  12.633 -0.2468  0.1832 -0.1508
12631TIP3    H159384   3.296   5.933  12.578 -0.2734  0.3628  0.0751
12631TIP3    H259385   3.188   5.828  12.593 -0.4666  0.5493  0.0013
12632TIP3   OH259386   3.449   1.133  13.586 -0.2546 -0.4817 -0.1632
12632TIP3    H159387   3.426   1.068  13.652  0.3535  0.7801  1.3554
12632TIP3    H259388   3.528   1.175  13.620 -0.0084  0.3117 -1.6370
12633TIP3   OH259389   1.806   1.821  10.112  0.2307 -0.1351 -0.2643
12633TIP3    H159390   1.897   1.839  10.134  0.6611  0.8822 -2.5810
12633TIP3    H259391   1.772   1.772  10.187  1.9332  1.6815  1.8260
12634TIP3   OH259392   5.422   1.723  16.180 -0.1822 -0.4883  0.0120
12634TIP3    H159393   5.410   1.782  16.105  1.7502 -2.7970 -2.2926
12634TIP3    H259394   5.499   1.757  16.225  0.8721 -1.1130 -1.2541
12635TIP3   OH259395   5.120   3.978   4.754  0.3453 -0.2829  0.6769
12635TIP3    H159396   5.053   4.045   4.768 -0.0121  0.0458 -2.0649
12635TIP3    H259397   5.203   4.024   4.765  0.1405 -0.2549  2.2570
12636TIP3   OH259398   3.708   6.022  15.081  0.1449  0.0349 -0.3240
12636TIP3    H159399   3.743   6.100  15.124  2.1817 -0.5386 -0.8305
12636TIP3    H259400   3.616   6.018  15.108  0.2674  2.0256  0.5197
12637TIP3   OH259401   0.122   3.140  11.664 -0.2076 -0.1532  0.7872
12637TIP3    H159402   0.092   3.130  11.754 -0.6721 -0.6544  0.5865
12637TIP3    H259403   0.167   3.224  11.662 -2.9441  1.4079  0.7400
12638TIP3   OH259404   4.111   2.008   0.246 -0.1001  0.4324 -0.1015
12638TIP3    H159405   4.180   2.043   0.302 -0.9338  2.6188 -0.3429
12638TIP3    H259406   4.154   1.992   0.162  0.3000  0.9123  0.0095
12639TIP3   OH259407   1.981   6.105   5.154 -0.1464  0.2572 -0.2180
12639TIP3    H159408   1.966   6.158   5.232 -0.0529  0.8683 -0.6042
12639TIP3    H259409   1.974   6.014   5.184  1.0780  0.4557  0.7449
12640TIP3   OH259410   4.899   3.037   2.382  0.0470 -0.0366  0.3528
12640TIP3    H159411   4.833   3.105   2.397 -1.1683 -1.6684  2.9455
12640TIP3    H259412   4.861   2.981   2.314  0.7075  1.3185 -1.2170
12641TIP3   OH259413   2.894   0.622   2.954  0.1580  0.4069 -0.4760
12641TIP3    H159414   2.853   0.686   3.012  0.5407  1.3164 -1.1719
12641TIP3    H259415   2.969   0.669   2.916  2.0699 -1.2897  1.0044
12642TIP3   OH259416   3.100   1.994   2.716  0.0999 -0.3815 -0.5551
12642TIP3    H159417   3.021   2.025   2.672 -0.3715  0.4154  0.7853
12642TIP3    H259418   3.166   2.060   2.696 -0.2175  0.1851  0.2107
12643TIP3   OH259419   5.850   0.872  12.750  0.4060  0.3261  0.4787
12643TIP3    H159420   5.927   0.815  12.762 -0.2859 -0.9658 -0.8811
12643TIP3    H259421   5.782   0.813  12.717 -1.1299  1.4898  1.4465
12644TIP3   OH259422   4.317   6.805  17.104 -0.0154  0.3868 -0.6501
12644TIP3    H159423   4.231   6.828  17.139  0.1147  0.5748 -0.4486
12644TIP3    H259424   4.313   6.832  17.012  0.5206  2.3373 -0.1475
12645TIP3   OH259425   3.983   4.627   4.297 -0.8424  0.3844  0.0783
12645TIP3    H159426   3.977   4.598   4.206 -1.9727  0.4176  0.1215
12645TIP3    H259427   4.061   4.584   4.332 -0.1201  0.7496 -1.0365
12646TIP3   OH259428   1.365   6.297  13.053 -0.1380 -0.0663 -0.2023
12646TIP3    H159429   1.372   6.293  13.149 -0.6836  0.6378 -0.1282
12646TIP3    H259430   1.373   6.205  13.025 -0.1489 -0.2965  0.5295
12647TIP3   OH259431   2.805   0.850   6.363  0.4023  0.6288  0.3985
12647TIP3    H159432   2.839   0.823   6.278  0.6371 -0.0756  0.7070
12647TIP3    H259433   2.711   0.832   6.357  0.1903  1.8832 -0.1931
12648TIP3   OH259434   3.925   2.431   4.239  0.2063 -0.0950 -0.5257
12648TIP3    H159435   3.854   2.369   4.254  0.1626 -0.1599 -1.0112
12648TIP3    H259436   4.002   2.389   4.277  0.1148 -0.3075 -0.5758
12649TIP3   OH259437   3.207   2.865  14.413  0.3812 -1.0075 -0.0388
12649TIP3    H159438   3.115   2.876  14.390  0.5904 -2.6936 -2.0388
12649TIP3    H259439   3.206   2.805  14.488 -0.1553 -0.3423  0.4988
12650TIP3   OH259440   6.632   0.911   3.203  0.3905 -0.2097 -0.0372
12650TIP3    H159441   6.684   0.831   3.204 -0.6268 -0.9361 -1.7779
12650TIP3    H259442   6.696   0.981   3.186  1.0091 -0.8830 -0.5245
12651TIP3   OH259443   5.590   5.019   4.558 -0.0388 -0.1463 -0.0438
12651TIP3    H159444   5.664   5.079   4.547  0.8340 -1.0324  0.7698
12651TIP3    H259445   5.515   5.066   4.522  0.6471  1.3579  0.4146
12652TIP3   OH259446   4.623   1.602   0.109 -0.4148 -0.1052  0.0724
12652TIP3    H159447   4.553   1.631   0.051 -0.0220 -0.1954 -0.4646
12652TIP3    H259448   4.644   1.514   0.078 -0.5911 -0.3798  0.7305
12653TIP3   OH259449   0.980   2.968  10.696  0.0075  0.2286 -0.1960
12653TIP3    H159450   1.019   2.981  10.610 -0.6886 -1.4962 -0.8134
12653TIP3    H259451   0.892   2.937  10.678 -0.3091  0.2716  1.1543
12654TIP3   OH259452   0.354   6.025  14.844  0.4799 -0.5295 -0.8428
12654TIP3    H159453   0.403   5.944  14.829 -1.1334 -1.9372  1.0552
12654TIP3    H259454   0.263   6.002  14.826  0.0632  1.0600 -0.9041
12655TIP3   OH259455   5.746   2.715  15.738  0.0560  0.3528  0.5833
12655TIP3    H159456   5.783   2.629  15.719 -1.4377  0.3433 -2.9051
12655TIP3    H259457   5.785   2.773  15.673 -1.5313  1.5790  0.6616
12656TIP3   OH259458   0.982   5.693  11.346 -0.1503  0.4120 -0.0269
12656TIP3    H159459   1.053   5.652  11.396 -1.5171 -0.7284  1.0552
12656TIP3    H259460   0.971   5.637  11.269 -1.6324 -1.0365  1.1644
12657TIP3   OH259461   4.197   2.779   5.429 -0.4629 -0.0418 -0.2022
12657TIP3    H159462   4.215   2.830   5.508 -1.1106 -0.7490  0.4286
12657TIP3    H259463   4.161   2.841   5.367  1.0977  0.7526 -0.3545
12658TIP3   OH259464   1.668   0.838  13.983 -0.1574 -0.3751 -0.0143
12658TIP3    H159465   1.714   0.884  14.054 -1.4729  0.5197  0.3049
12658TIP3    H259466   1.610   0.905  13.946 -1.4166 -1.5334 -0.1835
12659TIP3   OH259467   6.048   3.065   2.204  0.9012 -0.0605 -0.3666
12659TIP3    H159468   6.105   3.105   2.138 -0.5006  0.4117 -1.3339
12659TIP3    H259469   6.008   2.990   2.160  0.4222 -0.1088  0.1394
12660TIP3   OH259470   5.565   0.414  15.533  0.0617 -0.4242  0.4428
12660TIP3    H159471   5.571   0.506  15.559 -0.2988  0.1407 -1.3561
12660TIP3    H259472   5.563   0.366  15.616 -2.0048  1.3341  1.5069
12661TIP3   OH259473   4.849   3.649  11.992 -0.5008  0.6601  0.2571
12661TIP3    H159474   4.918   3.586  12.012 -0.9588  0.2197  0.4816
12661TIP3    H259475   4.849   3.655  11.896  0.1182  0.9791  0.2698
12662TIP3   OH259476   1.601   1.181   2.148  0.0537 -0.7483  0.2753
12662TIP3    H159477   1.642   1.174   2.234 -1.1150  0.7068  0.9871
12662TIP3    H259478   1.529   1.243   2.160  0.8860  0.8107 -2.1379
12663TIP3   OH259479   2.680   3.883   0.021  0.2091 -0.5129  0.2172
12663TIP3    H159480   2.667   3.788   0.022  1.7330 -0.7380  0.7948
12663TIP3    H259481   2.752   3.897  -0.040  1.3557  0.0432  1.6197
12664TIP3   OH259482   3.891   0.127   4.730  0.1514  0.6324  0.2498
12664TIP3    H159483   3.876   0.157   4.820 -1.8252 -0.6769  0.4279
12664TIP3    H259484   3.822   0.062   4.715  1.6480 -0.6378 -1.5551
12665TIP3   OH259485   5.284   5.520   4.107 -0.2906 -0.4755 -0.6991
12665TIP3    H159486   5.348   5.538   4.038  1.0216  0.6727  0.7353
12665TIP3    H259487   5.200   5.517   4.061  0.3856  1.4067 -2.2268
12666TIP3   OH259488   3.008   2.318   3.278  0.4482  0.2927  0.0234
12666TIP3    H159489   2.947   2.362   3.218  0.5235 -0.2370 -0.4454
12666TIP3    H259490   2.956   2.246   3.316  1.1643 -1.0596 -1.4547
12667TIP3   OH259491   0.782   2.662  11.255  0.1092 -0.5651 -0.3615
12667TIP3    H159492   0.829   2.680  11.173  2.2659  2.2867  1.3252
12667TIP3    H259493   0.704   2.718  11.249  0.4438 -0.0870 -0.3646
12668TIP3   OH259494   6.549   3.092  13.498  0.3586  0.0332  0.1521
12668TIP3    H159495   6.536   3.021  13.561 -0.2860 -0.3256 -0.3784
12668TIP3    H259496   6.629   3.068  13.451 -0.5430 -1.0123 -0.8960
12669TIP3   OH259497   3.185   4.467  10.627 -0.3566 -0.1511  0.4190
12669TIP3    H159498   3.170   4.555  10.593 -2.1096 -0.2556  0.8194
12669TIP3    H259499   3.109   4.449  10.681 -0.1049 -1.9714  0.2383
12670TIP3   OH259500   5.955   0.197   5.171  0.4456 -0.5042  0.9628
12670TIP3    H159501   5.874   0.194   5.222 -1.0962  0.0837 -1.2841
12670TIP3    H259502   5.935   0.257   5.099  2.6261 -1.0019 -0.1249
12671TIP3   OH259503   1.179   5.255  13.731 -0.6437  0.0623 -0.2760
12671TIP3    H159504   1.249   5.211  13.779 -0.3912 -0.2173 -0.8876
12671TIP3    H259505   1.179   5.344  13.765 -0.9508 -0.3165  0.7511
12672TIP3   OH259506   1.741   6.003   4.999  0.3726  0.2463  0.4074
12672TIP3    H159507   1.831   5.990   4.971  0.1731  0.0425 -0.1504
12672TIP3    H259508   1.748   6.059   5.076  0.8541  2.3912 -1.1016
12673TIP3   OH259509   1.639   2.415  12.503 -0.3513  0.1056 -0.3069
12673TIP3    H159510   1.584   2.449  12.573  0.1216  0.2835 -0.0255
12673TIP3    H259511   1.729   2.432  12.531 -0.1671  0.8163 -1.2763
12674TIP3   OH259512   6.598   4.077   4.784  0.5184  0.2270 -0.1584
12674TIP3    H159513   6.584   4.135   4.709 -0.5896 -0.2020 -0.2926
12674TIP3    H259514   6.649   4.004   4.748  1.6631  0.9414 -0.0523
12675TIP3   OH259515   6.231   2.316   4.081 -0.1066 -0.2068 -0.5078
12675TIP3    H159516   6.217   2.222   4.071 -0.0955 -0.0116 -2.8078
12675TIP3    H259517   6.146   2.350   4.107  0.1972 -0.9648  1.6773
12676TIP3   OH259518   4.181   2.849  11.639 -0.0785  0.1629  0.3078
12676TIP3    H159519   4.127   2.845  11.718  0.3210  0.6791  0.6159
12676TIP3    H259520   4.125   2.815  11.569 -1.1889  1.7029  0.4110
12677TIP3   OH259521   4.005   4.538  12.581 -0.4694 -0.0306  0.2186
12677TIP3    H159522   3.931   4.504  12.632  0.9214 -0.2839  2.1753
12677TIP3    H259523   4.033   4.465  12.527 -1.3967 -0.0432 -0.2698
12678TIP3   OH259524   0.821   6.386   3.485 -0.4826 -0.0335  0.2384
12678TIP3    H159525   0.896   6.437   3.516 -0.1865  0.2789 -0.9436
12678TIP3    H259526   0.860   6.306   3.449 -0.5834  0.6097 -1.3917
12679TIP3   OH259527   5.838   2.681  13.918  0.3991  0.0153 -0.0434
12679TIP3    H159528   5.902   2.615  13.892 -0.0075 -0.3943 -0.0278
12679TIP3    H259529   5.826   2.734  13.839  2.7012  1.7540  0.6918
12680TIP3   OH259530   6.005   2.103  10.574 -0.1470  0.2560  0.4363
12680TIP3    H159531   5.969   2.052  10.501  1.2029  1.8741 -1.4646
12680TIP3    H259532   5.937   2.167  10.594 -0.5068 -0.1674  0.5799
12681TIP3   OH259533   2.125   1.488  16.222 -0.2324 -0.0164  0.8298
12681TIP3    H159534   2.105   1.395  16.236 -0.8212 -0.2675 -1.4039
12681TIP3    H259535   2.055   1.520  16.165  0.4659  1.5728  0.8185
12682TIP3   OH259536   3.709   4.645   5.100 -0.6948  0.1847  0.4026
12682TIP3    H159537   3.736   4.580   5.165  0.1504 -1.6087 -1.6057
12682TIP3    H259538   3.790   4.671   5.058 -1.2706  0.9089 -0.2739
12683TIP3   OH259539   5.495   5.206  16.489 -0.1374  0.2745  0.0188
12683TIP3    H159540   5.549   5.258  16.548 -0.1143  0.7800 -0.4388
12683TIP3    H259541   5.515   5.239  16.402  0.8584 -1.3824 -0.4238
12684TIP3   OH259542   5.281   5.658  16.813  0.0642  0.0623  0.3731
12684TIP3    H159543   5.359   5.602  16.820  0.1417 -0.1177 -1.3449
12684TIP3    H259544   5.312   5.737  16.768 -0.7694 -0.1115 -0.5459
12685TIP3   OH259545   2.597   4.040   0.554  0.2260 -0.5384 -0.1092
12685TIP3    H159546   2.547   3.958   0.550  0.8628 -0.9011 -0.8002
12685TIP3    H259547   2.611   4.065   0.462  0.5957 -0.0004  0.0857
12686TIP3   OH259548   0.963   0.696  11.221  0.3627  0.1747 -0.3216
12686TIP3    H159549   0.909   0.629  11.263  0.1165  1.7036  1.9709
12686TIP3    H259550   1.029   0.647  11.172 -2.0304 -1.7485 -1.8734
12687TIP3   OH259551   1.125   2.004  17.145  0.3383 -0.2546  0.2521
12687TIP3    H159552   1.122   2.073  17.210  1.2420 -1.6535  1.8751
12687TIP3    H259553   1.161   1.928  17.192 -1.3765 -2.0788 -1.2000
12688TIP3   OH259554   2.183   5.859   2.492  0.1429  0.0255  0.0771
12688TIP3    H159555   2.155   5.925   2.556 -0.4449 -0.5158  0.3912
12688TIP3    H259556   2.103   5.813   2.468  0.1510  0.9305 -1.9080
12689TIP3   OH259557   6.614   4.836  14.880  0.7176 -0.4714 -0.6554
12689TIP3    H159558   6.533   4.884  14.862  1.8067  0.9337 -2.2132
12689TIP3    H259559   6.602   4.798  14.967 -0.5812  1.9314  0.2969
12690TIP3   OH259560   3.129   5.819   0.978 -0.1673  0.1475  0.1992
12690TIP3    H159561   3.158   5.741   0.932  0.8326  0.2670  0.5856
12690TIP3    H259562   3.046   5.842   0.938 -0.6720 -1.3350  0.3524
12691TIP3   OH259563   4.792   4.515  11.249  0.4518  0.2456 -0.1929
12691TIP3    H159564   4.726   4.583  11.230 -2.7047 -2.5939 -0.4683
12691TIP3    H259565   4.793   4.461  11.170  2.0933 -0.6315  0.3928
12692TIP3   OH259566   0.464   3.105  13.029 -0.3034  0.5971 -0.1736
12692TIP3    H159567   0.511   3.041  13.083  0.2366 -0.0043 -1.3167
12692TIP3    H259568   0.381   3.062  13.007  0.4318 -0.1181 -1.6822
12693TIP3   OH259569   1.155   4.654  14.026 -0.5243 -0.0522 -0.2295
12693TIP3    H159570   1.112   4.702  14.097 -0.7031  0.0812 -0.4287
12693TIP3    H259571   1.110   4.570  14.024 -2.6844  1.0323 -2.2274
12694TIP3   OH259572   0.393   3.553   4.804  0.0922 -0.2995  0.0091
12694TIP3    H159573   0.385   3.468   4.760 -1.6381 -0.4320  0.5209
12694TIP3    H259574   0.355   3.616   4.742 -1.8168 -0.4056  1.0087
12695TIP3   OH259575   2.078   2.966   5.588  0.0502  0.6913 -0.1915
12695TIP3    H159576   2.105   2.899   5.651 -1.1494 -0.3053 -0.7077
12695TIP3    H259577   2.153   3.026   5.584  2.2696 -1.9492 -1.5978
12696TIP3   OH259578   1.331   3.942  11.220 -0.3468  0.6094  0.2358
12696TIP3    H159579   1.236   3.949  11.230 -0.2883  0.4115  1.0044
12696TIP3    H259580   1.360   4.032  11.205 -0.6924  0.6196 -0.4563
12697TIP3   OH259581   2.522   1.710  16.856 -0.0468 -0.1520  0.1531
12697TIP3    H159582   2.468   1.708  16.935 -0.2818 -0.1387 -0.0066
12697TIP3    H259583   2.506   1.796  16.818  1.1719  0.4068  0.8512
12698TIP3   OH259584   6.656   4.668   4.265  0.4224 -0.4455 -0.1017
12698TIP3    H159585   6.623   4.750   4.301  0.6547 -1.3098  2.2658
12698TIP3    H259586   6.577   4.618   4.243  0.1249 -0.9873  1.9415
12699TIP3   OH259587   3.254   4.502  12.373 -0.3755 -0.0399 -0.1843
12699TIP3    H159588   3.158   4.503  12.370 -0.5132 -0.7454  1.9898
12699TIP3    H259589   3.277   4.415  12.340 -0.3749  0.5197 -1.7489
12700TIP3   OH259590   6.599   0.256  11.225  0.1279 -0.0405 -0.4159
12700TIP3    H159591   6.532   0.284  11.163 -2.0756 -1.9697  0.9121
12700TIP3    H259592   6.667   0.216  11.171 -0.3105  0.9414 -1.7491
12701TIP3   OH259593   3.068   5.731  15.721  0.3048  0.0954  0.4514
12701TIP3    H159594   3.014   5.663  15.761  1.6757 -0.1779  1.9699
12701TIP3    H259595   3.065   5.712  15.627  0.1958 -1.7396  0.7774
12702TIP3   OH259596   3.421   1.434   1.225 -0.0016  0.6032 -0.0200
12702TIP3    H159597   3.332   1.399   1.219  0.8037 -1.6227  0.0716
12702TIP3    H259598   3.437   1.471   1.138 -0.5118 -0.2797 -0.5025
12703TIP3   OH259599   1.796   1.314   0.569  0.6543  0.4104  0.1343
12703TIP3    H159600   1.850   1.343   0.642 -0.5746  2.1844  0.4198
12703TIP3    H259601   1.822   1.370   0.495  0.1240  0.3922 -0.0738
12704TIP3   OH259602   3.801   0.977  13.434 -0.3010  0.1207  0.6576
12704TIP3    H159603   3.760   1.050  13.387  1.5124  0.1268 -1.0317
12704TIP3    H259604   3.895   0.989  13.421  0.1185 -1.7599  1.5278
12705TIP3   OH259605   6.584   0.136   5.696 -0.7846 -0.3065 -0.3250
12705TIP3    H159606   6.679   0.144   5.695 -0.7560  0.8458 -4.3739
12705TIP3    H259607   6.555   0.198   5.763  1.2402 -0.9830  1.2836
12706TIP3   OH259608   3.233   5.584   2.000 -0.2915 -0.0707 -0.0327
12706TIP3    H159609   3.168   5.633   1.950 -0.1916 -1.3150 -1.4708
12706TIP3    H259610   3.227   5.495   1.965  2.7486 -0.0761 -0.8194
12707TIP3   OH259611   4.601   0.511   2.711  0.1513  0.3966 -0.2489
12707TIP3    H159612   4.697   0.511   2.711  0.1550 -0.1958 -0.5650
12707TIP3    H259613   4.577   0.485   2.800  0.2795  0.5184 -0.1774
12708TIP3   OH259614   0.388   3.747   4.993  0.1153 -0.2127  0.3080
12708TIP3    H159615   0.387   3.676   4.929  0.1461 -1.0785  1.2344
12708TIP3    H259616   0.412   3.705   5.076 -1.2828  0.6123  1.1811
12709TIP3   OH259617   4.445   1.554  14.401 -0.3071  0.3148  0.4873
12709TIP3    H159618   4.354   1.531  14.416 -0.0066 -0.4425  1.2141
12709TIP3    H259619   4.468   1.508  14.320 -0.2720 -0.3736  0.8806
12710TIP3   OH259620   4.925   0.456   0.042  0.0072  0.0143  0.1740
12710TIP3    H159621   5.010   0.424   0.012  0.7559  0.7165  1.4205
12710TIP3    H259622   4.882   0.379   0.079 -0.3220 -0.5415 -1.2924
12711TIP3   OH259623   2.416   3.115  15.483 -0.0584  0.2697  0.1015
12711TIP3    H159624   2.397   3.085  15.572  0.8768 -0.5101  0.0468
12711TIP3    H259625   2.474   3.049  15.447  0.7725  1.3390 -0.5742
12712TIP3   OH259626   5.199   6.145  11.410  0.3739  0.0212  0.0359
12712TIP3    H159627   5.163   6.145  11.499  2.0032  1.1742  0.7278
12712TIP3    H259628   5.121   6.144  11.354 -0.6987 -0.6222  1.4404
12713TIP3   OH259629   1.013   4.061   0.027  0.5234  0.4348 -0.0476
12713TIP3    H159630   0.953   4.124   0.066  0.0310 -0.0343 -0.0489
12713TIP3    H259631   1.100   4.092   0.053  0.4035  2.0388 -1.3607
12714TIP3   OH259632   4.544   4.323   0.969  0.9097 -0.0326  0.0071
12714TIP3    H159633   4.528   4.380   1.044  1.8973 -1.3162  1.2443
12714TIP3    H259634   4.587   4.246   1.006 -0.6041 -1.7285 -1.5491
12715TIP3   OH259635   1.707   4.172  12.122 -0.3546  0.7968 -0.4529
12715TIP3    H159636   1.767   4.128  12.062  0.7906  1.9369 -0.1886
12715TIP3    H259637   1.634   4.111  12.131 -0.9934  0.8809 -3.6641
12716TIP3   OH259638   4.311   4.462  14.189  0.3630  0.5266 -0.1828
12716TIP3    H159639   4.401   4.431  14.191 -0.1121 -0.9026  0.2309
12716TIP3    H259640   4.315   4.551  14.225  1.5525  0.3525  0.1511
12717TIP3   OH259641   1.013   4.001  14.285 -0.3952 -0.5714 -0.2263
12717TIP3    H159642   0.973   3.994  14.199 -0.2334 -0.0158 -0.3457
12717TIP3    H259643   0.972   4.078  14.325 -0.6304 -0.9495  0.2817
12718TIP3   OH259644   4.237   0.837   2.150 -0.4153 -0.8586  0.1257
12718TIP3    H159645   4.297   0.820   2.077  0.8418 -2.5333  1.4558
12718TIP3    H259646   4.295   0.855   2.224 -1.6561  0.6275  0.8001
12719TIP3   OH259647   0.309   1.730   4.476  0.5033  0.2947  0.1305
12719TIP3    H159648   0.238   1.669   4.496  0.7579 -1.9683 -4.4972
12719TIP3    H259649   0.363   1.731   4.555 -2.8316 -0.3558  2.6834
12720TIP3   OH259650   3.657   2.167   0.718 -0.0401  0.3839 -0.5974
12720TIP3    H159651   3.691   2.141   0.632 -0.2698 -0.8882 -0.3260
12720TIP3    H259652   3.582   2.109   0.733  1.9183 -1.7562  1.8562
12721TIP3   OH259653   4.082   2.554  11.679 -0.0022  0.0949 -0.0084
12721TIP3    H159654   4.037   2.638  11.671  0.1166  0.1649  0.0592
12721TIP3    H259655   4.068   2.528  11.770 -0.2143 -0.0586 -0.0830
12722TIP3   OH259656   5.870   6.517  11.220  0.1159 -0.2042 -0.2660
12722TIP3    H159657   5.934   6.582  11.190  0.9292 -1.5515 -1.6223
12722TIP3    H259658   5.792   6.535  11.168 -0.2609  0.7407  0.5938
12723TIP3   OH259659   3.720   5.518   3.304  0.1725 -0.1204  0.9462
12723TIP3    H159660   3.671   5.437   3.320 -0.1641  0.1008  1.0613
12723TIP3    H259661   3.753   5.508   3.214 -1.9074  0.6170  0.0253
12724TIP3   OH259662   1.374   4.960  11.369  0.4403  0.4666  0.0629
12724TIP3    H159663   1.280   4.966  11.387 -0.1823 -1.1322 -2.1778
12724TIP3    H259664   1.415   4.963  11.455 -1.6199  1.5876  1.0862
12725TIP3   OH259665   2.933   5.875   0.448  0.2950  0.1544  0.3745
12725TIP3    H159666   2.992   5.947   0.428 -0.2223  0.5193  0.1507
12725TIP3    H259667   2.991   5.800   0.463  0.8050  0.4841  0.0681
12726TIP3   OH259668   6.587   5.837  14.714  0.7520  0.0114  0.0889
12726TIP3    H159669   6.516   5.891  14.681 -0.6987 -0.8268  1.6431
12726TIP3    H259670   6.649   5.831  14.642 -1.0148  0.3311 -1.5284
12727TIP3   OH259671   3.104   1.010  14.090 -0.0829  0.2251  0.5272
12727TIP3    H159672   3.046   0.942  14.057  0.5229  0.1213 -0.3756
12727TIP3    H259673   3.150   0.969  14.164 -2.3938  0.8744  2.4481
12728TIP3   OH259674   3.467   3.339  11.290 -0.1015  0.1092  0.1618
12728TIP3    H159675   3.414   3.259  11.300  0.1817  0.0246  1.0253
12728TIP3    H259676   3.403   3.410  11.294 -0.0186  0.1411  3.3241
12729TIP3   OH259677   1.039   6.225  13.566 -0.6035  0.1822 -0.6061
12729TIP3    H159678   1.082   6.306  13.538 -0.2739  0.4129  0.4978
12729TIP3    H259679   1.009   6.244  13.655  1.7087 -1.6610  0.7060
12730TIP3   OH259680   4.496   1.656  11.339  0.1854 -0.0004 -0.2034
12730TIP3    H159681   4.554   1.610  11.399 -0.9983 -1.5722 -0.2034
12730TIP3    H259682   4.543   1.736  11.317  2.8992 -1.7176 -1.1434
12731TIP3   OH259683   4.009   3.471   5.473 -0.2256 -0.3341  0.6118
12731TIP3    H159684   4.003   3.557   5.431 -0.4535 -1.4033 -1.7377
12731TIP3    H259685   3.921   3.434   5.464  0.1956 -1.3183  0.4114
12732TIP3   OH259686   0.972   1.315   4.498 -0.0746  0.2582  0.6247
12732TIP3    H159687   0.991   1.286   4.587  0.0820  0.2531  0.5902
12732TIP3    H259688   0.890   1.363   4.505 -0.3342 -0.1894  0.6833
12733TIP3   OH259689   1.806   3.499  11.652  0.2561  0.8157  0.1360
12733TIP3    H159690   1.749   3.459  11.586  1.2962  1.5084 -1.2343
12733TIP3    H259691   1.867   3.552  11.602  1.2245  1.2097  1.6636
12734TIP3   OH259692   3.062   1.525   1.381 -0.4056 -0.0521 -0.6594
12734TIP3    H159693   2.973   1.501   1.358 -0.0254 -3.6896  1.0161
12734TIP3    H259694   3.117   1.469   1.327  0.9441  1.8996 -1.4306
12735TIP3   OH259695   4.777   2.511  11.203 -0.2819 -0.3939  0.0963
12735TIP3    H159696   4.859   2.553  11.229  0.2875 -1.1666 -0.4051
12735TIP3    H259697   4.763   2.539  11.113 -1.8508  1.6551  0.8808
12736TIP3   OH259698   6.132   0.091   5.578  0.1714 -0.0944 -0.0251
12736TIP3    H159699   6.182   0.059   5.653  0.9989 -1.0987 -0.9730
12736TIP3    H259700   6.142   0.187   5.582  0.5912 -0.1601  0.8617
12737TIP3   OH259701   2.339   2.388  14.742  0.4384 -0.0241  0.5998
12737TIP3    H159702   2.299   2.329  14.679 -1.6940  0.3730  1.5028
12737TIP3    H259703   2.383   2.330  14.805 -0.5188 -0.6138  0.7496
12738TIP3   OH259704   2.550   5.887   1.713  0.1132 -0.5347 -0.1423
12738TIP3    H159705   2.565   5.978   1.687 -0.7252  0.0551  1.3130
12738TIP3    H259706   2.466   5.865   1.672 -0.4413 -0.1190  0.7320
12739TIP3   OH259707   0.681   2.512  12.004  0.6823  0.5627 -0.4013
12739TIP3    H159708   0.731   2.486  11.927  1.9384  0.2101  0.4968
12739TIP3    H259709   0.745   2.553  12.062 -0.2967  1.1183  0.3292
12740TIP3   OH259710   5.806   3.978  11.617 -0.4605 -0.4049 -0.4486
12740TIP3    H159711   5.799   4.062  11.661 -0.8830 -1.1778  1.0097
12740TIP3    H259712   5.900   3.960  11.614 -0.4700 -1.2629  2.0465
12741TIP3   OH259713   3.631   2.134  15.259 -0.2664  0.0094  0.0055
12741TIP3    H159714   3.567   2.087  15.313  0.3144  0.3542  1.0152
12741TIP3    H259715   3.584   2.214  15.232 -0.7348 -0.4093 -0.4523
12742TIP3   OH259716   0.694   0.150  15.180 -0.3071 -0.1044 -0.1980
12742TIP3    H159717   0.667   0.136  15.089  0.2091 -1.0259 -0.2162
12742TIP3    H259718   0.787   0.173  15.174 -0.4664  0.6494  0.0492
12743TIP3   OH259719   6.217   0.324  12.127 -0.4940 -0.2214  0.8396
12743TIP3    H159720   6.307   0.318  12.095 -0.8731  0.8746 -0.5129
12743TIP3    H259721   6.209   0.251  12.188  0.9403 -1.0669  0.0800
12744TIP3   OH259722   3.892   4.679   4.784  0.1382 -0.1442  0.3500
12744TIP3    H159723   3.812   4.634   4.812 -0.1486 -1.1476 -1.9326
12744TIP3    H259724   3.877   4.701   4.693  1.9333  0.9436  0.2657
12745TIP3   OH259725   0.277   1.334   3.508  0.2009 -0.0422  0.1678
12745TIP3    H159726   0.340   1.406   3.512  1.3767 -0.9572 -1.0598
12745TIP3    H259727   0.217   1.359   3.437  0.0070  0.1898  0.4127
12746TIP3   OH259728   6.363   5.769   3.346 -0.1950 -0.3411 -0.0429
12746TIP3    H159729   6.353   5.852   3.300  0.3734 -0.1167  0.2177
12746TIP3    H259730   6.458   5.760   3.356 -0.2288 -1.2800 -0.5339
12747TIP3   OH259731   0.386   4.039   4.532 -0.4615 -0.0881 -0.0220
12747TIP3    H159732   0.318   4.098   4.566  2.5717  2.4706  2.0951
12747TIP3    H259733   0.393   4.062   4.439 -1.4205  0.6879  0.0776
12748TIP3   OH259734   5.701   4.072  11.235  0.7374  0.3215 -0.1140
12748TIP3    H159735   5.623   4.077  11.290 -0.0531 -3.9533 -0.5123
12748TIP3    H259736   5.669   4.086  11.146  0.4027 -1.0899 -0.2411
12749TIP3   OH259737   6.550   6.793  15.518  0.1049 -0.5636 -0.0889
12749TIP3    H159738   6.609   6.718  15.509  1.0882  0.2898 -1.0563
12749TIP3    H259739   6.525   6.816  15.428  1.0210  1.1728  0.0535
12750TIP3   OH259740   1.701   0.322  14.690  0.2902 -0.1845  0.2423
12750TIP3    H159741   1.761   0.388  14.654  1.1796  0.2408  2.3686
12750TIP3    H259742   1.651   0.291  14.614  1.4149  1.3066 -1.1719
12751TIP3   OH259743   0.357   2.035   4.771  0.4535 -0.2427  0.2155
12751TIP3    H159744   0.421   2.079   4.715 -1.3595  1.0762 -0.9287
12751TIP3    H259745   0.363   2.080   4.855 -0.6000  1.5306 -0.6120
12752TIP3   OH259746   6.484   5.060   5.062  0.3051 -0.6708 -0.0529
12752TIP3    H159747   6.491   5.027   5.152 -1.2905 -1.5647 -0.2104
12752TIP3    H259748   6.443   5.146   5.071  1.8743  0.0819  0.1729
12753TIP3   OH259749   1.349   0.827   2.773 -0.0465 -0.0557  0.2415
12753TIP3    H159750   1.402   0.756   2.738 -1.2008 -0.7062 -0.2325
12753TIP3    H259751   1.322   0.797   2.859 -0.8724 -0.3869 -0.1226
12754TIP3   OH259752   3.604   1.803  14.109  0.4352 -0.0404 -0.1168
12754TIP3    H159753   3.688   1.764  14.133 -0.0789 -1.4894 -0.5586
12754TIP3    H259754   3.549   1.792  14.186  0.3530  0.0152 -0.1668
12755TIP3   OH259755   2.994   0.069  12.119  0.6205 -0.5911  0.7194
12755TIP3    H159756   2.942   0.015  12.059  2.4722 -1.7506  0.0902
12755TIP3    H259757   3.071   0.094  12.068  0.4843  1.5267  1.4652
12756TIP3   OH259758   1.329   2.372   4.901  0.2603 -0.1311 -0.6586
12756TIP3    H159759   1.412   2.414   4.928  0.3853 -0.4445 -0.5527
12756TIP3    H259760   1.272   2.383   4.977  1.1746 -2.5666  0.4699
12757TIP3   OH259761   0.905   2.256   9.849 -0.0585 -0.0969 -0.2067
12757TIP3    H159762   0.919   2.326   9.913  0.9073  0.3875 -0.9187
12757TIP3    H259763   0.986   2.253   9.799 -1.0087 -0.0122 -1.8353
12758TIP3   OH259764   6.522   5.326  11.503 -0.5206  0.5047  0.4142
12758TIP3    H159765   6.589   5.393  11.511 -0.6027  0.7979 -0.9771
12758TIP3    H259766   6.440   5.370  11.525 -0.5708  0.8854 -0.4742
12759TIP3   OH259767   0.034   4.221  11.329  0.2083 -0.6556  0.6295
12759TIP3    H159768   0.052   4.248  11.420  1.3103 -0.7452  0.4472
12759TIP3    H259769   0.119   4.193  11.295 -0.3829 -1.5499 -0.1316
12760TIP3   OH259770   3.300   5.106  11.572 -0.3001 -0.2045 -0.5699
12760TIP3    H159771   3.313   5.044  11.644 -1.2209  0.3746  0.1078
12760TIP3    H259772   3.322   5.191  11.609 -0.7956  0.1028 -0.9755
12761TIP3   OH259773   4.614   3.407  12.189 -0.5958 -0.3577 -0.0478
12761TIP3    H159774   4.535   3.360  12.165 -1.5144  1.0466  0.0695
12761TIP3    H259775   4.654   3.434  12.106 -0.4957 -0.6484 -0.0951
12762TIP3   OH259776   6.341   3.170  14.381 -0.8496  0.0022 -0.2668
12762TIP3    H159777   6.253   3.183  14.417 -1.3562 -0.1376 -1.4101
12762TIP3    H259778   6.395   3.234  14.426 -1.0298 -1.4060  2.1576
12763TIP3   OH259779   6.469   0.746  16.422  0.0134  0.4570 -0.2750
12763TIP3    H159780   6.467   0.706  16.335 -0.2378 -0.5410  0.1725
12763TIP3    H259781   6.502   0.676  16.480 -1.0264  0.6832  0.6282
12764TIP3   OH259782   3.980   3.503   5.058 -0.1498  0.2570 -0.1866
12764TIP3    H159783   4.066   3.490   5.018 -0.2459 -0.2647 -0.2237
12764TIP3    H259784   3.949   3.585   5.020  0.6258  0.8150  0.3526
12765TIP3   OH259785   5.751   3.748  11.756 -0.2417 -0.3590 -0.0572
12765TIP3    H159786   5.772   3.685  11.687  2.5215 -1.1483  1.3313
12765TIP3    H259787   5.760   3.834  11.714 -1.0499 -0.8427 -1.2468
12766TIP3   OH259788   4.666   2.237  11.215  0.0487 -0.1660 -0.3707
12766TIP3    H159789   4.682   2.328  11.239  0.0951 -0.1654 -0.4042
12766TIP3    H259790   4.724   2.186  11.272 -0.9631 -0.2560  0.6127
12767TIP3   OH259791   1.598   6.141  11.712  0.3766  0.8648  0.4689
12767TIP3    H159792   1.590   6.235  11.695  2.4085  0.9923 -0.0406
12767TIP3    H259793   1.554   6.099  11.638  1.6967  1.4432 -0.6800
12768TIP3   OH259794   0.552   3.314   3.794 -0.5831  0.3093 -0.4523
12768TIP3    H159795   0.593   3.341   3.712 -1.7836  0.7399 -0.9302
12768TIP3    H259796   0.622   3.322   3.859  0.2707  0.3673 -1.3485
12769TIP3   OH259797   2.431   0.999   0.820  0.1859  0.2751 -0.2052
12769TIP3    H159798   2.425   0.948   0.739 -1.9204 -1.5888  1.0070
12769TIP3    H259799   2.451   0.933   0.887  0.2038  1.5165  1.0343
12770TIP3   OH259800   4.735   6.544   4.894 -0.2485  0.1719 -0.4998
12770TIP3    H159801   4.825   6.536   4.926 -0.7228 -0.8678  0.6570
12770TIP3    H259802   4.681   6.515   4.967 -1.5997  1.8241 -0.7780
12771TIP3   OH259803   2.143   3.586   1.052 -0.5509  0.0130 -0.6604
12771TIP3    H159804   2.236   3.586   1.029 -0.3566  1.1901 -0.0013
12771TIP3    H259805   2.109   3.665   1.011 -1.2769 -0.4420 -0.9370
12772TIP3   OH259806   6.158   0.769  13.434  0.3270 -0.0414 -0.4083
12772TIP3    H159807   6.113   0.842  13.392  0.1670 -0.4385 -0.9299
12772TIP3    H259808   6.094   0.698  13.434 -0.2414  0.3969  1.9098
12773TIP3   OH259809   2.957   3.482  14.420 -0.3799 -0.3242  0.5331
12773TIP3    H159810   2.873   3.442  14.395 -0.3525 -0.1053  0.0814
12773TIP3    H259811   3.023   3.420  14.390 -0.3423 -0.0063 -0.0476
12774TIP3   OH259812   2.382   0.958  14.185  0.3631 -0.5363  0.1950
12774TIP3    H159813   2.402   1.049  14.162  3.8074 -0.7511  1.6356
12774TIP3    H259814   2.321   0.964  14.258 -2.2674  0.3925 -1.9120
12775TIP3   OH259815   5.788   2.306   3.601  0.3365  0.6151  0.6386
12775TIP3    H159816   5.776   2.294   3.695 -0.6366  1.2456  0.6083
12775TIP3    H259817   5.718   2.365   3.575 -2.4979 -3.2225 -1.3856
12776TIP3   OH259818   1.293   1.487   4.449 -0.1983  0.0722 -0.6257
12776TIP3    H159819   1.331   1.405   4.416 -1.6596 -0.8042 -0.2653
12776TIP3    H259820   1.257   1.463   4.535  0.6172  1.4772  0.1297
12777TIP3   OH259821   0.304   3.113   2.201 -0.1453  0.0578  0.3644
12777TIP3    H159822   0.293   3.134   2.294  0.2503  1.4109  0.1221
12777TIP3    H259823   0.218   3.079   2.175 -0.3866  0.0498  1.1240
12778TIP3   OH259824   3.356   3.201   5.307  0.0615 -0.0491  0.7596
12778TIP3    H159825   3.286   3.263   5.288  1.3653  1.5989  1.1147
12778TIP3    H259826   3.376   3.161   5.222 -0.2374  0.6199  0.3672
12779TIP3   OH259827   5.968   0.801   4.454 -0.3818  0.5414  0.0724
12779TIP3    H159828   5.957   0.825   4.545 -1.4055 -0.7550  0.3160
12779TIP3    H259829   5.892   0.837   4.409  0.3869  1.6409 -0.3884
12780TIP3   OH259830   2.446   0.205   5.303  0.5981 -0.2964 -0.5642
12780TIP3    H159831   2.367   0.195   5.250 -0.0740 -1.2509  0.5576
12780TIP3    H259832   2.414   0.220   5.392  1.6898  0.5049 -0.2830
12781TIP3   OH259833   4.126   5.014   1.454  0.8624  0.2431  0.2255
12781TIP3    H159834   4.033   5.025   1.473  0.6966  1.1652 -1.0220
12781TIP3    H259835   4.134   4.925   1.421  0.5143  0.0060  0.7661
12782TIP3   OH259836   1.717   5.204   1.492  0.2005  0.4782  0.3591
12782TIP3    H159837   1.764   5.281   1.523 -0.8645  0.8734  1.0720
12782TIP3    H259838   1.638   5.239   1.451  0.1295 -0.2008 -0.1064
12783TIP3   OH259839   3.602   0.696   2.268 -0.0456 -0.4768 -0.3957
12783TIP3    H159840   3.677   0.653   2.227 -0.1909 -1.6694  0.5498
12783TIP3    H259841   3.637   0.729   2.351  0.2418  1.8924 -1.3776
12784TIP3   OH259842   0.676   4.003  14.714 -0.4371  0.7613  0.3095
12784TIP3    H159843   0.672   3.962  14.628  0.3315  3.5291 -1.1638
12784TIP3    H259844   0.711   3.935  14.772 -0.1170 -0.9105 -1.7500
12785TIP3   OH259845   3.953   1.675   4.067  0.4760 -0.0157 -0.1232
12785TIP3    H159846   3.908   1.645   4.146 -1.2149 -1.4359 -1.5331
12785TIP3    H259847   3.988   1.761   4.090 -2.0852  0.7271  1.4062
12786TIP3   OH259848   6.262   3.845  14.133 -0.1610 -0.4109  0.7835
12786TIP3    H159849   6.224   3.837  14.220 -2.6708 -1.2664 -0.3007
12786TIP3    H259850   6.220   3.776  14.082  0.3236  0.8234 -1.4071
12787TIP3   OH259851   6.028   4.581  15.763  0.2991 -0.2607 -0.7411
12787TIP3    H159852   6.085   4.513  15.725  0.1182 -0.7839 -0.0982
12787TIP3    H259853   5.952   4.533  15.795  0.3189  0.2039  0.0199
12788TIP3   OH259854   5.177   1.463   3.943 -0.4015  0.4145  0.1422
12788TIP3    H159855   5.108   1.480   3.880 -0.7804 -0.7692  0.2073
12788TIP3    H259856   5.247   1.524   3.920 -1.0736  0.9312 -0.5515
12789TIP3   OH259857   6.467   1.775  13.581  0.2804 -0.0861 -0.0002
12789TIP3    H159858   6.419   1.780  13.499 -0.6795  1.5682  0.6350
12789TIP3    H259859   6.547   1.726  13.559 -1.4448 -2.5547 -1.1587
12790TIP3   OH259860   4.041   1.473  15.699 -0.2922 -0.0094  0.0589
12790TIP3    H159861   3.973   1.406  15.698 -0.1279 -0.1781  0.0080
12790TIP3    H259862   3.997   1.551  15.731 -0.0650 -0.6126  1.9916
12791TIP3   OH259863   5.379   6.240  11.213  0.1994 -0.1892  0.5619
12791TIP3    H159864   5.322   6.221  11.288 -0.1661  0.5182  0.4752
12791TIP3    H259865   5.464   6.204  11.237 -0.3212 -1.4195  0.6267
12792TIP3   OH259866   6.022   5.091  15.462  0.0030  0.3298 -0.0627
12792TIP3    H159867   6.050   5.063  15.375  1.3938  1.7342 -0.1072
12792TIP3    H259868   6.059   5.025  15.521  1.7973  1.0828 -0.2937
12793TIP3   OH259869   5.652   6.090   0.690 -0.3547 -0.9353 -0.1360
12793TIP3    H159870   5.671   6.164   0.748 -0.6715 -1.0547  0.1285
12793TIP3    H259871   5.727   6.084   0.632  0.3686 -1.3503  0.8222
12794TIP3   OH259872   6.192   1.560   9.866 -0.1462  0.1056  0.0414
12794TIP3    H159873   6.126   1.623   9.892 -1.7006 -0.8284 -1.3757
12794TIP3    H259874   6.178   1.484   9.923  0.8736  0.5347  0.8900
12795TIP3   OH259875   6.292   3.291  12.806 -0.9707 -0.0806 -0.0993
12795TIP3    H159876   6.331   3.292  12.893 -2.4016 -0.8860  0.5900
12795TIP3    H259877   6.357   3.333  12.750  1.0686 -1.7150  0.8887
12796TIP3   OH259878   0.678   0.272  12.072 -0.0518 -0.6813 -1.2875
12796TIP3    H159879   0.651   0.264  12.163 -2.4682 -0.6272 -1.9240
12796TIP3    H259880   0.687   0.182  12.040  0.0753 -0.6991 -1.2022
12797TIP3   OH259881   3.934   4.059  13.802  0.7513  0.1429 -0.0900
12797TIP3    H159882   3.869   4.041  13.734  0.3238  1.0286  0.0647
12797TIP3    H259883   3.935   3.980  13.856 -0.9545  0.4762  0.5054
12798TIP3   OH259884   5.893   2.939  16.654  0.0831  0.0353 -0.0118
12798TIP3    H159885   5.968   2.994  16.632  0.1918 -0.6107 -1.3085
12798TIP3    H259886   5.840   2.994  16.712  1.7478  0.3485  1.2841
12799TIP3   OH259887   4.826   6.283   5.045  0.3000 -0.5481 -0.3932
12799TIP3    H159888   4.759   6.258   4.982 -0.3686  2.7212 -1.1645
12799TIP3    H259889   4.788   6.263   5.130 -1.8239  1.3073 -0.8102
12800TIP3   OH259890   1.859   0.657   9.949  0.3176 -0.2920 -0.3274
12800TIP3    H159891   1.899   0.589  10.004  0.8601 -1.2125 -1.7993
12800TIP3    H259892   1.934   0.705   9.914 -0.0228  0.2498 -0.3103
12801TIP3   OH259893   5.200   5.242  14.021 -0.1978  0.1394  0.3350
12801TIP3    H159894   5.129   5.185  14.049 -0.0888  0.0129  0.3518
12801TIP3    H259895   5.241   5.272  14.102 -0.8070  0.9439  0.3567
12802TIP3   OH259896   3.327   1.130  13.878  0.3603 -0.2824  0.3267
12802TIP3    H159897   3.284   1.058  13.924 -0.4713  0.1905  0.3092
12802TIP3    H259898   3.265   1.156  13.810  0.6715  0.4103  0.2919
12803TIP3   OH259899   1.895   6.085   2.471  0.7618 -0.0312 -0.1314
12803TIP3    H159900   1.958   6.112   2.537  0.5453 -1.3824  0.6422
12803TIP3    H259901   1.832   6.031   2.518 -0.0036 -0.1275 -1.2354
12804TIP3   OH259902   4.667   1.894  14.653  0.2712 -0.2053 -0.5519
12804TIP3    H159903   4.626   1.860  14.573 -1.7144  3.3964 -1.3174
12804TIP3    H259904   4.749   1.933  14.623 -0.4215  1.0473 -0.9257
12805TIP3   OH259905   6.228   4.373  14.732 -0.3915  0.8557  0.1191
12805TIP3    H159906   6.260   4.437  14.668  1.6357  0.8781  1.0684
12805TIP3    H259907   6.203   4.297  14.679  2.4339  0.3733 -0.7189
12806TIP3   OH259908   2.072   2.705  10.398  0.0600  0.0590  0.6399
12806TIP3    H159909   2.027   2.645  10.339  0.8006 -0.5065  0.6366
12806TIP3    H259910   2.139   2.652  10.440  2.4059  1.3588 -1.1800
12807TIP3   OH259911   5.649   5.282  12.469  1.4395  0.1533  0.3503
12807TIP3    H159912   5.615   5.260  12.556 -0.4923 -0.5082 -0.5087
12807TIP3    H259913   5.613   5.215  12.412  0.8879  1.7749 -1.3118
12808TIP3   OH259914   5.892   1.554   1.121 -0.4428 -1.3758  0.0593
12808TIP3    H159915   5.887   1.459   1.107  0.0715 -1.2729 -0.8762
12808TIP3    H259916   5.877   1.592   1.034 -0.8676 -0.5857  0.4657
12809TIP3   OH259917   5.091   3.189  13.295 -0.0417  0.2762 -0.6743
12809TIP3    H159918   5.174   3.175  13.251 -0.3399  1.4317 -1.6860
12809TIP3    H259919   5.032   3.218  13.226 -1.8225 -2.2086 -0.3527
12810TIP3   OH259920   0.107   4.969   1.178 -0.5842 -0.0942 -0.2982
12810TIP3    H159921   0.197   4.984   1.148 -0.0103 -0.8035  0.9815
12810TIP3    H259922   0.082   4.886   1.137 -0.2889 -0.3821  0.0870
12811TIP3   OH259923   1.065   5.446  12.471  0.4412  0.0579  0.0348
12811TIP3    H159924   1.117   5.430  12.550 -0.6023  1.2624  1.0138
12811TIP3    H259925   1.116   5.509  12.421  0.9533 -0.4666 -0.1217
12812TIP3   OH259926   3.993   2.966   3.224 -0.4454  0.2498 -0.0712
12812TIP3    H159927   3.923   2.992   3.165 -0.5058  0.0315 -0.0969
12812TIP3    H259928   4.029   2.886   3.186  1.3454  1.5665 -1.3136
12813TIP3   OH259929   6.482   3.245  10.371  0.2856  0.5113  0.6915
12813TIP3    H159930   6.411   3.196  10.331  0.4643  0.9490 -0.1919
12813TIP3    H259931   6.524   3.184  10.431 -1.6700  0.6337  2.2745
12814TIP3   OH259932   2.173   2.360   4.301 -0.3130  0.0248 -0.1301
12814TIP3    H159933   2.252   2.392   4.345  0.4513 -2.1088  0.2041
12814TIP3    H259934   2.101   2.384   4.360  0.2064  0.9747  0.1330
12815TIP3   OH259935   2.579   5.441   3.985 -0.5714  0.1451 -0.7703
12815TIP3    H159936   2.589   5.532   3.956  0.0304  0.7244  1.0644
12815TIP3    H259937   2.668   5.407   3.988 -0.7783 -0.4418 -1.2513
12816TIP3   OH259938   0.987   2.228   4.307 -0.0462 -0.3595  0.2793
12816TIP3    H159939   0.975   2.322   4.315 -0.7916 -0.3439 -0.7304
12816TIP3    H259940   0.976   2.194   4.395 -1.3623  0.3484  0.4041
12817TIP3   OH259941   5.687   0.175  13.138  0.5502 -0.1466  0.1229
12817TIP3    H159942   5.658   0.263  13.113  1.6009 -0.3561 -2.1314
12817TIP3    H259943   5.782   0.181  13.139  0.6227 -1.1779  0.2243
12818TIP3   OH259944   2.107   4.197  15.514 -0.2033 -0.2748  0.2427
12818TIP3    H159945   2.189   4.239  15.488 -0.0813 -1.1586 -0.8511
12818TIP3    H259946   2.040   4.264  15.502 -0.0008 -0.3420 -1.4176
12819TIP3   OH259947   6.609   1.072  12.754  0.0213 -0.4566  0.2719
12819TIP3    H159948   6.660   1.147  12.783  0.5484 -0.7099  0.0100
12819TIP3    H259949   6.547   1.108  12.690  0.6890 -0.3389 -0.3211
12820TIP3   OH259950   2.835   4.891   5.252  0.2512 -0.0538 -0.4423
12820TIP3    H159951   2.777   4.830   5.297 -0.3257  0.9703  0.2159
12820TIP3    H259952   2.922   4.873   5.288  0.0867 -0.4737 -0.2519
12821TIP3   OH259953   1.455   2.461   2.310  0.9461 -0.2100  0.3499
12821TIP3    H159954   1.518   2.451   2.239  0.6268 -1.6397  0.2348
12821TIP3    H259955   1.438   2.372   2.340 -0.6744  0.1658  0.6815
12822TIP3   OH259956   2.208   0.429  12.275  0.1510 -0.1662 -0.1767
12822TIP3    H159957   2.134   0.461  12.327  0.9846  2.3325 -0.3964
12822TIP3    H259958   2.178   0.435  12.184  0.4449  0.4109 -0.2412
12823TIP3   OH259959   5.918   3.380  16.615 -0.1780 -0.1348 -0.2218
12823TIP3    H159960   5.863   3.450  16.650  1.4977  1.7548 -1.1420
12823TIP3    H259961   5.883   3.363  16.527 -0.3926 -0.2404 -0.1163
12824TIP3   OH259962   2.986   2.056  14.099 -0.4174  0.0929 -0.2512
12824TIP3    H159963   3.078   2.061  14.074 -0.0799 -1.0010  0.6588
12824TIP3    H259964   2.958   1.969  14.072 -0.9528  0.1225  0.1778
12825TIP3   OH259965   0.939   2.543  16.675  0.1094  0.3157 -0.1340
12825TIP3    H159966   1.021   2.549  16.626  0.9657 -0.6729  1.1001
12825TIP3    H259967   0.964   2.565  16.765 -0.7210 -1.0868  0.4711
12826TIP3   OH259968   4.522   4.296   3.643  0.2395 -0.4170  0.2134
12826TIP3    H159969   4.499   4.212   3.684 -3.2606  0.3082  0.0220
12826TIP3    H259970   4.565   4.271   3.561 -1.3957 -2.1235 -0.2086
12827TIP3   OH259971   1.248   4.105  15.246  0.7658 -0.2833 -0.6878
12827TIP3    H159972   1.231   4.199  15.256 -1.0583 -0.8014  2.8369
12827TIP3    H259973   1.177   4.073  15.190 -0.6046  0.0614  0.7496
12828TIP3   OH259974   0.902   6.496  11.643  0.8267  0.1320  0.6418
12828TIP3    H159975   0.974   6.527  11.697  0.7030  0.9740  0.3337
12828TIP3    H259976   0.824   6.505  11.699  0.7753  0.4799  0.5141
12829TIP3   OH259977   0.460   4.879   0.648  0.0745  0.1957  0.5823
12829TIP3    H159978   0.410   4.800   0.670 -0.5910  0.5381  0.3000
12829TIP3    H259979   0.409   4.951   0.683 -0.3017  0.6438 -0.8570
12830TIP3   OH259980   3.459   5.311   0.956 -0.3041  0.1243  0.4588
12830TIP3    H159981   3.417   5.351   1.032 -0.6802  2.5259 -0.9027
12830TIP3    H259982   3.542   5.357   0.947  0.0237 -0.5667 -0.2234
12831TIP3   OH259983   6.302   6.453   4.751 -0.0732  0.3067 -0.1436
12831TIP3    H159984   6.332   6.505   4.676 -0.2547 -0.7667 -0.9852
12831TIP3    H259985   6.272   6.518   4.815 -1.7290  1.2422 -1.7653
12832TIP3   OH259986   3.807   4.280  10.861  0.6240 -0.1845 -0.1878
12832TIP3    H159987   3.839   4.369  10.853  1.3900 -0.4303  0.0308
12832TIP3    H259988   3.832   4.237  10.779 -1.0015  0.1716 -0.8965
12833TIP3   OH259989   0.293   6.735   1.567 -0.5583  0.0053 -0.6209
12833TIP3    H159990   0.293   6.711   1.659 -0.1252  0.3174 -0.5357
12833TIP3    H259991   0.212   6.698   1.532 -1.7190  1.5382  0.3189
12834TIP3   OH259992   2.496   2.158  13.105 -0.3654 -0.3441 -1.1137
12834TIP3    H159993   2.507   2.172  13.011 -1.0859  2.2710 -0.8779
12834TIP3    H259994   2.422   2.099  13.113 -1.1339  0.4507 -2.1824
12835TIP3   OH259995   6.003   3.040   1.147  1.1472  0.1062 -0.1698
12835TIP3    H159996   6.011   2.970   1.082  0.1861  0.4499 -0.6928
12835TIP3    H259997   6.092   3.072   1.160  1.5847 -1.1595  0.0290
12836TIP3   OH259998   3.566   2.280  12.873 -0.7880 -0.1904 -0.1218
12836TIP3    H159999   3.640   2.243  12.921 -1.0553 -0.9446 -0.2826
12836TIP3    H260000   3.522   2.205  12.833 -1.4382  0.2806 -0.3219
12837TIP3   OH260001   5.040   4.648  16.258  0.2726 -0.4448 -0.1560
12837TIP3    H160002   4.968   4.607  16.211 -0.0865 -2.5154  1.9758
12837TIP3    H260003   5.119   4.615  16.214 -0.0639 -1.1722 -0.2219
12838TIP3   OH260004   4.934   1.160  11.794 -0.2411 -0.5473  0.0726
12838TIP3    H160005   4.948   1.072  11.829 -1.6859 -0.7206  0.2884
12838TIP3    H260006   4.839   1.165  11.778  0.0373  0.3850 -1.5223
12839TIP3   OH260007   1.685   2.533  11.581  0.1577 -0.0134  0.4686
12839TIP3    H160008   1.641   2.516  11.497  1.0934 -0.2097  0.0075
12839TIP3    H260009   1.614   2.557  11.640 -0.6880 -1.1050 -0.0500
12840TIP3   OH260010   0.223   1.689   0.414  0.3707 -0.2083 -0.0833
12840TIP3    H160011   0.159   1.623   0.387 -1.1738  0.7289  1.1191
12840TIP3    H260012   0.239   1.740   0.335 -0.8425 -0.0899 -0.2678
12841TIP3   OH260013   3.724   0.185   4.503  0.6615  0.0065  0.7314
12841TIP3    H160014   3.668   0.163   4.428 -0.2815 -1.5315  1.8342
12841TIP3    H260015   3.813   0.183   4.467  0.2355 -0.7383 -0.3472
12842TIP3   OH260016   5.305   2.835   0.452 -0.1040  0.0740  0.1209
12842TIP3    H160017   5.324   2.908   0.393  0.3789 -0.3472 -0.2592
12842TIP3    H260018   5.240   2.783   0.405  1.6243 -1.2776 -0.9392
12843TIP3   OH260019   5.158   1.245   2.114 -0.5489 -0.2165  0.3660
12843TIP3    H160020   5.122   1.212   2.031  0.2252 -0.3427  0.0701
12843TIP3    H260021   5.158   1.340   2.103 -1.8434 -0.1426  0.8233
12844TIP3   OH260022   5.509   1.770   4.623  0.2372  0.3919 -0.0644
12844TIP3    H160023   5.498   1.850   4.573  0.6774 -0.2882 -1.3135
12844TIP3    H260024   5.429   1.762   4.675 -0.0367  1.3594 -0.3263
12845TIP3   OH260025   5.716   1.809   1.157  0.5936 -0.4929 -0.8344
12845TIP3    H160026   5.778   1.803   1.084 -0.4009 -0.1810 -1.7180
12845TIP3    H260027   5.688   1.900   1.157  0.8175 -0.4094  0.1503
12846TIP3   OH260028   0.734   2.658  16.930  0.0418  0.2923  0.3512
12846TIP3    H160029   0.733   2.743  16.975 -2.1948  0.9923 -0.9162
12846TIP3    H260030   0.643   2.641  16.908  0.7562 -1.1970 -1.7569
12847TIP3   OH260031   6.723   1.083  14.323  0.2021  0.1546  0.4571
12847TIP3    H160032   6.811   1.108  14.295  0.3901  0.9034  1.6379
12847TIP3    H260033   6.736   1.004  14.376  0.3252  0.8859  1.5548
12848TIP3   OH260034   5.358   3.361  15.431  0.0919  0.1139 -0.0457
12848TIP3    H160035   5.418   3.287  15.439 -1.7328 -1.7159 -2.1229
12848TIP3    H260036   5.328   3.359  15.340  0.2134  3.6679 -0.3039
12849TIP3   OH260037   2.391   4.935   4.417 -0.6702  0.5779  0.0997
12849TIP3    H160038   2.446   4.926   4.339  0.0629 -0.3734  0.6968
12849TIP3    H260039   2.382   5.029   4.430 -0.1884  0.7457 -0.7093
12850TIP3   OH260040   5.776   0.714   0.866  0.2356 -0.2187  0.4952
12850TIP3    H160041   5.793   0.630   0.909  0.1319  0.2212  1.4241
12850TIP3    H260042   5.795   0.698   0.774 -0.5964 -1.4921  0.5220
12851TIP3   OH260043   2.727   2.704  13.702  0.2042 -0.7661 -0.4787
12851TIP3    H160044   2.654   2.643  13.693  0.0646 -0.3354 -2.9051
12851TIP3    H260045   2.726   2.729  13.795 -2.1845 -1.4191 -0.2613
12852TIP3   OH260046   1.563   5.620   5.663 -0.0450  0.3810  0.3027
12852TIP3    H160047   1.519   5.581   5.588 -1.1957  1.2385  0.5150
12852TIP3    H260048   1.647   5.650   5.628  0.7358 -1.8989  0.0561
12853TIP3   OH260049   4.404   5.202  10.182 -0.1698  0.5526 -0.3689
12853TIP3    H160050   4.488   5.245  10.165  0.3957 -0.9427 -1.5648
12853TIP3    H260051   4.338   5.267  10.158  0.6356  1.4835 -0.1226
12854TIP3   OH260052   5.610   1.635   2.294 -0.3325 -0.2325  0.2453
12854TIP3    H160053   5.570   1.635   2.381  1.9965 -0.6363  1.3922
12854TIP3    H260054   5.627   1.727   2.276 -1.4966 -0.0800 -0.1439
12855TIP3   OH260055   4.125   2.340   1.395  0.1308  0.2112  0.4615
12855TIP3    H160056   4.213   2.321   1.363 -0.4556  0.4236 -1.3893
12855TIP3    H260057   4.081   2.255   1.396  0.0633  0.2460  0.4540
12856TIP3   OH260058   4.818   0.976   6.075  0.0721 -0.0806 -0.3236
12856TIP3    H160059   4.782   0.925   6.147 -1.9795 -1.8005 -2.4369
12856TIP3    H260060   4.817   1.066   6.107 -0.6108 -0.7913  1.8229
12857TIP3   OH260061   4.285   5.037   4.840  0.1491 -0.1699 -0.2612
12857TIP3    H160062   4.263   4.962   4.785 -0.5302  1.5730 -2.5329
12857TIP3    H260063   4.267   5.114   4.785 -1.5789  1.7899  2.7461
12858TIP3   OH260064   6.284   1.456  11.673 -0.0587 -0.0640  0.1391
12858TIP3    H160065   6.249   1.488  11.589  0.6637  1.2245  0.2970
12858TIP3    H260066   6.239   1.508  11.739  0.7042  0.2308  0.4429
12859TIP3   OH260067   5.421   3.194  12.267  0.2171  0.4256 -0.2036
12859TIP3    H160068   5.431   3.221  12.176 -1.4090  0.5340 -0.3794
12859TIP3    H260069   5.505   3.154  12.290  1.1242  1.5939 -1.3193
12860TIP3   OH260070   1.800   4.673   0.568 -0.4007  0.3666 -0.4707
12860TIP3    H160071   1.712   4.642   0.546 -0.5355  1.3797 -1.4406
12860TIP3    H260072   1.836   4.604   0.623 -1.4356 -0.5318 -0.8722
12861TIP3   OH260073   0.632   4.829  15.973 -0.1201 -0.7971 -0.1780
12861TIP3    H160074   0.705   4.840  15.912 -0.3015 -0.7857 -0.3919
12861TIP3    H260075   0.554   4.842  15.920 -0.2765 -0.6698  0.0810
12862TIP3   OH260076   5.701   3.081  12.142  0.0299  0.3122  0.3574
12862TIP3    H160077   5.736   3.056  12.227 -0.4187 -0.6539  0.2657
12862TIP3    H260078   5.656   3.003  12.110  2.1142 -0.1232 -1.7943
12863TIP3   OH260079   4.065   3.315  14.589 -0.4665  0.1180  0.1113
12863TIP3    H160080   4.096   3.327  14.679  0.2490  0.7148 -0.2030
12863TIP3    H260081   4.132   3.358  14.535 -1.4124  0.6783 -0.6405
12864TIP3   OH260082   6.609   5.771  14.178 -0.1679 -0.1264 -0.0177
12864TIP3    H160083   6.556   5.845  14.147  1.9921  1.2288 -0.7439
12864TIP3    H260084   6.546   5.709  14.214 -2.2786  1.0449 -1.4895
12865TIP3   OH260085   0.650   2.009  17.082 -0.4073 -0.2344  0.0748
12865TIP3    H160086   0.696   1.931  17.114  0.3853  0.4215  0.5976
12865TIP3    H260087   0.710   2.046  17.017  0.2945  1.1451  1.4262
12866TIP3   OH260088   5.821   2.488   4.937  0.2550 -0.3487 -0.5304
12866TIP3    H160089   5.840   2.398   4.912  1.0785  0.2837 -2.4670
12866TIP3    H260090   5.728   2.488   4.960 -0.1017 -1.4440 -1.8359
12867TIP3   OH260091   1.150   2.257   2.283  0.4066 -0.2842 -0.0727
12867TIP3    H160092   1.168   2.301   2.201  0.5208  0.1040  0.1575
12867TIP3    H260093   1.115   2.325   2.341  1.4627 -0.2722  0.5853
12868TIP3   OH260094   2.184   1.267  13.009 -0.0685 -0.3088 -0.3885
12868TIP3    H160095   2.153   1.199  12.949  4.3548 -2.7013 -0.3800
12868TIP3    H260096   2.184   1.225  13.095  0.3407  0.6122  0.0769
12869TIP3   OH260097   6.172   4.802  13.367 -0.0513  0.9310  0.8134
12869TIP3    H160098   6.104   4.846  13.316 -1.5980 -2.7452 -0.6467
12869TIP3    H260099   6.129   4.777  13.449  0.1176  0.2510  0.6996
12870TIP3   OH260100   1.239   4.730   5.496 -0.0162  0.8771 -0.1625
12870TIP3    H160101   1.196   4.649   5.466 -1.0881  1.0627  0.8214
12870TIP3    H260102   1.317   4.700   5.543 -1.3033  0.2832  1.6952
12871TIP3   OH260103   6.179   3.966  17.157 -0.4823  0.1536 -0.3012
12871TIP3    H160104   6.266   3.957  17.195 -0.5533  1.8582  0.3455
12871TIP3    H260105   6.194   3.987  17.065 -0.2098  0.0260 -0.2839
12872TIP3   OH260106   3.469   1.195  11.515 -0.2074 -0.4845  0.3371
12872TIP3    H160107   3.399   1.146  11.471 -0.7949 -0.9300  1.6863
12872TIP3    H260108   3.500   1.257  11.450 -2.5410  0.4122 -0.0270
12873TIP3   OH260109   3.228   6.613  14.373  0.0813  0.2702 -0.2196
12873TIP3    H160110   3.263   6.568  14.296 -1.3338 -0.7136 -0.3380
12873TIP3    H260111   3.234   6.548  14.443  1.7956  1.3109  0.6681
12874TIP3   OH260112   1.686   5.641   0.513  0.0402  0.2949  0.2968
12874TIP3    H160113   1.617   5.575   0.514 -0.1066  0.4404 -0.0358
12874TIP3    H260114   1.698   5.666   0.604  0.7284 -0.8567  0.5466
12875TIP3   OH260115   3.659   0.395   2.627 -0.1320  0.1493 -0.2417
12875TIP3    H160116   3.578   0.376   2.675  0.1638 -0.9912 -0.1561
12875TIP3    H260117   3.656   0.335   2.552  2.4051 -2.8827  1.8057
12876TIP3   OH260118   6.677   5.220   3.087  0.2503  0.3179 -0.0044
12876TIP3    H160119   6.760   5.178   3.110 -0.1016 -0.4776 -0.1444
12876TIP3    H260120   6.630   5.229   3.170  0.1246 -0.0316 -0.0328
12877TIP3   OH260121   5.589   5.692   5.287 -0.1980 -0.0897 -0.4902
12877TIP3    H160122   5.636   5.775   5.293 -0.1314  0.0487 -2.2755
12877TIP3    H260123   5.656   5.625   5.294 -0.0833  0.0433 -0.3299
12878TIP3   OH260124   6.669   6.134   2.240  0.1209  0.6688 -0.2577
12878TIP3    H160125   6.604   6.066   2.259 -0.5090  1.3306 -0.0163
12878TIP3    H260126   6.719   6.143   2.320  0.3646  0.3214 -0.3683
12879TIP3   OH260127   5.315   6.222  12.536 -0.0529 -0.2409 -0.0906
12879TIP3    H160128   5.285   6.161  12.603  0.1507 -0.3742 -0.1198
12879TIP3    H260129   5.236   6.270  12.510  0.3685  2.5738  3.0249
12880TIP3   OH260130   6.102   4.179  15.302 -0.0579  0.4660 -0.0942
12880TIP3    H160131   6.195   4.160  15.311 -0.4700 -1.2722  1.0392
12880TIP3    H260132   6.059   4.095  15.319 -1.9205  1.6732  1.6099
12881TIP3   OH260133   0.562   5.606  14.632 -1.0868  0.0378 -0.4389
12881TIP3    H160134   0.515   5.558  14.700 -2.6883 -0.3546 -1.7624
12881TIP3    H260135   0.568   5.696  14.665 -0.7093 -0.4025  0.7461
12882TIP3   OH260136   5.306   0.640  16.620  0.7866 -0.6342  0.3467
12882TIP3    H160137   5.310   0.574  16.551  0.9133  1.7477 -2.0858
12882TIP3    H260138   5.367   0.708  16.592  1.3546  0.1509  3.2044
12883TIP3   OH260139   6.592   0.151  15.273 -0.2533  0.0987  0.3884
12883TIP3    H160140   6.536   0.168  15.197  0.8660 -0.5135 -0.6219
12883TIP3    H260141   6.647   0.229  15.280  1.1180 -0.6854 -0.8301
12884TIP3   OH260142   5.919   4.076  14.775  0.0066  0.4335 -0.2192
12884TIP3    H160143   5.866   4.123  14.839 -2.4395 -0.8204 -1.1820
12884TIP3    H260144   5.855   4.037  14.715  1.9678 -2.2409 -0.7623
12885TIP3   OH260145   0.344   5.612   1.607  0.5010  0.5426  0.0820
12885TIP3    H160146   0.325   5.616   1.701 -0.4162 -1.3077  0.0022
12885TIP3    H260147   0.425   5.664   1.597  0.3704  1.1429  1.7967
12886TIP3   OH260148   2.986   1.325  14.283 -0.2050  0.6269  0.5064
12886TIP3    H160149   2.940   1.320  14.199  0.1641  1.8281  0.2021
12886TIP3    H260150   2.919   1.308  14.349 -0.7240  0.7097  0.0056
12887TIP3   OH260151   4.622   3.078   0.146 -0.2351 -0.4819  0.6283
12887TIP3    H160152   4.666   3.159   0.122  0.3478 -0.9335  0.1511
12887TIP3    H260153   4.608   3.086   0.241 -0.8720  0.4949  0.4695
12888TIP3   OH260154   5.811   6.314  10.907  0.2083  0.0956  0.0390
12888TIP3    H160155   5.822   6.307  11.002  0.7398 -1.6223 -0.1123
12888TIP3    H260156   5.731   6.264  10.889  0.4491 -0.1112 -0.4701
12889TIP3   OH260157   5.675   1.666   5.990 -0.3129  0.1521 -0.1033
12889TIP3    H160158   5.593   1.712   6.007  0.6340  1.9412 -0.1554
12889TIP3    H260159   5.679   1.658   5.895 -0.2136  0.4538 -0.1231
12890TIP3   OH260160   0.387   0.216  15.542 -0.8684 -0.3435 -0.1918
12890TIP3    H160161   0.307   0.246  15.584 -1.5469  1.1548 -2.3449
12890TIP3    H260162   0.357   0.172  15.462  0.4329  1.4049 -1.7193
12891TIP3   OH260163   2.450   3.106  13.974  0.2589 -0.3844 -0.3856
12891TIP3    H160164   2.500   3.176  13.931  1.7521 -1.6086 -0.7327
12891TIP3    H260165   2.368   3.148  14.000  0.5521  1.1532 -1.7622
12892TIP3   OH260166   5.075   1.564  13.091  0.4984  0.2058 -0.0841
12892TIP3    H160167   5.033   1.520  13.017  0.3800  0.0903  0.0513
12892TIP3    H260168   5.152   1.510  13.110  0.7773  0.4830 -0.4083
12893TIP3   OH260169   2.981   5.274   5.023 -0.0327  0.0138  0.7225
12893TIP3    H160170   2.944   5.193   4.987 -0.7688  0.2053  1.0117
12893TIP3    H260171   2.934   5.285   5.106  0.4253  0.4708  0.9199
12894TIP3   OH260172   4.533   4.562   1.442 -0.7147  0.3597  0.0236
12894TIP3    H160173   4.510   4.474   1.472  1.3271 -0.5472 -0.8583
12894TIP3    H260174   4.577   4.603   1.517 -1.8053  0.7152  0.4861
12895TIP3   OH260175   0.751   4.641  17.088 -0.2276  0.2059  0.0651
12895TIP3    H160176   0.691   4.680  17.025 -1.1993 -1.2400  0.0581
12895TIP3    H260177   0.827   4.615  17.036 -0.4790  0.1779 -0.2946
12896TIP3   OH260178   6.335   3.056   3.035  0.1411  0.1772  0.0896
12896TIP3    H160179   6.371   3.140   3.006 -0.1580  0.6225  0.9838
12896TIP3    H260180   6.283   3.078   3.112  0.1768 -0.8550  0.4108
12897TIP3   OH260181   5.129   4.733   3.523  0.2057  0.7375  0.2577
12897TIP3    H160182   5.050   4.703   3.479  1.5007 -0.7585 -1.1857
12897TIP3    H260183   5.098   4.797   3.588 -2.2842 -0.6915  0.5998
12898TIP3   OH260184   0.131   3.358  13.722  0.3255 -0.5525  0.6313
12898TIP3    H160185   0.172   3.272  13.737 -0.8413 -1.3530 -0.5565
12898TIP3    H260186   0.079   3.346  13.642 -0.9097  0.8918  1.1796
12899TIP3   OH260187   2.996   2.429   4.939 -0.8232 -0.5089 -1.1091
12899TIP3    H160188   2.935   2.492   4.977  1.5031  1.8568 -0.9859
12899TIP3    H260189   3.019   2.466   4.854  1.7001 -0.3049 -0.4392
12900TIP3   OH260190   4.139   3.938   6.591  0.2438 -0.0938 -0.2068
12900TIP3    H160191   4.212   3.877   6.576 -0.5776 -0.7671 -1.6531
12900TIP3    H260192   4.180   4.016   6.628  1.3638 -1.4110  1.5100
12901TIP3   OH260193   6.131   3.509   1.371  0.3012  0.0884  0.2521
12901TIP3    H160194   6.043   3.539   1.347 -0.5970 -0.6316  2.3643
12901TIP3    H260195   6.184   3.524   1.293 -1.6202  0.8335 -0.9815
12902TIP3   OH260196   5.898   4.827  10.951 -0.3645  0.0093  0.3335
12902TIP3    H160197   5.840   4.902  10.957 -0.3613  0.0553 -0.2187
12902TIP3    H260198   5.866   4.777  10.876  0.2399 -0.0164  0.0872
12903TIP3   OH260199   4.102   6.386  16.770  0.1370  0.6687  0.2654
12903TIP3    H160200   4.189   6.365  16.737 -0.5406  1.0183 -1.9253
12903TIP3    H260201   4.117   6.452  16.838  1.4816  2.6085 -1.7927
12904TIP3   OH260202   0.659   6.526   1.955 -0.0742 -0.1649  0.3666
12904TIP3    H160203   0.604   6.584   1.903  1.4371 -0.6659 -1.9399
12904TIP3    H260204   0.721   6.489   1.892  0.6245 -2.3402  2.2129
12905TIP3   OH260205   5.108   6.231  15.399  0.1639 -0.1053 -0.2274
12905TIP3    H160206   5.174   6.245  15.331  1.3806  3.3111  1.4115
12905TIP3    H260207   5.042   6.298  15.382 -0.6169 -0.6315  0.6755
12906TIP3   OH260208   4.517   0.814  13.412 -0.2799  0.3558 -0.3175
12906TIP3    H160209   4.563   0.865  13.479 -1.3993  1.7011 -0.5266
12906TIP3    H260210   4.459   0.877  13.369  1.2115 -0.1681 -3.3726
12907TIP3   OH260211   2.953   1.024  13.778  0.0084 -0.0995 -0.3771
12907TIP3    H160212   2.895   1.055  13.847  0.8826 -0.5640  0.6033
12907TIP3    H260213   2.912   0.943  13.747  0.0914 -0.4020  0.2772
12908TIP3   OH260214   1.905   1.544  15.376  0.5273 -0.2001 -0.6324
12908TIP3    H160215   1.964   1.489  15.428  2.6458  1.0770 -1.6121
12908TIP3    H260216   1.914   1.631  15.414 -1.7639 -0.1673  0.0108
12909TIP3   OH260217   1.639   3.120   4.460  0.4541 -0.0337  0.1480
12909TIP3    H160218   1.687   3.191   4.503  1.3768 -0.0074 -0.8882
12909TIP3    H260219   1.645   3.047   4.521  0.5521  0.4094  0.6798
12910TIP3   OH260220   1.999   3.450  15.122  0.2439  0.4442 -0.0345
12910TIP3    H160221   1.948   3.370  15.132  4.3455 -2.5149 -0.5467
12910TIP3    H260222   2.050   3.457  15.203  0.4947  2.1422 -0.3069
12911TIP3   OH260223   0.051   1.284   5.369  0.3145 -0.6124 -0.0226
12911TIP3    H160224  -0.021   1.289   5.432  1.2310  1.7423  0.9403
12911TIP3    H260225   0.107   1.214   5.402 -0.1187 -0.5943  0.7786
12912TIP3   OH260226   0.352   2.427  13.860 -0.4020  0.1386 -0.1823
12912TIP3    H160227   0.326   2.431  13.952 -1.0328 -1.3341 -0.2675
12912TIP3    H260228   0.294   2.362  13.821  0.1192  0.4430 -1.5455
12913TIP3   OH260229   6.570   2.216  15.051  0.1579  0.4273  0.0514
12913TIP3    H160230   6.504   2.250  15.110 -0.9199  0.5798 -1.1975
12913TIP3    H260231   6.583   2.286  14.986 -1.4012 -1.0664 -2.0062
12914TIP3   OH260232   0.983   3.707   2.789  0.0885 -0.2368  0.5102
12914TIP3    H160233   0.891   3.684   2.789  0.1621 -0.5580  1.0863
12914TIP3    H260234   1.028   3.626   2.814  0.2081  0.9484  5.0420
12915TIP3   OH260235   6.202   2.207  12.383  0.3182  0.5934 -0.3014
12915TIP3    H160236   6.274   2.198  12.319 -0.3797 -0.3624 -0.9897
12915TIP3    H260237   6.145   2.273  12.345  0.4477  0.7967 -0.1384
12916TIP3   OH260238   1.603   5.953  14.087  0.4535 -1.0208 -0.0542
12916TIP3    H160239   1.508   5.950  14.094  0.2527 -0.6114 -2.0175
12916TIP3    H260240   1.633   5.873  14.131 -0.6043 -0.1007  2.5044
12917TIP3   OH260241   6.046   0.265  16.868 -0.1267  0.1705  0.1894
12917TIP3    H160242   5.957   0.301  16.864 -0.9403 -1.7980 -1.4835
12917TIP3    H260243   6.100   0.327  16.820 -1.4206 -0.5447 -2.3639
12918TIP3   OH260244   4.530   3.208  14.931  0.0335  0.9420  0.3969
12918TIP3    H160245   4.450   3.160  14.951  0.7260 -0.0185  0.9271
12918TIP3    H260246   4.544   3.191  14.837  0.3599 -0.0515  0.6114
12919TIP3   OH260247   0.141   4.448   3.883  0.1170  0.0966  0.2925
12919TIP3    H160248   0.051   4.436   3.913  0.0249  0.7078  0.2622
12919TIP3    H260249   0.163   4.365   3.840  0.2203 -0.7803  1.9609
12920TIP3   OH260250   1.116   2.714  13.076  0.2875 -0.0050  0.0515
12920TIP3    H160251   1.207   2.741  13.069  1.0118 -1.7930  1.7176
12920TIP3    H260252   1.088   2.700  12.985  1.6309  0.6456 -0.4867
12921TIP3   OH260253   3.735   6.419  11.478 -0.5286  0.1894  0.1311
12921TIP3    H160254   3.792   6.342  11.487 -0.6631 -0.0564 -0.9344
12921TIP3    H260255   3.648   6.387  11.504 -0.3317  0.3649  1.0330
12922TIP3   OH260256   0.850   6.053   5.643  0.4183 -0.4952  0.2843
12922TIP3    H160257   0.927   6.043   5.587  0.3333 -0.5810  0.1837
12922TIP3    H260258   0.868   5.999   5.720  0.4659 -0.5005  0.2692
12923TIP3   OH260259   5.920   1.189   1.830  0.1403 -0.1562 -0.6751
12923TIP3    H160260   5.826   1.180   1.844  0.4321 -2.0254  0.3122
12923TIP3    H260261   5.960   1.163   1.913  1.5341  0.8349 -1.0006
12924TIP3   OH260262   4.765   0.802   1.255  0.0524 -0.5612 -0.2084
12924TIP3    H160263   4.749   0.809   1.349 -0.5879  0.1415 -0.3573
12924TIP3    H260264   4.680   0.777   1.218  0.2731 -0.7164 -0.6112
12925TIP3   OH260265   5.504   2.076  14.721 -0.3154 -0.0353 -0.5803
12925TIP3    H160266   5.599   2.070  14.712 -0.0427  1.6166  0.6406
12925TIP3    H260267   5.480   2.003  14.778  0.2317 -0.3609 -0.7599
12926TIP3   OH260268   4.660   5.432  14.587 -0.1747 -0.0350  0.2218
12926TIP3    H160269   4.756   5.429  14.587 -0.1602  0.0194  1.1268
12926TIP3    H260270   4.634   5.348  14.627 -0.5806 -1.0853 -2.0894
12927TIP3   OH260271   2.734   6.539  16.544  0.3234 -0.1452 -0.4642
12927TIP3    H160272   2.684   6.458  16.551  2.0368 -1.1182  1.2530
12927TIP3    H260273   2.687   6.590  16.478 -1.2120 -2.2162 -1.0747
12928TIP3   OH260274   1.493   4.994  12.080  0.4831 -0.2030  0.2617
12928TIP3    H160275   1.495   4.917  12.023  2.2467 -0.3089  0.4397
12928TIP3    H260276   1.572   5.043  12.058  1.0097 -0.0381  2.3040
12929TIP3   OH260277   2.721   5.389  12.272  0.7864 -0.5115  0.2203
12929TIP3    H160278   2.732   5.298  12.300 -1.2655 -1.4636 -1.7874
12929TIP3    H260279   2.635   5.415  12.306  0.6628  0.1433 -0.5726
12930TIP3   OH260280   2.233   5.501  11.798 -0.2943 -0.1837  0.0865
12930TIP3    H160281   2.293   5.573  11.816  1.6039 -1.3449 -1.1699
12930TIP3    H260282   2.203   5.517  11.708 -1.6969  0.2303  0.6063
12931TIP3   OH260283   5.038   3.750  15.945  0.4780  1.1708  0.9495
12931TIP3    H160284   5.131   3.728  15.948  1.2942  4.1566  0.3309
12931TIP3    H260285   5.000   3.702  16.019  2.0410 -1.7235  0.0360
12932TIP3   OH260286   3.454   0.002  16.210 -0.3272  0.4585 -0.1343
12932TIP3    H160287   3.454   0.098  16.208 -1.2451  0.4576 -0.7307
12932TIP3    H260288   3.386  -0.020  16.273 -1.4529  0.2145 -1.3735
12933TIP3   OH260289   5.200   1.271   5.534 -0.1419  0.2739  0.2381
12933TIP3    H160290   5.280   1.307   5.495 -0.3523 -1.1060 -1.5881
12933TIP3    H260291   5.231   1.211   5.602  0.4323 -0.5865 -0.7514
12934TIP3   OH260292   1.669   4.949  16.307  0.9371 -0.1367 -0.1050
12934TIP3    H160293   1.738   4.947  16.374  0.7191  0.4072  0.1408
12934TIP3    H260294   1.591   4.918  16.353  1.0916 -1.1418 -0.4872
12935TIP3   OH260295   3.224   1.540   3.911  0.1048  0.3352  0.3360
12935TIP3    H160296   3.285   1.611   3.929  1.1156 -0.1096 -1.1415
12935TIP3    H260297   3.138   1.577   3.931  0.4756  2.4241 -1.4834
12936TIP3   OH260298   0.867   3.036   5.538 -0.6344 -0.2041 -0.3078
12936TIP3    H160299   0.898   2.994   5.457 -0.0260  0.5474 -0.4853
12936TIP3    H260300   0.905   2.984   5.608 -1.2527 -0.9274 -0.4941
12937TIP3   OH260301   5.336   3.976   1.664 -0.7092 -0.6385 -0.3361
12937TIP3    H160302   5.307   3.887   1.682 -1.0893 -0.6974 -1.2156
12937TIP3    H260303   5.386   4.001   1.742  1.6087 -2.5442 -1.0999
12938TIP3   OH260304   6.528   2.233  14.532 -0.3304 -0.0485 -0.0224
12938TIP3    H160305   6.567   2.263  14.451  0.6669 -1.3034 -0.0393
12938TIP3    H260306   6.436   2.217  14.510 -0.3041  0.6121 -0.6259
12939TIP3   OH260307   0.695   2.107   2.769  0.5023  0.1694  0.0657
12939TIP3    H160308   0.606   2.106   2.732  0.3338  0.8847  0.4540
12939TIP3    H260309   0.752   2.095   2.693  0.1585  1.7195 -0.4713
12940TIP3   OH260310   5.234   2.581  11.022  0.1679  0.0950  0.2495
12940TIP3    H160311   5.289   2.613  11.093 -0.1709 -0.2280  0.6726
12940TIP3    H260312   5.262   2.490  11.009  0.4292  0.2451 -0.2328
12941TIP3   OH260313   2.912   2.711  15.413  0.1125  0.4912  0.0605
12941TIP3    H160314   2.932   2.752  15.329  0.3969  1.0495  0.4011
12941TIP3    H260315   2.969   2.634  15.416  1.0976  1.2195  0.3407
12942TIP3   OH260316   1.494   2.871   3.448 -0.0640 -0.8187  0.0984
12942TIP3    H160317   1.413   2.857   3.399 -0.9216 -1.8017  1.7189
12942TIP3    H260318   1.475   2.838   3.536  0.7625  2.5891  1.7278
12943TIP3   OH260319   4.847   3.981  14.935 -0.2626 -0.2161 -0.4150
12943TIP3    H160320   4.894   4.064  14.945 -0.4775  0.5079 -4.0724
12943TIP3    H260321   4.916   3.916  14.920  0.0058 -1.1438  3.6974
12944TIP3   OH260322   0.226   0.997  10.939 -0.4262 -0.2480  0.1673
12944TIP3    H160323   0.143   0.956  10.914 -0.4632  0.4044 -0.8295
12944TIP3    H260324   0.277   0.926  10.979 -0.4274 -1.3401 -1.6668
12945TIP3   OH260325   1.789   4.102  11.645  0.2203 -0.4086 -0.0829
12945TIP3    H160326   1.727   4.144  11.705 -1.2603 -0.2239 -1.6363
12945TIP3    H260327   1.771   4.143  11.560  2.5034 -0.3757 -0.6197
12946TIP3   OH260328   2.436   0.584  13.028 -0.5036  0.0377  0.4922
12946TIP3    H160329   2.516   0.560  13.075 -0.0373  0.6064 -0.0055
12946TIP3    H260330   2.432   0.522  12.955 -0.3628  0.1856  0.3572
12947TIP3   OH260331   3.795   4.584  10.063 -0.2178  0.3608  0.2165
12947TIP3    H160332   3.729   4.615  10.125 -0.1640  0.7217  0.0968
12947TIP3    H260333   3.748   4.575   9.980 -0.1797  0.3493  0.1960
12948TIP3   OH260334   5.024   5.053  14.103 -0.5857 -0.5049  0.0975
12948TIP3    H160335   4.958   4.998  14.060 -0.0232 -1.3876  0.3481
12948TIP3    H260336   5.001   5.050  14.196  0.1319 -1.2821  0.2583
12949TIP3   OH260337   1.773   6.648  10.443  0.1614  0.6760 -0.2713
12949TIP3    H160338   1.702   6.585  10.457  2.2937 -2.1327 -1.1680
12949TIP3    H260339   1.738   6.710  10.379 -1.7311 -0.1518 -0.0894
12950TIP3   OH260340   5.388   5.410   0.080  0.1227 -0.2037 -0.4545
12950TIP3    H160341   5.410   5.490   0.128 -0.4710 -1.0613  1.3461
12950TIP3    H260342   5.296   5.393   0.101  0.2536 -1.3993 -0.7254
12951TIP3   OH260343   4.843   5.048   1.360 -0.1969  0.1196  0.2772
12951TIP3    H160344   4.924   5.020   1.317  1.0190  2.2415  1.0365
12951TIP3    H260345   4.775   5.038   1.293  1.2872  1.3906 -1.5141
12952TIP3   OH260346   5.602   1.158  13.665  0.1020  0.1920 -0.0384
12952TIP3    H160347   5.691   1.130  13.688 -0.2182  0.0971  1.1144
12952TIP3    H260348   5.546   1.121  13.733 -1.2051 -1.9954 -2.1543
12953TIP3   OH260349   3.226   5.875  14.558 -0.2606 -0.0119  0.4247
12953TIP3    H160350   3.198   5.783  14.558 -0.5508  0.0710  1.0983
12953TIP3    H260351   3.315   5.872  14.523 -1.2661 -0.1942 -2.3500
12954TIP3   OH260352   6.030   0.591  11.503 -0.3723  0.4269  0.1763
12954TIP3    H160353   6.085   0.656  11.460 -0.3765  0.0820 -0.3591
12954TIP3    H260354   6.055   0.507  11.463 -1.2186  0.2510 -0.0235
12955TIP3   OH260355   1.881   3.646   1.536 -0.2239  0.5678  1.5120
12955TIP3    H160356   1.811   3.681   1.480  1.0685 -1.1672 -1.4166
12955TIP3    H260357   1.835   3.589   1.598 -1.4946 -0.3821 -0.2070
12956TIP3   OH260358   1.879   1.826  10.858  0.2244  0.3729 -0.3660
12956TIP3    H160359   1.854   1.918  10.851  1.1145  0.8003  1.3639
12956TIP3    H260360   1.805   1.778  10.820 -0.7678  1.7599 -0.2674
12957TIP3   OH260361   2.714   6.381   1.635  0.0290 -0.7656  1.4914
12957TIP3    H160362   2.629   6.424   1.646  1.6304  2.1140  3.9725
12957TIP3    H260363   2.732   6.340   1.719  1.3878 -0.7874  1.2087
12958TIP3   OH260364   3.552   6.607  14.099  0.5082 -0.5380  0.8088
12958TIP3    H160365   3.462   6.634  14.082  0.7886  0.2973  0.6219
12958TIP3    H260366   3.571   6.639  14.187  0.7720 -0.3052  0.6688
12959TIP3   OH260367   5.937   6.003  10.861  0.2282 -0.7045  0.3155
12959TIP3    H160368   5.902   5.968  10.943  0.1607 -0.3906  0.4224
12959TIP3    H260369   5.880   6.078  10.841 -0.3114 -1.3091 -0.4854
12960TIP3   OH260370   4.964   6.543  12.289 -0.0739 -0.4758  0.6322
12960TIP3    H160371   5.007   6.628  12.282  0.9303 -1.0373 -0.5144
12960TIP3    H260372   4.878   6.562  12.324  0.2922  0.9668  0.8086
12961TIP3   OH260373   5.667   1.789  16.431 -0.1134 -0.5735  0.1089
12961TIP3    H160374   5.753   1.747  16.427 -0.3992 -1.3127  1.1093
12961TIP3    H260375   5.666   1.851  16.358  0.6038 -1.8015 -0.9817
12962TIP3   OH260376   0.085   6.406  12.853  0.4596  0.0793 -0.1781
12962TIP3    H160377   0.102   6.447  12.938  0.2666  0.2873 -0.2398
12962TIP3    H260378   0.169   6.411  12.807  0.0310  1.9904 -0.8556
12963TIP3   OH260379   0.288   0.110  12.610 -0.5354  0.3586  0.3288
12963TIP3    H160380   0.226   0.160  12.557 -1.3761 -0.6636  0.3159
12963TIP3    H260381   0.329   0.176  12.666  0.5007  1.4972 -1.6437
12964TIP3   OH260382   5.548   4.242   4.474  0.5321 -0.0915 -0.4801
12964TIP3    H160383   5.515   4.197   4.396  0.7990 -0.6646 -0.2675
12964TIP3    H260384   5.472   4.288   4.509  0.2588 -0.3630 -0.7090
12965TIP3   OH260385   5.813   1.505  13.190 -1.0433  0.0721  0.7453
12965TIP3    H160386   5.840   1.470  13.275  1.7600  0.9475  0.3229
12965TIP3    H260387   5.831   1.435  13.128  0.8033  0.7837  0.4134
12966TIP3   OH260388   0.085   0.818  11.573 -0.2973 -0.2804  0.5879
12966TIP3    H160389   0.069   0.908  11.545  0.2902 -0.1928  0.5030
12966TIP3    H260390   0.011   0.768  11.539  0.2380 -0.1307 -0.8821
12967TIP3   OH260391   6.456   3.763   4.967  0.4275 -0.6195  0.6015
12967TIP3    H160392   6.547   3.742   4.983  0.7237 -1.0000 -1.3627
12967TIP3    H260393   6.434   3.719   4.885 -1.9319 -1.6737  1.6863
12968TIP3   OH260394   5.471   6.551  15.555  0.2294 -0.8275  0.3419
12968TIP3    H160395   5.436   6.515  15.474  1.4763 -1.3632  0.0188
12968TIP3    H260396   5.395   6.585  15.601 -0.4801 -0.3655 -1.1190
12969TIP3   OH260397   1.802   3.514  11.010  0.0699  0.7311  0.2087
12969TIP3    H160398   1.712   3.516  11.042  0.3710  0.2149  1.1280
12969TIP3    H260399   1.844   3.445  11.062  0.4078 -0.6437 -1.7538
12970TIP3   OH260400   0.852   1.352   3.457 -0.6124  0.6027  0.1860
12970TIP3    H160401   0.913   1.309   3.397  0.8203  4.5487 -1.4745
12970TIP3    H260402   0.766   1.337   3.418 -0.1530 -0.3528 -0.5221
12971TIP3   OH260403   2.647   6.220  14.351  0.9226  0.5222  0.2553
12971TIP3    H160404   2.679   6.173  14.274 -0.6114 -0.1458 -0.0247
12971TIP3    H260405   2.606   6.152  14.405  0.3423  1.2587  0.7674
12972TIP3   OH260406   0.585   1.640   2.222  0.0438 -0.2111 -0.0335
12972TIP3    H160407   0.544   1.722   2.196 -1.9595 -1.0485  0.2721
12972TIP3    H260408   0.647   1.620   2.152  1.9910  2.4349  0.7933
12973TIP3   OH260409   0.096   4.777  10.889 -0.5814  0.1714 -0.3033
12973TIP3    H160410   0.046   4.806  10.812 -1.1902  0.8806  0.3483
12973TIP3    H260411   0.035   4.786  10.962 -0.3854 -1.5883  0.1165
12974TIP3   OH260412   0.136   1.911  10.534 -0.1329 -0.3858  0.0050
12974TIP3    H160413   0.183   1.943  10.457  1.5916  1.0581  1.5726
12974TIP3    H260414   0.075   1.981  10.556 -0.9492 -0.9884 -0.2585
12975TIP3   OH260415   2.373   4.254  14.237 -0.1589  0.4637 -0.1962
12975TIP3    H160416   2.405   4.178  14.286  0.4581 -0.5332 -2.0461
12975TIP3    H260417   2.342   4.315  14.304  1.0632 -0.6268  1.4281
12976TIP3   OH260418   3.314   5.030  14.148 -0.4300  0.6042 -0.4164
12976TIP3    H160419   3.395   5.015  14.196  0.7931  1.1153 -2.2494
12976TIP3    H260420   3.253   4.964  14.182  0.2170  1.1743  2.0870
12977TIP3   OH260421   6.693   5.750   0.759 -0.0519  0.1143  0.4329
12977TIP3    H160422   6.691   5.770   0.853 -0.6854 -0.3995  0.5345
12977TIP3    H260423   6.770   5.695   0.748  0.1163  0.3070  0.6216
12978TIP3   OH260424   4.855   6.403  11.261 -0.3203 -0.5993  0.0260
12978TIP3    H160425   4.815   6.469  11.205  0.5931  0.0174  0.0843
12978TIP3    H260426   4.814   6.415  11.347  0.2572  0.2865  0.1862
12979TIP3   OH260427   0.409   0.407   1.992 -0.1789 -0.1695 -0.3535
12979TIP3    H160428   0.430   0.350   2.066  0.9776  0.4861 -0.1510
12979TIP3    H260429   0.463   0.375   1.921 -1.2815 -0.7905 -0.9275
12980TIP3   OH260430   5.683   5.953   5.298  0.2954  0.3254 -0.0984
12980TIP3    H160431   5.656   5.975   5.208 -0.5168 -0.2165  0.0049
12980TIP3    H260432   5.757   6.011   5.315 -0.6779  1.7412 -0.4639
12981TIP3   OH260433   4.932   1.947   0.712 -0.0376  0.2926  0.2388
12981TIP3    H160434   4.975   1.902   0.639  0.7558  2.3526 -0.6590
12981TIP3    H260435   4.948   1.891   0.788 -2.4015 -2.8536 -1.3417
12982TIP3   OH260436   5.555   0.626  13.914 -0.2740  0.2424  0.2564
12982TIP3    H160437   5.638   0.580  13.924 -0.1425  0.1354 -1.0840
12982TIP3    H260438   5.533   0.656  14.002  0.0125 -1.6998  1.0383
12983TIP3   OH260439   5.345   1.721  14.733  0.1424  0.1948 -0.2214
12983TIP3    H160440   5.254   1.704  14.710 -0.6053  1.8547  1.2617
12983TIP3    H260441   5.366   1.804  14.688  0.6563  0.2504  0.1089
12984TIP3   OH260442   2.164   2.343   1.471  0.4961  0.0492  0.5376
12984TIP3    H160443   2.113   2.401   1.415  1.5439  0.0134 -0.4822
12984TIP3    H260444   2.144   2.255   1.440  2.3187  0.0995 -0.9155
12985TIP3   OH260445   2.734   3.682   3.948 -0.3075 -0.0828 -0.4097
12985TIP3    H160446   2.659   3.740   3.960  0.5707  0.8502  0.7924
12985TIP3    H260447   2.801   3.737   3.907  0.1861 -0.5274 -0.2080
12986TIP3   OH260448   3.029   6.045   5.241 -0.0268 -0.4161 -0.5905
12986TIP3    H160449   3.051   5.958   5.208  0.3171  0.0061 -1.4869
12986TIP3    H260450   3.032   6.102   5.164  0.4499  0.5224  0.1091
12987TIP3   OH260451   4.722   0.339  11.951 -0.3806 -0.6679 -0.1884
12987TIP3    H160452   4.636   0.365  11.918 -0.7824 -0.2718  1.1249
12987TIP3    H260453   4.705   0.307  12.040  0.8293 -0.6205  0.0746
12988TIP3   OH260454   6.752   4.206   0.195  0.1830  0.1512 -1.1929
12988TIP3    H160455   6.793   4.133   0.242  0.0169  0.6871 -0.1895
12988TIP3    H260456   6.662   4.177   0.180  0.1408  0.1150 -0.8759
12989TIP3   OH260457   6.307   1.254  13.866  0.3300  0.3174 -0.2558
12989TIP3    H160458   6.375   1.196  13.831  1.3100  0.3970  1.4119
12989TIP3    H260459   6.251   1.273  13.791 -0.2186 -2.9954 -0.8433
12990TIP3   OH260460   2.239   3.312   1.623 -0.5286 -0.0885 -0.3768
12990TIP3    H160461   2.181   3.354   1.560 -0.3191 -2.4959 -2.3260
12990TIP3    H260462   2.180   3.266   1.683 -0.7173 -0.4979 -0.8613
12991TIP3   OH260463   5.924   2.955  10.726  0.3563  0.2896 -0.8716
12991TIP3    H160464   5.857   3.021  10.742  0.7836  0.7014 -0.7495
12991TIP3    H260465   5.958   2.976  10.639 -0.3467 -0.5158 -1.3448
12992TIP3   OH260466   4.682   0.859  13.204 -0.1695  0.0047 -0.3700
12992TIP3    H160467   4.650   0.799  13.137 -0.0636  0.8112 -1.1638
12992TIP3    H260468   4.639   0.831  13.285  0.6126 -1.7346 -0.5066
12993TIP3   OH260469   6.354   4.906  14.499  1.2192  0.0508  0.3626
12993TIP3    H160470   6.445   4.915  14.473  1.5726 -0.5980  1.3374
12993TIP3    H260471   6.346   4.960  14.578  1.0229 -0.7168  0.8746
12994TIP3   OH260472   2.034   5.111  15.340 -0.5738 -0.3571  0.0600
12994TIP3    H160473   2.006   5.191  15.385 -1.0159  0.7890 -2.1302
12994TIP3    H260474   2.074   5.142  15.259 -2.1033 -2.3735 -1.5871
12995TIP3   OH260475   4.900   6.256   3.230 -0.2527  0.4826  0.1496
12995TIP3    H160476   4.959   6.327   3.202 -1.0694  1.3849  0.6378
12995TIP3    H260477   4.959   6.189   3.265  0.7808 -0.4077 -2.9539
12996TIP3   OH260478   3.039   2.011   6.553  0.1885 -0.1129  0.0172
12996TIP3    H160479   3.123   2.021   6.509  0.7093 -0.7047  0.8318
12996TIP3    H260480   3.050   1.933   6.607 -0.8653 -0.1565  0.1976
12997TIP3   OH260481   0.129   4.338  14.841  0.8226  0.0226 -0.2989
12997TIP3    H160482   0.095   4.364  14.756 -3.2425  3.2311  1.9130
12997TIP3    H260483   0.095   4.250  14.854 -0.5263  0.3834 -1.1416
12998TIP3   OH260484   0.142   4.074   2.495 -0.5499 -0.0680 -0.2027
12998TIP3    H160485   0.130   4.130   2.572 -0.6448 -1.9276  1.2030
12998TIP3    H260486   0.111   3.988   2.523  0.7246 -1.1310 -1.8809
12999TIP3   OH260487   1.539   0.320  10.987 -0.1655  0.4747 -0.3858
12999TIP3    H160488   1.456   0.288  11.024 -0.1607  0.0668 -0.7132
12999TIP3    H260489   1.541   0.283  10.898  1.2834 -1.1767  0.2712
13000TIP3   OH260490   6.032   5.796  16.340  0.7160 -0.1077  0.0846
13000TIP3    H160491   5.949   5.774  16.297  1.1746 -2.1717  0.1659
13000TIP3    H260492   6.037   5.891  16.333 -0.9904 -0.0487 -1.1580
13001TIP3   OH260493   5.166   2.769  14.497  0.4894  0.6865 -0.1360
13001TIP3    H160494   5.188   2.712  14.423  2.3194  0.5322  0.4904
13001TIP3    H260495   5.250   2.807  14.524  0.0314  0.0667  2.4202
13002TIP3   OH260496   0.539   4.185   4.840  0.5364 -0.6679  0.6989
13002TIP3    H160497   0.577   4.103   4.872  1.1348 -0.3900  0.7227
13002TIP3    H260498   0.615   4.236   4.811  0.1099 -0.4308 -0.0365
13003TIP3   OH260499   0.548   2.294  14.591  0.0144 -0.2696  0.2965
13003TIP3    H160500   0.477   2.355  14.609  0.2833 -0.0624  0.6839
13003TIP3    H260501   0.622   2.329  14.641  1.0138  0.7538 -1.7495
13004TIP3   OH260502   1.750   5.664  13.662  0.3455  0.0104 -0.2062
13004TIP3    H160503   1.718   5.628  13.580 -1.2187 -0.1156  0.4304
13004TIP3    H260504   1.840   5.690  13.643  0.0523 -0.1135 -1.9108
13005TIP3   OH260505   2.472   5.222  11.008  0.2342 -0.3331  0.4520
13005TIP3    H160506   2.525   5.194  11.082  1.0091  0.0881  0.0618
13005TIP3    H260507   2.401   5.273  11.047 -1.3151 -2.8342  1.2111
13006TIP3   OH260508   5.686   2.903   0.596 -0.2557  0.1934 -0.5808
13006TIP3    H160509   5.747   2.976   0.579 -0.9414  0.5754 -1.4241
13006TIP3    H260510   5.660   2.873   0.510 -1.1144 -0.1047 -0.2202
13007TIP3   OH260511   1.133   6.258   5.552 -0.1095 -0.0187 -0.0898
13007TIP3    H160512   1.092   6.245   5.466 -0.0063 -1.0622  0.0028
13007TIP3    H260513   1.060   6.281   5.610 -0.2040  0.5209 -0.4194
13008TIP3   OH260514   0.712   1.148   1.866 -1.0417  0.0427 -0.4519
13008TIP3    H160515   0.750   1.104   1.942  1.0993  1.7654 -0.4277
13008TIP3    H260516   0.670   1.226   1.902 -3.3511 -1.0343 -0.6716
13009TIP3   OH260517   0.276   6.392   5.242  0.2738 -0.2471 -0.1365
13009TIP3    H160518   0.302   6.316   5.190 -3.1304 -0.3874 -1.9192
13009TIP3    H260519   0.242   6.355   5.323  0.8907 -0.4047  0.0585
13010TIP3   OH260520   0.887   2.404   0.174 -0.6718  0.5936  0.6468
13010TIP3    H160521   0.799   2.368   0.175 -0.3616 -0.4560 -1.7578
13010TIP3    H260522   0.881   2.483   0.121 -0.2940  0.8924  1.0446
13011TIP3   OH260523   0.744   6.447  10.932 -0.0423 -0.0246 -0.1066
13011TIP3    H160524   0.784   6.360  10.926  1.7666  0.6673  0.8815
13011TIP3    H260525   0.782   6.495  10.858  0.7790  0.5681  0.6863
13012TIP3   OH260526   4.749   3.436   3.763  0.2788  0.2893  0.1169
13012TIP3    H160527   4.822   3.497   3.751  0.3163  0.4349  0.9928
13012TIP3    H260528   4.726   3.445   3.855 -1.3852  0.8440 -0.3268
13013TIP3   OH260529   6.376   4.014  15.596 -0.0970 -0.3585  0.3594
13013TIP3    H160530   6.352   3.922  15.608  0.2605 -0.3997  0.7928
13013TIP3    H260531   6.359   4.055  15.681  1.7611 -0.4901  0.8416
13014TIP3   OH260532   3.612   5.995   6.233 -0.5623 -0.3378  0.4731
13014TIP3    H160533   3.569   5.910   6.244  0.6528 -0.8088  2.0061
13014TIP3    H260534   3.699   5.983   6.271  0.3014  1.0873 -0.9468
13015TIP3   OH260535   4.643   3.328   1.072 -0.3203 -0.4648 -0.7334
13015TIP3    H160536   4.597   3.347   0.991  0.5143 -2.2068 -1.6501
13015TIP3    H260537   4.574   3.297   1.132 -1.2612  2.5201 -0.0616
13016TIP3   OH260538   6.075   2.431  13.618 -0.1791 -0.0872 -0.3796
13016TIP3    H160539   6.046   2.420  13.708 -0.7698  0.7192 -0.4558
13016TIP3    H260540   5.996   2.417  13.565  0.2370 -0.9087 -0.8031
13017TIP3   OH260541   0.515   1.949  13.120  0.1790  0.3657 -0.4600
13017TIP3    H160542   0.592   1.957  13.177 -0.7125 -2.3995  1.3219
13017TIP3    H260543   0.543   1.891  13.050  0.0948  0.4843 -0.5926
13018TIP3   OH260544   3.434   0.124   4.732  0.0381  0.3100 -0.3089
13018TIP3    H160545   3.513   0.133   4.785  0.5623 -0.6245 -0.9057
13018TIP3    H260546   3.362   0.118   4.795  0.6451 -0.7388  0.3093
13019TIP3   OH260547   5.255   5.903  15.140 -0.3225 -0.1735 -0.0810
13019TIP3    H160548   5.249   5.995  15.113  0.4840  0.0532  0.4767
13019TIP3    H260549   5.279   5.907  15.233 -0.7296 -0.9513  0.0657
13020TIP3   OH260550   6.557   6.340  11.520 -0.3163 -0.7147  0.2085
13020TIP3    H160551   6.566   6.282  11.444  1.9918  1.3518 -1.2439
13020TIP3    H260552   6.613   6.302  11.587 -0.3999 -1.2202 -0.0065
13021TIP3   OH260553   0.218   1.060   5.511  0.2861 -0.6356  0.7995
13021TIP3    H160554   0.301   1.091   5.545  1.4409 -1.5139 -1.0561
13021TIP3    H260555   0.222   0.965   5.521  0.2042 -0.8170 -0.7170
13022TIP3   OH260556   5.016   6.359   6.682 -0.2803  0.1175  0.2962
13022TIP3    H160557   4.941   6.399   6.639  0.9753  1.8541 -0.3993
13022TIP3    H260558   5.020   6.270   6.647 -0.4893  0.8477 -1.6975
13023TIP3   OH260559   1.894   4.004   2.556  0.1761  0.4531 -0.4237
13023TIP3    H160560   1.833   3.931   2.556  0.2724  0.3655 -1.0456
13023TIP3    H260561   1.924   4.010   2.647  0.8286 -0.8244 -0.5375
13024TIP3   OH260562   0.112   4.454  13.343  0.2925  0.1206  0.2613
13024TIP3    H160563   0.165   4.376  13.357  1.0622  0.5051 -0.4617
13024TIP3    H260564   0.139   4.488  13.258 -0.6764  0.6788  0.1526
13025TIP3   OH260565   1.475   3.910  16.268  0.4463  0.4070  0.4507
13025TIP3    H160566   1.456   3.990  16.219 -0.8798 -0.5882 -0.7417
13025TIP3    H260567   1.392   3.885  16.308  0.6848 -0.6915  0.3107
13026TIP3   OH260568   6.176   6.624   4.974  0.2932  0.2647 -0.1206
13026TIP3    H160569   6.261   6.601   5.013  0.2056  0.7260  0.3561
13026TIP3    H260570   6.115   6.621   5.047 -0.0585  0.1757 -0.4173
13027TIP3   OH260571   0.839   0.964   1.138 -0.0406 -0.2390 -0.1657
13027TIP3    H160572   0.825   0.964   1.043  0.5521  0.3639 -0.2564
13027TIP3    H260573   0.922   1.011   1.150  0.5359 -1.3978  0.5559
13028TIP3   OH260574   1.882   4.680  13.566  0.3830 -0.2745  0.0494
13028TIP3    H160575   1.940   4.634  13.627 -0.8397 -0.3630  1.1846
13028TIP3    H260576   1.911   4.651  13.480  0.6359 -1.9871  0.6659
13029TIP3   OH260577   3.273   6.715   0.210  0.2219 -0.3692 -0.0601
13029TIP3    H160578   3.327   6.695   0.133  0.0590 -0.3183 -0.1888
13029TIP3    H260579   3.198   6.762   0.174 -0.3797 -1.2571 -0.0078
13030TIP3   OH260580   0.477   1.393  16.296  0.4764  0.0176 -0.0360
13030TIP3    H160581   0.484   1.479  16.336  3.7018 -0.3012  0.3832
13030TIP3    H260582   0.540   1.395  16.223  0.8063 -2.0110  0.1283
13031TIP3   OH260583   6.830   3.046  11.140  0.4609  0.4533  0.0598
13031TIP3    H160584   6.802   3.097  11.064  0.5168  0.4243  0.0202
13031TIP3    H260585   6.805   3.100  11.215  2.2826  1.4677 -0.0103
13032TIP3   OH260586   1.622   4.301  16.658 -0.6777 -0.1924  0.2332
13032TIP3    H160587   1.682   4.304  16.732 -1.6304  3.6092  1.0566
13032TIP3    H260588   1.671   4.340  16.585 -0.5465 -1.7106 -0.5268
13033TIP3   OH260589   1.616   2.035  10.618 -0.2532  0.1005 -0.5846
13033TIP3    H160590   1.682   2.014  10.551 -0.2883  1.6806 -1.1596
13033TIP3    H260591   1.651   2.112  10.663 -1.9826  1.4630 -1.4052
13034TIP3   OH260592   1.323   0.386   5.595  0.2324  0.3414 -0.4441
13034TIP3    H160593   1.405   0.357   5.633 -1.3685 -0.1461  2.9703
13034TIP3    H260594   1.291   0.453   5.656 -1.8212  0.6476 -1.7759
13035TIP3   OH260595   0.569   5.480  11.667 -0.2914  1.1309  0.3287
13035TIP3    H160596   0.560   5.413  11.598  2.2180  0.7346  0.2673
13035TIP3    H260597   0.581   5.562  11.619 -2.6754  1.5922  0.4013
13036TIP3   OH260598   4.504   2.163   0.228 -0.2542  0.3252  0.4845
13036TIP3    H160599   4.452   2.191   0.153  1.8555 -0.3309 -1.3440
13036TIP3    H260600   4.505   2.068   0.223 -0.8074  0.2146  1.9205
13037TIP3   OH260601   5.865   3.001   1.381  0.3362  0.3887 -0.4743
13037TIP3    H160602   5.913   3.052   1.316  0.0052 -1.4731 -2.2931
13037TIP3    H260603   5.927   2.933   1.408 -0.0766  0.1598 -0.0834
13038TIP3   OH260604   4.331   3.642   2.845  0.2543  0.2714  0.1555
13038TIP3    H160605   4.316   3.628   2.938  1.6311  1.1781  0.5494
13038TIP3    H260606   4.298   3.563   2.803 -1.1288  0.1999  1.3250
13039TIP3   OH260607   2.261   1.915   0.464 -0.1571  0.4662 -0.4532
13039TIP3    H160608   2.327   1.966   0.512 -0.3421  1.2302 -1.0021
13039TIP3    H260609   2.303   1.892   0.382  0.6266 -1.9453  0.5293
13040TIP3   OH260610   3.999   2.871  14.984 -0.5246 -0.1542  0.2144
13040TIP3    H160611   4.053   2.815  15.040 -0.5432 -0.1050  0.2820
13040TIP3    H260612   3.977   2.946  15.040  0.1867  0.3212 -0.1288
13041TIP3   OH260613   4.005   2.532  16.833 -0.4098 -0.0177 -0.6996
13041TIP3    H160614   4.033   2.558  16.921 -0.9723  1.5267 -0.9462
13041TIP3    H260615   3.918   2.495  16.845 -0.0155 -0.9182 -0.4810
13042TIP3   OH260616   4.880   2.130  16.675  0.3054 -0.9061  0.4464
13042TIP3    H160617   4.790   2.097  16.677 -0.6551  1.3477 -0.6560
13042TIP3    H260618   4.911   2.108  16.587  0.1600 -0.2197  0.2096
13043TIP3   OH260619   0.760   2.999   2.954 -0.0462 -0.0956 -0.0860
13043TIP3    H160620   0.709   3.080   2.945  0.4727  0.2855  0.3293
13043TIP3    H260621   0.793   3.001   3.044  0.4578 -0.4804 -0.2581
13044TIP3   OH260622   2.957   5.946  12.158 -0.2479 -0.1849 -0.0040
13044TIP3    H160623   2.931   6.008  12.090  0.7731  0.2282 -0.0351
13044TIP3    H260624   2.933   5.987  12.240  0.8698  0.4957  0.0012
13045TIP3   OH260625   5.917   5.564  11.522 -0.1587 -0.2728 -0.5464
13045TIP3    H160626   5.864   5.634  11.562 -0.5087 -1.8228  1.8943
13045TIP3    H260627   5.975   5.610  11.461  0.7622  2.4053  2.1222
13046TIP3   OH260628   0.067   1.622   5.729 -0.7547 -0.0392 -0.1313
13046TIP3    H160629  -0.013   1.572   5.744 -0.3767 -0.2810  1.2379
13046TIP3    H260630   0.047   1.710   5.761 -0.7171  0.1042 -0.5007
13047TIP3   OH260631   2.973   1.746  14.335  0.1355 -0.0814 -0.0613
13047TIP3    H160632   3.059   1.775  14.367  1.0585 -0.2283 -2.2246
13047TIP3    H260633   2.994   1.684  14.265 -1.7529 -0.4444 -0.3458
13048TIP3   OH260634   2.784   1.314   5.150  0.6496 -0.1320 -0.3395
13048TIP3    H160635   2.799   1.319   5.244  1.3252 -1.4219 -0.3592
13048TIP3    H260636   2.815   1.398   5.116  0.3581  0.3582  0.5821
13049TIP3   OH260637   4.256   0.234  11.207 -0.2177 -0.1945 -0.0195
13049TIP3    H160638   4.246   0.315  11.157  1.3689  0.7847  1.1529
13049TIP3    H260639   4.300   0.261  11.288  1.1735 -2.3608  0.0207
13050TIP3   OH260640   6.538   5.116  14.423 -0.3110 -0.3748 -0.3033
13050TIP3    H160641   6.490   5.190  14.462 -0.8137 -0.0410 -1.4922
13050TIP3    H260642   6.613   5.157  14.379 -0.5965 -0.5552 -0.9733
13051TIP3   OH260643   3.781   6.745  13.920 -0.9050  0.0095 -0.1364
13051TIP3    H160644   3.784   6.769  14.013 -1.1685 -0.0237 -0.1178
13051TIP3    H260645   3.770   6.650  13.920  0.5506 -0.1799 -0.2140
13052TIP3   OH260646   1.267   5.283  16.156 -0.3924  0.3091  0.7076
13052TIP3    H160647   1.304   5.199  16.185 -0.4846  0.3554  0.9643
13052TIP3    H260648   1.173   5.275  16.171 -0.2997  0.7983  1.6274
13053TIP3   OH260649   6.291   1.836  16.458  0.0027 -0.2803 -0.3377
13053TIP3    H160650   6.381   1.866  16.463 -0.1529  0.7370 -2.5402
13053TIP3    H260651   6.292   1.769  16.390 -0.7049 -1.2415  0.5533
13054TIP3   OH260652   4.006   0.888   5.391 -0.0288  0.3118 -0.0812
13054TIP3    H160653   4.049   0.812   5.430 -0.8695 -0.6003 -0.8863
13054TIP3    H260654   4.053   0.963   5.428  1.6821 -0.6071 -0.2475
13055TIP3   OH260655   0.524   1.515   4.741  0.1780  0.1660  0.4124
13055TIP3    H160656   0.477   1.491   4.661  1.3988 -0.1513 -0.2251
13055TIP3    H260657   0.499   1.607   4.756 -3.3525 -0.8807  2.0522
13056TIP3   OH260658   3.573   6.147   3.417  0.0601 -0.7806 -0.4149
13056TIP3    H160659   3.610   6.060   3.402 -1.4744 -1.4682 -0.4533
13056TIP3    H260660   3.479   6.131   3.427 -0.2565  0.8865 -0.4656
13057TIP3   OH260661   3.428   1.815   1.305 -0.2887 -0.0256  0.1926
13057TIP3    H160662   3.456   1.784   1.391  0.9794  0.5583  0.0144
13057TIP3    H260663   3.348   1.766   1.286 -0.1921 -0.6732  1.3846
13058TIP3   OH260664   5.746   0.488  16.590  0.4579 -0.0050 -0.1593
13058TIP3    H160665   5.792   0.497  16.506 -0.2557  0.1890 -0.5463
13058TIP3    H260666   5.803   0.530  16.654  0.4446  0.9677 -0.7687
13059TIP3   OH260667   6.567   1.098   2.135 -0.0765 -0.1460  0.3998
13059TIP3    H160668   6.506   1.075   2.205  0.6944 -0.3170  1.0295
13059TIP3    H260669   6.544   1.189   2.112 -0.8467 -0.3542  0.3221
13060TIP3   OH260670   6.750   0.610  12.229  0.0837 -0.0856  0.3606
13060TIP3    H160671   6.677   0.599  12.169  0.3495 -0.2673  0.0692
13060TIP3    H260672   6.801   0.530  12.220  0.3159  0.0369  0.5669
13061TIP3   OH260673   2.780   5.841   4.837 -0.0966 -0.0689  0.7567
13061TIP3    H160674   2.771   5.920   4.783  0.4347  0.4672  1.4412
13061TIP3    H260675   2.793   5.874   4.926  0.0299 -0.9338  1.0689
13062TIP3   OH260676   5.153   3.452   2.282  0.4173 -0.0850 -0.2480
13062TIP3    H160677   5.215   3.523   2.299 -0.7268  0.8959  0.0015
13062TIP3    H260678   5.163   3.434   2.188  0.9646  0.1810 -0.2426
13063TIP3   OH260679   3.713   4.736  11.035 -0.3312  0.4802 -0.2990
13063TIP3    H160680   3.755   4.651  11.045  1.2358  1.5145  2.9932
13063TIP3    H260681   3.779   4.800  11.060 -2.3362  2.5121  0.2114
13064TIP3   OH260682   6.507   5.899  12.408 -0.4760 -0.6428 -0.5445
13064TIP3    H160683   6.477   5.990  12.401 -0.3443 -0.6689 -1.5436
13064TIP3    H260684   6.602   5.905  12.396 -0.4347 -0.8868 -0.3358
13065TIP3   OH260685   5.913   0.950   5.765  0.4647 -0.5727  0.2310
13065TIP3    H160686   5.967   1.026   5.789  0.4636 -0.7972  0.9618
13065TIP3    H260687   5.823   0.979   5.784  0.5388 -1.1136  1.5618
13066TIP3   OH260688   3.856   0.204  14.434 -0.0961  0.2128  0.0023
13066TIP3    H160689   3.928   0.258  14.467  0.6638 -0.6801 -0.1357
13066TIP3    H260690   3.893   0.157  14.359  0.1875 -2.5787  1.7220
13067TIP3   OH260691   3.599   6.307   1.431 -0.1131  0.1024 -0.0972
13067TIP3    H160692   3.616   6.213   1.444  1.7293  0.1942 -1.3478
13067TIP3    H260693   3.635   6.325   1.344 -2.2817  1.5748 -0.7448
13068TIP3   OH260694   4.312   3.044  15.341  0.0620 -0.1235  0.5391
13068TIP3    H160695   4.306   2.988  15.263  0.9520 -0.0622  0.4071
13068TIP3    H260696   4.267   2.995  15.410 -0.9324 -0.0778 -0.0640
13069TIP3   OH260697   1.327   3.391  16.604 -0.4983  1.0896 -0.0553
13069TIP3    H160698   1.265   3.323  16.579  0.1666 -0.1147  1.4297
13069TIP3    H260699   1.408   3.368  16.558 -0.6155  1.6129 -0.5389
13070TIP3   OH260700   5.560   2.351  11.906 -0.1841 -0.1879 -0.3608
13070TIP3    H160701   5.596   2.387  11.825  1.6196  0.7298  0.7830
13070TIP3    H260702   5.542   2.427  11.961 -1.1289 -0.8016  0.2222
13071TIP3   OH260703   0.722   3.348  10.354 -0.9451 -0.3857 -0.1179
13071TIP3    H160704   0.706   3.380  10.265  0.3822 -0.6973 -0.4966
13071TIP3    H260705   0.766   3.264  10.341 -0.8981 -0.5173  0.8396
13072TIP3   OH260706   4.687   5.312   5.427 -0.5291 -0.5039  0.1104
13072TIP3    H160707   4.620   5.296   5.360 -0.2603 -0.3808 -0.1937
13072TIP3    H260708   4.698   5.407   5.427  0.1552 -0.5739 -0.3554
13073TIP3   OH260709   3.860   3.378   5.749 -0.1818  0.3623  0.6741
13073TIP3    H160710   3.905   3.440   5.807 -0.4496  0.5561  0.6757
13073TIP3    H260711   3.905   3.386   5.665  1.8346 -1.6447  1.4201
13074TIP3   OH260712   3.307   5.448   0.589 -0.2754 -0.2158 -0.3487
13074TIP3    H160713   3.287   5.441   0.496  0.5564 -2.5735 -0.4141
13074TIP3    H260714   3.279   5.364   0.626 -0.9873  0.8313  1.6335
13075TIP3   OH260715   0.403   2.119  15.099 -0.4795  0.1848 -0.0075
13075TIP3    H160716   0.348   2.107  15.022  0.1219 -0.8670 -0.2961
13075TIP3    H260717   0.479   2.167  15.067  0.6099 -1.7744 -0.4955
13076TIP3   OH260718   2.128   2.461  15.925  0.0191  1.1648 -0.0582
13076TIP3    H160719   2.207   2.444  15.975  0.3436  0.3983 -0.7930
13076TIP3    H260720   2.158   2.466  15.834 -0.5037  2.8545 -0.1717
13077TIP3   OH260721   6.155   3.575   5.652  0.3810  0.2898  0.3472
13077TIP3    H160722   6.106   3.585   5.734  1.0141 -0.9234  0.9077
13077TIP3    H260723   6.144   3.483   5.628 -1.9538  1.1360 -2.3898
13078TIP3   OH260724   5.561   6.504   4.120  0.9381 -0.3888  0.2950
13078TIP3    H160725   5.527   6.424   4.158  1.2415 -0.9378 -0.5611
13078TIP3    H260726   5.517   6.574   4.168  0.6961 -1.0603  1.0754
13079TIP3   OH260727   2.596   6.298  16.579 -0.2444 -0.1742 -0.3325
13079TIP3    H160728   2.525   6.284  16.642  0.8216  1.1431  1.2435
13079TIP3    H260729   2.647   6.217  16.582  1.7772  1.0304  3.2566
13080TIP3   OH260730   3.546   0.662  15.773  0.0682 -0.3616  0.2419
13080TIP3    H160731   3.611   0.593  15.761 -1.0710 -1.2477 -1.1395
13080TIP3    H260732   3.571   0.730  15.711 -0.6677 -0.9896 -0.7664
13081TIP3   OH260733   3.773   4.759  11.669  0.3999  0.4612  0.2546
13081TIP3    H160734   3.709   4.806  11.617  0.9512  2.1636  1.0410
13081TIP3    H260735   3.839   4.729  11.606  1.3734  2.9909 -0.0576
13082TIP3   OH260736   6.683   5.160  13.536  0.4712 -0.2313  0.4084
13082TIP3    H160737   6.618   5.106  13.490  0.6034 -0.3655  0.3806
13082TIP3    H260738   6.665   5.249  13.506 -0.7146 -0.0446  1.5631
13083TIP3   OH260739   2.839   4.254   5.689  0.5687 -0.3703  0.6368
13083TIP3    H160740   2.929   4.255   5.720  0.9932  0.2639 -0.5672
13083TIP3    H260741   2.815   4.347   5.682  0.0078 -0.5266  0.4433
13084TIP3   OH260742   3.005   5.673  16.215  0.4254 -0.4314  0.1148
13084TIP3    H160743   3.004   5.595  16.159 -1.5491 -1.4437  1.4068
13084TIP3    H260744   2.921   5.716  16.197  0.8234  0.5495  0.5519
13085TIP3   OH260745   3.541   5.447  10.915 -0.0097 -0.0270  0.5136
13085TIP3    H160746   3.545   5.353  10.934  0.7832 -0.0392  0.3163
13085TIP3    H260747   3.522   5.452  10.822 -0.6658  0.0163  0.6466
13086TIP3   OH260748   6.095   0.008   3.473 -0.4182  0.5238  0.2433
13086TIP3    H160749   6.012  -0.031   3.446 -1.4020  0.7837  2.6786
13086TIP3    H260750   6.082   0.102   3.462 -1.4544  0.7863  2.8992
13087TIP3   OH260751   4.876   6.266   5.874 -0.1353 -0.0858  0.1009
13087TIP3    H160752   4.784   6.243   5.889 -0.1925  0.3512  0.4289
13087TIP3    H260753   4.883   6.277   5.780  0.2034 -2.7902 -0.2810
13088TIP3   OH260754   6.409   6.251   2.638 -0.2298  0.2012 -0.0542
13088TIP3    H160755   6.376   6.247   2.548  0.2370 -1.6035 -0.1858
13088TIP3    H260756   6.348   6.196   2.687  2.3850 -3.3030 -0.3155
13089TIP3   OH260757   6.165   5.821   4.966 -0.4597  0.3513 -0.0524
13089TIP3    H160758   6.248   5.859   4.938 -0.0796 -0.3315  0.1367
13089TIP3    H260759   6.157   5.845   5.058  0.2319 -0.7885  0.3237
13090TIP3   OH260760   5.552   1.121  14.932 -0.1662 -0.2908  0.4748
13090TIP3    H160761   5.469   1.139  14.888 -0.3685 -1.9076  0.1247
13090TIP3    H260762   5.570   1.200  14.983 -1.0586  0.7349 -0.7549
13091TIP3   OH260763   6.759   4.217   2.914  0.2054  0.0736  1.2865
13091TIP3    H160764   6.721   4.151   2.972  0.1191 -0.2822  0.8315
13091TIP3    H260765   6.684   4.259   2.873  0.1359  2.0826  3.2925
13092TIP3   OH260766   5.288   1.034   4.211  0.1506 -0.3092 -0.2592
13092TIP3    H160767   5.366   1.075   4.248 -0.5172 -1.0288  2.1648
13092TIP3    H260768   5.287   1.061   4.120  2.4876  0.8111 -0.0194
13093TIP3   OH260769   6.595   6.600  13.035 -0.2622 -0.7495 -0.1827
13093TIP3    H160770   6.598   6.681  13.087 -2.1034 -0.7086 -0.0775
13093TIP3    H260771   6.629   6.625  12.949 -0.8638  0.1608 -0.1658
13094TIP3   OH260772   3.071   1.256  15.793  0.0585 -0.1053 -0.3720
13094TIP3    H160773   3.092   1.348  15.779  3.0962 -0.9117 -1.7080
13094TIP3    H260774   3.039   1.225  15.708  0.3452 -0.5919 -0.3072
13095TIP3   OH260775   1.938   6.475  12.651 -0.2862  0.4953  0.0131
13095TIP3    H160776   1.847   6.495  12.672 -0.1010  1.6287 -0.1929
13095TIP3    H260777   1.934   6.428  12.568 -0.6841  0.4833  0.0384
13096TIP3   OH260778   4.512   6.683   4.002 -0.1024 -0.2319 -0.0662
13096TIP3    H160779   4.586   6.646   4.050 -0.3468 -2.1795 -1.0720
13096TIP3    H260780   4.516   6.642   3.916 -1.0132  1.4069 -0.9569
13097TIP3   OH260781   1.343   1.986  14.458  0.3821  0.1982  0.4198
13097TIP3    H160782   1.401   2.048  14.504  1.6866  0.3731 -1.3643
13097TIP3    H260783   1.294   2.041  14.396  1.1671 -0.4441 -0.8049
13098TIP3   OH260784   1.888   4.401  14.720  0.3153  0.0843  0.1642
13098TIP3    H160785   1.971   4.449  14.713 -0.4037  1.5058  0.8302
13098TIP3    H260786   1.830   4.461  14.767 -0.4446 -1.7237  1.6914
13099TIP3   OH260787   1.780   3.093  14.294 -0.0362 -0.2587  0.6472
13099TIP3    H160788   1.866   3.107  14.334  0.7006 -0.6465 -0.7110
13099TIP3    H260789   1.741   3.022  14.344  1.3100 -1.4677  0.0479
13100TIP3   OH260790   4.103   5.086  14.350 -0.2787  0.0842  0.1526
13100TIP3    H160791   4.077   5.175  14.324 -1.9756 -0.4901 -0.2433
13100TIP3    H260792   4.021   5.038  14.355  0.6193 -1.4807  0.3802
13101TIP3   OH260793   1.991   4.446   2.021 -0.2352  0.0197 -0.0048
13101TIP3    H160794   2.009   4.500   1.944 -0.7682 -1.2529 -1.0635
13101TIP3    H260795   1.939   4.373   1.987 -0.1858 -0.7538  1.5158
13102TIP3   OH260796   5.820   2.550  16.125 -0.0931 -0.5362  0.3740
13102TIP3    H160797   5.813   2.534  16.220 -1.3114  1.4814  0.6643
13102TIP3    H260798   5.911   2.578  16.113 -0.2981  0.5343  1.1807
13103TIP3   OH260799   2.419   6.642   2.967 -0.3172  0.0058 -0.9021
13103TIP3    H160800   2.428   6.632   3.061 -2.0105 -0.1209 -0.7214
13103TIP3    H260801   2.336   6.600   2.946 -0.0369  0.1550 -2.4316
13104TIP3   OH260802   2.150   1.381  14.036 -0.4301  0.2093 -0.1620
13104TIP3    H160803   2.193   1.346  13.959 -2.4374 -1.8963 -0.4245
13104TIP3    H260804   2.092   1.450  14.002 -0.0002  0.5238 -0.2695
13105TIP3   OH260805   4.078   3.615  12.763 -0.0055  0.4051 -0.3283
13105TIP3    H160806   4.045   3.613  12.853  0.5620  1.5888 -0.0722
13105TIP3    H260807   4.097   3.707  12.747  1.3130  0.0136 -1.1447
13106TIP3   OH260808   2.205   0.518   3.174 -0.2191 -0.7113  0.0573
13106TIP3    H160809   2.295   0.494   3.154 -0.6397 -0.6913 -1.9941
13106TIP3    H260810   2.159   0.515   3.090 -1.0999  3.7934  0.0888
13107TIP3   OH260811   6.749   1.832  16.204  0.2997 -0.9054  0.0107
13107TIP3    H160812   6.806   1.763  16.238  0.0222 -1.0177  0.2484
13107TIP3    H260813   6.809   1.898  16.171  0.5691 -1.3449 -0.3974
13108TIP3   OH260814   2.469   4.918   3.161 -0.1083  0.0149  0.3733
13108TIP3    H160815   2.543   4.922   3.100 -1.0489  0.9428 -0.7721
13108TIP3    H260816   2.495   4.973   3.234  0.2611  0.4991 -0.1147
13109TIP3   OH260817   2.391   6.579  11.456  0.1969  0.2638  0.0711
13109TIP3    H160818   2.427   6.569  11.368  1.6234 -0.8789  0.7461
13109TIP3    H260819   2.454   6.635  11.501  0.3314 -0.4799  0.8224
13110TIP3   OH260820   3.156   6.212   1.245  0.8993  0.0668 -0.2076
13110TIP3    H160821   3.160   6.147   1.316 -1.9048 -1.5311 -1.3503
13110TIP3    H260822   3.081   6.184   1.192  0.8650  3.1048 -1.9468
13111TIP3   OH260823   6.777   2.803   2.357 -0.2030  0.5710 -0.5162
13111TIP3    H160824   6.870   2.803   2.334 -0.3090 -0.3130 -0.9584
13111TIP3    H260825   6.733   2.834   2.278 -0.2889  1.0235 -0.2949
13112TIP3   OH260826   4.496   6.378  16.278 -0.4172 -0.0048  0.5632
13112TIP3    H160827   4.547   6.458  16.289  0.2394 -0.4662  0.8995
13112TIP3    H260828   4.424   6.386  16.341  0.3229 -0.2132  1.4515
13113TIP3   OH260829   2.538   4.536  15.072  0.5677  0.6641  0.3916
13113TIP3    H160830   2.518   4.578  14.989 -1.2371 -0.0006  0.4492
13113TIP3    H260831   2.511   4.445  15.060  0.5851  0.4804  1.5926
13114TIP3   OH260832   5.707   0.134  14.918 -0.3738  0.1345 -0.0636
13114TIP3    H160833   5.681   0.134  15.010 -1.5385 -0.4497 -0.3657
13114TIP3    H260834   5.630   0.168  14.872 -0.9736 -2.3439 -1.0744
13115TIP3   OH260835   5.030   5.716  13.666  0.1254 -0.3669  0.4622
13115TIP3    H160836   5.101   5.669  13.710  2.1088  0.6866 -1.4409
13115TIP3    H260837   5.051   5.809  13.679 -0.3964 -0.0431 -0.8695
13116TIP3   OH260838   4.935   1.006   3.355  0.5089 -0.1795 -0.1277
13116TIP3    H160839   4.937   1.020   3.449 -0.3134 -1.4333  0.1056
13116TIP3    H260840   4.992   0.930   3.340  1.4317  0.6207 -0.7747
13117TIP3   OH260841   5.133   3.779  13.182 -0.1878  0.3340  0.2862
13117TIP3    H160842   5.201   3.810  13.122 -0.4630  0.4484  0.0296
13117TIP3    H260843   5.072   3.731  13.125  0.5788 -1.3024  0.7581
13118TIP3   OH260844   6.114   6.777  13.199 -0.2808 -0.3876 -0.1434
13118TIP3    H160845   6.146   6.785  13.109  1.6066 -2.7589  0.1902
13118TIP3    H260846   6.024   6.745  13.190  0.0261 -1.0118 -1.2163
13119TIP3   OH260847   4.631   2.536  13.629 -0.8471 -0.1236  0.3956
13119TIP3    H160848   4.673   2.562  13.547 -0.4181  0.0548  0.6657
13119TIP3    H260849   4.550   2.587  13.631 -0.2080  0.9105  0.7241
13120TIP3   OH260850   6.149   0.103  12.293  0.4321  0.1515  0.1292
13120TIP3    H160851   6.218   0.036  12.291  0.8020  0.5480 -1.2729
13120TIP3    H260852   6.168   0.154  12.372  1.4136 -0.0805  0.0583
13121TIP3   OH260853   5.383   6.255  15.284  0.4287  0.7663 -0.1766
13121TIP3    H160854   5.392   6.350  15.280  0.5629  0.7287 -0.9751
13121TIP3    H260855   5.466   6.224  15.320  0.7464  0.8974 -0.7809
13122TIP3   OH260856   1.790   1.705   2.524 -0.0779  0.1317  0.0665
13122TIP3    H160857   1.782   1.722   2.430 -4.0542  0.9461  0.3919
13122TIP3    H260858   1.761   1.614   2.535  0.1483  0.1128  0.5536
13123TIP3   OH260859   3.708   4.292   5.481  0.5233 -0.0072  0.1407
13123TIP3    H160860   3.708   4.215   5.423  2.0705  0.6538 -0.8244
13123TIP3    H260861   3.752   4.261   5.561 -0.6897 -0.6453  0.5868
13124TIP3   OH260862   4.970   6.455  11.679 -0.0964 -0.5947 -0.1578
13124TIP3    H160863   4.979   6.486  11.768  1.0262 -0.1463 -0.4091
13124TIP3    H260864   4.906   6.384  11.684 -0.1206 -0.5002  0.9774
13125TIP3   OH260865   2.478   3.711  15.001 -0.3541  0.2882 -0.0297
13125TIP3    H160866   2.422   3.650  15.049 -1.1395  0.9553 -0.0623
13125TIP3    H260867   2.567   3.690  15.029 -0.7637  0.5045  1.5468
13126TIP3   OH260868   3.136   5.348   5.730 -0.5485  0.2376 -0.1093
13126TIP3    H160869   3.144   5.304   5.815 -1.1048 -0.4456 -0.4006
13126TIP3    H260870   3.206   5.311   5.677 -2.3786 -2.0691 -1.0864
13127TIP3   OH260871   5.845   2.468   1.835  0.2742 -0.1447  0.0292
13127TIP3    H160872   5.889   2.521   1.902  0.7546 -0.6394  0.1171
13127TIP3    H260873   5.880   2.501   1.752  0.5469 -0.2999  0.0815
13128TIP3   OH260874   1.294   4.672   1.826 -0.0815  0.0599  0.2981
13128TIP3    H160875   1.209   4.630   1.813 -0.3610  0.2355  1.4173
13128TIP3    H260876   1.294   4.746   1.765 -0.1059 -0.8013 -0.7755
13129TIP3   OH260877   1.246   1.917  13.394  0.0711  0.3875  0.7375
13129TIP3    H160878   1.282   1.828  13.404 -1.2498 -0.2506  0.0294
13129TIP3    H260879   1.321   1.974  13.408  1.2319 -0.8749 -0.0548
13130TIP3   OH260880   1.658   0.711  15.732 -0.8058  0.3150  0.4075
13130TIP3    H160881   1.731   0.702  15.670 -1.0273 -0.3745  0.2399
13130TIP3    H260882   1.621   0.797  15.712 -0.4033  0.4245  0.0956
13131TIP3   OH260883   3.295   4.671  13.985 -0.3596  0.2097 -0.1816
13131TIP3    H160884   3.228   4.704  14.044 -0.5869 -1.1791  0.3732
13131TIP3    H260885   3.250   4.606  13.931  0.0903  0.6985 -1.1711
13132TIP3   OH260886   5.616   0.761   4.158  0.2678  0.0191  0.4951
13132TIP3    H160887   5.640   0.678   4.200 -0.2216  0.3150  1.3739
13132TIP3    H260888   5.524   0.774   4.181  1.1600  2.4737  3.2600
13133TIP3   OH260889   0.156   4.573  15.013  0.0948 -0.0492  0.6180
13133TIP3    H160890   0.139   4.515  14.939  2.5546  0.7788 -0.6788
13133TIP3    H260891   0.211   4.521  15.072  1.4531  0.5649 -0.0667
13134TIP3   OH260892   6.147   1.280  11.447  0.2023  0.1160 -0.3788
13134TIP3    H160893   6.194   1.295  11.365  0.5750 -0.0800 -0.2013
13134TIP3    H260894   6.201   1.217  11.495 -0.0233  0.2176  0.0120
13135TIP3   OH260895   1.698   2.424  16.495  0.3597 -0.0753  0.5855
13135TIP3    H160896   1.714   2.355  16.430  2.3487  0.1220  0.7897
13135TIP3    H260897   1.728   2.386  16.578  1.7399  1.0777  0.6615
13136TIP3   OH260898   1.915   3.176  15.852 -0.3492 -0.4517  0.2962
13136TIP3    H160899   1.907   3.088  15.814 -1.5669 -1.9395  3.5923
13136TIP3    H260900   2.003   3.204  15.828  0.1383 -2.6272 -0.7463
13137TIP3   OH260901   5.537   3.030   5.832  0.2796  0.3519 -0.4232
13137TIP3    H160902   5.453   3.004   5.868  0.8588 -0.3273  0.4529
13137TIP3    H260903   5.556   3.114   5.874  1.2927 -0.7684  1.5021
13138TIP3   OH260904   5.832   6.427  15.119 -0.0303  0.1336  0.1390
13138TIP3    H160905   5.799   6.517  15.120 -1.4611 -0.3193 -1.1639
13138TIP3    H260906   5.889   6.424  15.043 -0.6126 -0.2453 -0.2907
13139TIP3   OH260907   5.770   3.638   2.003 -0.6514  0.0957 -0.3169
13139TIP3    H160908   5.681   3.669   1.985 -0.8743 -0.3171  0.0614
13139TIP3    H260909   5.778   3.642   2.099  0.8223  3.1627 -0.4140
13140TIP3   OH260910   5.540   5.087  10.444  0.2758  0.1209 -0.5804
13140TIP3    H160911   5.509   4.996  10.443  1.6783 -0.3792 -1.3780
13140TIP3    H260912   5.462   5.139  10.429 -0.3704 -1.0260 -1.3397
13141TIP3   OH260913   6.576   1.021  14.800  0.1850  0.4931 -0.3915
13141TIP3    H160914   6.644   1.003  14.735  0.3420  0.8544 -0.3254
13141TIP3    H260915   6.597   1.107  14.835  1.7937 -0.8435  2.2292
13142TIP3   OH260916   3.464   3.316   3.435 -0.1802  0.6478 -0.4468
13142TIP3    H160917   3.438   3.380   3.502 -2.5055 -0.5655 -0.0751
13142TIP3    H260918   3.460   3.365   3.353  0.5435  1.5943  0.0521
13143TIP3   OH260919   0.188   4.485   1.649  0.0854 -0.4071 -0.2004
13143TIP3    H160920   0.217   4.466   1.560 -2.3371  0.3157 -1.2087
13143TIP3    H260921   0.197   4.580   1.657 -0.1246 -0.4184  0.1663
13144TIP3   OH260922   6.568   6.343   3.938 -0.1994  0.0498  0.1172
13144TIP3    H160923   6.557   6.432   3.906  1.1054  0.3024  0.2820
13144TIP3    H260924   6.553   6.349   4.032  0.4518  0.2289  0.2178
13145TIP3   OH260925   2.009   5.747  13.625 -0.2966 -0.3791  0.2001
13145TIP3    H160926   2.104   5.740  13.626 -0.1253  0.1564 -3.0198
13145TIP3    H260927   1.991   5.828  13.671  0.9730  0.4252 -0.6551
13146TIP3   OH260928   5.709   6.794  13.972  0.0846 -0.1258  0.2173
13146TIP3    H160929   5.742   6.744  13.897  0.1744 -0.6471  0.6076
13146TIP3    H260930   5.785   6.846  14.001  0.0774 -0.0004  0.0142
13147TIP3   OH260931   3.024   5.238  12.076 -0.1167  0.3239  0.4029
13147TIP3    H160932   2.984   5.177  12.137 -0.4958 -1.4381 -1.5152
13147TIP3    H260933   3.103   5.194  12.046  1.7184  2.4471  1.7981
13148TIP3   OH260934   1.513   4.441   0.200  0.2833  0.3664  0.1382
13148TIP3    H160935   1.500   4.349   0.221 -1.0387  0.1667 -1.3676
13148TIP3    H260936   1.577   4.471   0.264  0.5545 -1.5224  0.8247
13149TIP3   OH260937   4.967   2.403   2.989  0.1061 -0.1384 -0.1966
13149TIP3    H160938   4.928   2.364   3.067 -2.2522  0.2758 -1.0891
13149TIP3    H260939   5.020   2.475   3.022 -0.7434 -0.0552  1.0411
13150TIP3   OH260940   4.643   5.550   2.617 -0.0565 -0.3114 -0.1968
13150TIP3    H160941   4.562   5.587   2.581  0.4285  0.0485 -0.9569
13150TIP3    H260942   4.614   5.496   2.690 -0.8643  0.9288  0.4487
13151TIP3   OH260943   5.298   2.861  10.623 -0.6163  0.3474  0.3975
13151TIP3    H160944   5.349   2.942  10.622  1.1991 -0.7032  1.7371
13151TIP3    H260945   5.347   2.803  10.681 -1.8690 -1.7175 -0.5121
13152TIP3   OH260946   0.159   2.793   2.192 -0.1069  0.4783 -0.4519
13152TIP3    H160947   0.236   2.838   2.158  0.9415 -0.3748  0.7126
13152TIP3    H260948   0.110   2.766   2.114  1.3182  0.1044 -1.2438
13153TIP3   OH260949   4.240   2.081   5.633  0.1770  0.4931 -0.0129
13153TIP3    H160950   4.250   2.050   5.723  1.2055 -2.6084 -1.0425
13153TIP3    H260951   4.152   2.119   5.630 -1.0951 -2.0426  1.6509
13154TIP3   OH260952   2.996   4.733  12.582 -0.2112  0.3462  0.2473
13154TIP3    H160953   3.051   4.661  12.612 -1.0659 -0.5650 -0.2791
13154TIP3    H260954   3.009   4.735  12.487 -0.4064  0.6935  0.2269
13155TIP3   OH260955   2.650   3.752   2.352  0.1277  0.2464  0.2071
13155TIP3    H160956   2.670   3.660   2.368  0.3489  0.1313 -0.6475
13155TIP3    H260957   2.736   3.792   2.335  0.0316  0.6097  0.5673
13156TIP3   OH260958   6.324   6.233  15.552  0.3129 -0.0302 -0.0782
13156TIP3    H160959   6.234   6.209  15.533  0.6782 -2.6518  1.0010
13156TIP3    H260960   6.318   6.317  15.597 -1.6279 -0.2843  0.2032
13157TIP3   OH260961   4.862   3.163  11.115 -0.5261 -0.2874 -0.1516
13157TIP3    H160962   4.790   3.119  11.070  0.1540 -1.4572 -0.1176
13157TIP3    H260963   4.939   3.141  11.064  0.0462 -0.3890  0.7408
13158TIP3   OH260964   6.745   4.997  16.124 -0.4840 -0.5489  0.2028
13158TIP3    H160965   6.750   5.040  16.039 -0.3947 -1.6736 -0.3768
13158TIP3    H260966   6.666   4.944  16.119 -0.8465 -0.1080  1.0787
13159TIP3   OH260967   5.120   2.171  14.747 -0.6604  0.3817 -0.1008
13159TIP3    H160968   5.123   2.265  14.766 -1.0127  0.5200 -0.7009
13159TIP3    H260969   5.105   2.166  14.652 -1.9799 -0.2697  0.1139
13160TIP3   OH260970   3.135   5.289  13.378  0.3863  0.2269  0.0329
13160TIP3    H160971   3.190   5.275  13.301 -1.7051 -3.0693 -1.0577
13160TIP3    H260972   3.196   5.281  13.452  1.7093 -1.2301 -1.1521
13161TIP3   OH260973   5.938   1.001   5.491  0.4070  0.1962  0.1993
13161TIP3    H160974   5.873   1.001   5.420  0.6367 -1.1101 -0.0431
13161TIP3    H260975   5.890   0.971   5.568  0.7587 -1.0816 -0.0510
13162TIP3   OH260976   5.244   0.850  16.845  0.5174 -0.3496 -0.0778
13162TIP3    H160977   5.239   0.775  16.785 -0.6059 -0.4179  0.0790
13162TIP3    H260978   5.177   0.910  16.814 -1.2689 -1.1119  2.0373
13163TIP3   OH260979   2.271   3.543  15.085  0.1484 -0.1217 -0.4411
13163TIP3    H160980   2.268   3.527  14.991 -1.9542 -2.0848 -0.1383
13163TIP3    H260981   2.201   3.487  15.121  2.4806 -1.3971  2.5623
13164TIP3   OH260982   2.430   4.405   0.266 -0.1282  0.4915 -0.8688
13164TIP3    H160983   2.434   4.500   0.259 -0.6638  0.4469 -2.2019
13164TIP3    H260984   2.499   4.381   0.328 -1.3596  1.8892  1.1371
13165TIP3   OH260985   2.321   2.566  12.635  0.0172 -0.4218  0.3185
13165TIP3    H160986   2.347   2.536  12.548 -1.0251  1.1252 -0.5734
13165TIP3    H260987   2.241   2.616  12.620 -1.1158 -1.4839  2.3993
13166TIP3   OH260988   3.683   2.531   5.389 -0.5719 -0.2715 -0.0955
13166TIP3    H160989   3.682   2.555   5.296 -1.8106 -0.9186 -0.2591
13166TIP3    H260990   3.776   2.533   5.413 -0.0513 -1.8478 -1.8135
13167TIP3   OH260991   3.436   5.169  15.295  0.6766  0.7927  0.8973
13167TIP3    H160992   3.524   5.199  15.271 -0.2983  1.7003 -1.8722
13167TIP3    H260993   3.432   5.079  15.262  0.5133  0.8050  0.8835
13168TIP3   OH260994   2.828   0.634  12.598 -0.0660  0.4994 -0.4509
13168TIP3    H160995   2.741   0.597  12.612  0.3174  0.1236  1.1167
13168TIP3    H260996   2.836   0.641  12.503 -1.0970 -1.2211 -0.7124
13169TIP3   OH260997   0.168   5.971  10.437  0.2938  0.3460 -0.1925
13169TIP3    H160998   0.252   5.961  10.481 -0.3351  0.6198  1.1205
13169TIP3    H260999   0.130   5.883  10.437 -0.2083  0.5488  0.8927
13170TIP3   OH261000   6.033   1.938  16.375 -0.1332 -0.0192 -0.1850
13170TIP3    H161001   6.121   1.933  16.411 -0.2049  0.0230 -0.0045
13170TIP3    H261002   6.011   2.031  16.376  0.3882  0.1395 -1.6074
13171TIP3   OH261003   3.007   4.781   1.523  0.2077  0.1041  0.6634
13171TIP3    H161004   2.964   4.783   1.438  0.0227 -3.8304  0.4998
13171TIP3    H261005   2.935   4.767   1.585  0.7425 -2.4135  0.8110
13172TIP3   OH261006   2.470   3.155  14.589  0.0382  0.1847  0.2324
13172TIP3    H161007   2.413   3.105  14.531 -1.0421  1.2826  0.3037
13172TIP3    H261008   2.432   3.143  14.676  0.4584  0.1926  0.4206
13173TIP3   OH261009   6.036   0.002  10.281 -0.0508  0.1877 -0.0759
13173TIP3    H161010   5.993  -0.081  10.258 -1.0223 -0.2048  2.7159
13173TIP3    H261011   6.123  -0.004  10.242  0.3587 -2.7689  1.0385
13174TIP3   OH261012   4.874   1.315  11.561  0.0943 -0.2306 -0.5734
13174TIP3    H161013   4.902   1.262  11.635  0.4779 -0.2336 -0.7186
13174TIP3    H261014   4.792   1.275  11.533 -1.6641  1.5637  1.7015
13175TIP3   OH261015   3.354   6.255   0.796  0.3480  0.2200  0.4516
13175TIP3    H161016   3.284   6.201   0.834 -1.8973  2.0486 -0.8034
13175TIP3    H261017   3.361   6.329   0.856 -0.5839  1.2547 -0.6587
13176TIP3   OH261018   3.690   5.939  13.456 -0.2763  0.1296 -0.0190
13176TIP3    H161019   3.732   5.903  13.534 -0.7900 -2.0641 -0.6671
13176TIP3    H261020   3.608   5.977  13.488  0.5077  1.1761  0.7693
13177TIP3   OH261021   2.441   1.236   1.341  0.3370 -0.3868  0.0557
13177TIP3    H161022   2.371   1.299   1.349  0.5984 -0.3209  2.6567
13177TIP3    H261023   2.397   1.153   1.324 -0.1591  0.0618 -0.9305
13178TIP3   OH261024   0.002   3.307   0.974  0.2101 -0.7961  0.3533
13178TIP3    H161025  -0.010   3.241   1.042 -1.3470  0.0037  0.9011
13178TIP3    H261026  -0.078   3.359   0.977  1.2252  0.8673 -0.3446
13179TIP3   OH261027   6.771   4.660  16.243 -0.2726  0.0407  0.1132
13179TIP3    H161028   6.814   4.685  16.161 -0.4426 -0.2335 -0.0581
13179TIP3    H261029   6.739   4.571  16.228 -0.4534  0.0529  0.4165
13180TIP3   OH261030   1.439   5.225  13.573  0.0749 -0.0292 -0.6284
13180TIP3    H161031   1.418   5.317  13.594  1.0443  0.2310 -0.7300
13180TIP3    H261032   1.533   5.227  13.553  1.1054 -1.6613  3.1739
13181TIP3   OH261033   5.649   4.450   4.136 -0.4538 -0.6738  0.2152
13181TIP3    H161034   5.644   4.365   4.092 -0.9849 -1.1324  1.1253
13181TIP3    H261035   5.560   4.485   4.130 -1.1428 -1.7442  2.7921
13182TIP3   OH261036   5.564   5.073   3.732 -0.2908 -0.2836 -0.3149
13182TIP3    H161037   5.617   4.995   3.751 -0.6100 -0.6346 -0.8308
13182TIP3    H261038   5.499   5.075   3.802  0.6273  0.3725  0.5484
13183TIP3   OH261039   5.973   4.344   4.709 -0.7996  0.9136  0.1813
13183TIP3    H161040   6.049   4.304   4.750 -1.6517 -0.2185  0.7342
13183TIP3    H261041   5.994   4.437   4.704  1.6490  0.3416 -2.0034
13184TIP3   OH261042   2.602   2.642  11.555 -0.2527 -0.0026  0.3068
13184TIP3    H161043   2.582   2.647  11.648 -1.0122  0.3995  0.1362
13184TIP3    H261044   2.565   2.723  11.518 -1.8103 -1.0845 -0.6530
13185TIP3   OH261045   6.725   3.232   6.259  0.4348 -0.6396 -0.0971
13185TIP3    H161046   6.655   3.194   6.312  1.2049 -2.9087 -0.5902
13185TIP3    H261047   6.767   3.296   6.317 -0.1566 -1.4251  1.2465
13186TIP3   OH261048   5.539   6.837   1.481 -0.8812 -0.3647 -0.2047
13186TIP3    H161049   5.478   6.764   1.495  1.8312 -2.7247  0.2577
13186TIP3    H261050   5.592   6.840   1.560 -0.4203  1.7010 -0.5252
13187TIP3   OH261051   2.885   1.304   3.428  0.3166 -0.0987 -0.4926
13187TIP3    H161052   2.857   1.354   3.352  1.4850 -0.7786 -1.4115
13187TIP3    H261053   2.834   1.223   3.424  0.4385 -0.1702 -0.6016
13188TIP3   OH261054   3.137   5.205  16.828  0.0520  0.1500  0.4297
13188TIP3    H161055   3.185   5.129  16.794  0.2258  0.1351  0.6972
13188TIP3    H261056   3.051   5.199  16.788 -1.0838 -2.0154  2.8568
13189TIP3   OH261057   1.017   3.336  14.747  0.1292  0.1691 -0.4580
13189TIP3    H161058   1.094   3.378  14.706 -0.4564 -0.1613 -1.9744
13189TIP3    H261059   0.947   3.400  14.736 -0.0495  0.0518  0.0068
13190TIP3   OH261060   6.699   0.517   1.561 -0.4326  0.0712  0.3297
13190TIP3    H161061   6.793   0.525   1.579 -0.7495  1.0642  1.6723
13190TIP3    H261062   6.687   0.565   1.479  0.5378 -1.8724 -1.0233
13191TIP3   OH261063   1.295   2.851  16.186 -0.2108 -0.0415  0.3923
13191TIP3    H161064   1.219   2.889  16.231  0.7913  3.1759 -0.3740
13191TIP3    H261065   1.259   2.812  16.106 -1.6118 -3.2470  2.3744
13192TIP3   OH261066   3.228   2.761  12.655  0.0292 -0.3987 -0.1856
13192TIP3    H161067   3.160   2.828  12.665  0.6063  0.3818 -1.3701
13192TIP3    H261068   3.192   2.685  12.701 -1.3494  0.2080 -0.1973
13193TIP3   OH261069   2.387   3.037  16.164 -0.3627 -0.0307  0.1889
13193TIP3    H161070   2.451   3.108  16.159  0.1010 -0.5148 -1.2403
13193TIP3    H261071   2.412   2.977  16.093 -2.1059 -0.4816 -0.0839
13194TIP3   OH261072   6.815   1.890  12.252  0.0095 -0.1935  0.0890
13194TIP3    H161073   6.867   1.944  12.312  0.6850  0.1402 -0.7753
13194TIP3    H261074   6.866   1.888  12.172 -0.9828 -0.4623 -0.5521
13195TIP3   OH261075   4.131   0.727  11.219  0.1522 -0.3064 -0.2372
13195TIP3    H161076   4.102   0.790  11.285 -1.1152 -0.9266 -0.1652
13195TIP3    H261077   4.204   0.769  11.175  1.5955 -0.2067  2.1154
13196TIP3   OH261078   4.236   4.826  12.212 -0.0917  0.6768 -0.0460
13196TIP3    H161079   4.157   4.844  12.263 -0.0587  1.1057 -0.1410
13196TIP3    H261080   4.228   4.734  12.186  0.7301 -0.1116  2.2330
13197TIP3   OH261081   0.066   4.332   1.137 -0.8129  0.0660 -0.4703
13197TIP3    H161082  -0.001   4.273   1.172 -1.3405  2.0033  2.0271
13197TIP3    H261083   0.017   4.399   1.090 -0.7754  1.6796  1.6488
13198TIP3   OH261084   6.774   6.321  13.937  0.0828  0.5867  0.2592
13198TIP3    H161085   6.777   6.249  14.000 -0.8705 -1.0140 -1.4189
13198TIP3    H261086   6.851   6.307  13.882 -0.4022  0.5148 -0.4114
13199TIP3   OH261087   5.588   1.031  13.231 -0.1877 -0.3365  0.1500
13199TIP3    H161088   5.602   0.981  13.311 -0.4774 -1.8628 -0.7152
13199TIP3    H261089   5.575   0.965  13.163 -1.0599  0.9201 -0.9677
13200TIP3   OH261090   5.635   3.601   4.894  0.1795 -0.0509 -0.1852
13200TIP3    H161091   5.541   3.600   4.874 -0.0352  1.2588  0.6695
13200TIP3    H261092   5.641   3.625   4.986  1.3471 -0.7460 -0.0527
13201TIP3   OH261093   1.954   0.873  13.848  0.0742  0.1235  0.1510
13201TIP3    H161094   2.044   0.891  13.822 -0.3367  0.5759 -1.0073
13201TIP3    H261095   1.946   0.912  13.935  1.2136 -0.6189  0.6077
13202TIP3   OH261096   4.890   0.553   4.090  0.4688  0.2832 -0.2522
13202TIP3    H161097   4.796   0.551   4.107  0.4180  3.3175  0.4169
13202TIP3    H261098   4.907   0.643   4.061  3.0404 -0.4472 -1.2456
13203TIP3   OH261099   3.369   6.336   4.186 -0.1423  0.6850  0.2155
13203TIP3    H161100   3.337   6.407   4.131  0.1041  1.4078  0.9773
13203TIP3    H261101   3.454   6.367   4.219  1.2697 -1.0602 -1.5238
13204TIP3   OH261102   5.026   6.046   1.331  0.0063  0.0770 -0.1795
13204TIP3    H161103   5.027   5.954   1.356 -1.8423  0.0725  0.0763
13204TIP3    H261104   5.061   6.047   1.242 -0.9565 -1.0568 -0.6053
13205TIP3   OH261105   6.517   4.903  12.692  1.0065 -0.3369  0.2028
13205TIP3    H161106   6.587   4.910  12.628  0.0717  3.1948 -0.6578
13205TIP3    H261107   6.547   4.953  12.767 -0.4722  1.2604 -0.1874
13206TIP3   OH261108   3.361   4.402   0.458  0.2380  0.7290  0.6395
13206TIP3    H161109   3.409   4.340   0.404  0.0047 -0.3209  1.5976
13206TIP3    H261110   3.426   4.467   0.484  0.5902  0.6305  0.0131
13207TIP3   OH261111   0.744   0.259  14.354  0.2890  0.3089 -0.8915
13207TIP3    H161112   0.744   0.209  14.435 -0.4358 -2.1368 -2.2983
13207TIP3    H261113   0.837   0.272  14.333  0.4762  0.5506  0.0749
13208TIP3   OH261114   3.820   0.480  14.128  0.0480 -0.2040  0.0444
13208TIP3    H161115   3.764   0.402  14.133 -0.3528 -0.1877 -2.8260
13208TIP3    H261116   3.759   0.554  14.131  0.0541 -0.1368 -1.0562
13209TIP3   OH261117   6.410   0.583  14.303  0.0236 -0.1697 -0.0170
13209TIP3    H161118   6.375   0.526  14.372  2.6900 -3.0025 -0.7458
13209TIP3    H261119   6.478   0.634  14.346 -0.0340 -0.0690 -0.0452
13210TIP3   OH261120   1.980   1.963  10.621 -0.4639 -0.0549 -0.0045
13210TIP3    H161121   1.984   2.059  10.616  0.1396 -0.0999 -0.5279
13210TIP3    H261122   1.938   1.936  10.540  1.5853 -0.3444 -1.0324
13211TIP3   OH261123   5.299   3.278   4.845 -0.2279 -0.2930 -0.2367
13211TIP3    H161124   5.255   3.333   4.909 -0.8129 -0.9331 -0.0717
13211TIP3    H261125   5.385   3.319   4.832 -0.1487 -0.0892  0.8651
13212TIP3   OH261126   2.400   6.294  11.532 -0.0290 -0.3961  0.0820
13212TIP3    H161127   2.419   6.385  11.507  2.3660 -0.6030  0.8570
13212TIP3    H261128   2.337   6.302  11.604  0.4394  0.6952  0.4025
13213TIP3   OH261129   1.748   5.833   5.492  0.6107 -0.1704 -0.2758
13213TIP3    H161130   1.820   5.834   5.554  0.8157  1.2145 -0.5147
13213TIP3    H261131   1.749   5.919   5.451 -0.7500 -0.3645 -0.7894
13214TIP3   OH261132   4.928   0.651  15.086 -0.3452 -0.0484 -0.2304
13214TIP3    H161133   4.859   0.615  15.028  0.5815 -0.8726 -0.8560
13214TIP3    H261134   5.009   0.612  15.053  0.5871  1.7796 -0.2129
13215TIP3   OH261135   3.047   4.254  11.041  0.0844 -0.1385  0.7908
13215TIP3    H161136   3.123   4.269  10.985 -0.2765  0.7995  0.5342
13215TIP3    H261137   3.018   4.342  11.066 -0.1898 -0.5141  1.8742
13216TIP3   OH261138   5.030   0.981  14.791  0.6418 -0.4904  0.1043
13216TIP3    H161139   5.081   0.926  14.850  1.0782  1.7499  1.9614
13216TIP3    H261140   4.993   1.050  14.847 -0.3118  0.8185 -1.9822
13217TIP3   OH261141   3.094   4.020  15.773 -0.2816 -0.3895 -0.4629
13217TIP3    H161142   3.038   3.953  15.813  0.4822 -1.2900 -0.8742
13217TIP3    H261143   3.183   3.988  15.784  0.1456  0.7851 -0.2760
13218TIP3   OH261144   6.029   3.389   3.751 -0.4628 -0.0160 -0.0436
13218TIP3    H161145   6.124   3.381   3.743 -0.7386 -2.5517 -2.3306
13218TIP3    H261146   6.010   3.478   3.722  1.1645  0.3708 -0.0374
13219TIP3   OH261147   6.073   1.850  11.860  0.3239 -0.2439 -0.4888
13219TIP3    H161148   6.100   1.759  11.870 -1.5176 -0.6959  0.9780
13219TIP3    H261149   6.153   1.897  11.839  1.1783 -2.3030 -2.1499
13220TIP3   OH261150   3.883   1.147  12.641 -0.1836  0.3084 -0.2696
13220TIP3    H161151   3.850   1.235  12.654  0.7970  0.7586 -0.6987
13220TIP3    H261152   3.941   1.154  12.565  2.6206  0.0900  1.6707
13221TIP3   OH261153   1.063   1.322   0.322  0.1035  0.2671 -0.8533
13221TIP3    H161154   1.043   1.256   0.255  0.6843  2.2256 -3.0672
13221TIP3    H261155   0.984   1.375   0.328 -0.0385 -0.0361  0.2755
13222TIP3   OH261156   3.142   4.724  12.971 -0.2654 -0.5190  0.4108
13222TIP3    H161157   3.097   4.768  13.043 -1.1659 -0.5423 -0.1262
13222TIP3    H261158   3.072   4.696  12.912  0.5255  1.0191 -1.3556
13223TIP3   OH261159   4.168   3.908   6.290 -0.6219  0.2917 -0.1128
13223TIP3    H161160   4.107   3.967   6.334  1.9597  2.6647  0.5185
13223TIP3    H261161   4.231   3.965   6.246  1.6434 -1.9694 -0.0500
13224TIP3   OH261162   0.505   0.775  11.891  0.7729 -0.3976  0.4864
13224TIP3    H161163   0.588   0.763  11.937  0.5235  0.0158  1.0565
13224TIP3    H261164   0.468   0.855  11.929  1.1731  0.7218 -1.3438
13225TIP3   OH261165   2.423   2.769   3.892 -0.5304  0.3167 -0.6135
13225TIP3    H161166   2.500   2.734   3.936 -0.3017  0.2119 -1.0934
13225TIP3    H261167   2.402   2.849   3.940 -1.2485 -0.6258  0.6965
13226TIP3   OH261168   5.941   6.300  15.756  0.0043 -0.4411  0.1859
13226TIP3    H161169   5.953   6.244  15.833 -0.3670  0.3426  0.8203
13226TIP3    H261170   5.850   6.327  15.759 -0.1926 -0.8904 -0.8847
13227TIP3   OH261171   5.671   0.755  15.206 -0.1172 -0.3651  0.2057
13227TIP3    H161172   5.594   0.798  15.244 -1.0137 -0.6964 -1.1760
13227TIP3    H261173   5.642   0.723  15.121  1.3787 -1.0778 -0.0796
13228TIP3   OH261174   2.718   4.031   1.797  0.2537  0.4003  0.1264
13228TIP3    H161175   2.641   4.078   1.765 -1.4635 -0.9640  1.9680
13228TIP3    H261176   2.738   4.072   1.881 -0.8346 -1.5887  1.4219
13229TIP3   OH261177   6.337   0.402   0.489  0.0600  0.2140  0.3363
13229TIP3    H161178   6.362   0.345   0.562  2.6683 -0.1649 -0.7185
13229TIP3    H261179   6.330   0.489   0.528 -1.5619 -0.3855  1.5230
13230TIP3   OH261180   1.798   4.209   5.227  0.3313  0.5076 -0.0839
13230TIP3    H161181   1.829   4.121   5.249  0.4433  1.5053  4.7700
13230TIP3    H261182   1.878   4.262   5.222  0.0875  0.8913  0.0513
13231TIP3   OH261183   5.136   5.165  10.296 -1.0548 -0.5453  0.4618
13231TIP3    H161184   5.046   5.191  10.311 -0.9876 -0.0986  0.1096
13231TIP3    H261185   5.129   5.076  10.259 -1.3446 -0.5286  0.4752
13232TIP3   OH261186   6.226   4.744   2.950 -0.4217 -0.3209 -0.3268
13232TIP3    H161187   6.320   4.729   2.953 -0.2398  0.8563  0.8668
13232TIP3    H261188   6.216   4.823   2.897 -0.3980  1.4714  2.1605
13233TIP3   OH261189   2.633   1.844  12.988 -0.2935  0.1029 -0.4372
13233TIP3    H161190   2.696   1.797  12.933  0.6322 -0.8075  1.3440
13233TIP3    H261191   2.567   1.877  12.925  0.8518 -0.6402 -2.1072
13234TIP3   OH261192   1.844   4.727   2.850 -0.8527 -0.0423  0.2035
13234TIP3    H161193   1.864   4.777   2.930  0.5713 -0.3320  0.0654
13234TIP3    H261194   1.890   4.644   2.863 -1.1121 -0.3230 -0.6600
13235TIP3   OH261195   3.971   1.614   0.632  0.1663  0.1266 -0.0191
13235TIP3    H161196   3.960   1.535   0.579  1.0238 -0.8659  1.2213
13235TIP3    H261197   4.066   1.620   0.645  0.0336  0.8348  0.6751
13236TIP3   OH261198   4.240   2.998   3.697 -0.0516 -0.4497  0.0134
13236TIP3    H161199   4.288   3.061   3.643 -0.0784 -1.0474 -0.7241
13236TIP3    H261200   4.305   2.964   3.759  0.1942 -0.4000 -0.2160
13237TIP3   OH261201   0.032   2.928   5.473  0.0811 -0.1073  0.5062
13237TIP3    H161202   0.039   2.982   5.395 -0.7427  0.9934  1.1571
13237TIP3    H261203   0.070   2.982   5.543 -1.3535 -0.0620  1.2931
13238TIP3   OH261204   5.707   6.541   1.558 -0.8110  0.5056 -0.3665
13238TIP3    H161205   5.645   6.599   1.603 -2.2090 -0.5669 -0.8385
13238TIP3    H261206   5.668   6.527   1.471 -0.3844 -0.9282 -0.3502
13239TIP3   OH261207   0.006   1.476  16.677 -0.2020  0.3905 -0.3321
13239TIP3    H161208   0.061   1.422  16.622  0.3190  1.1694 -0.6015
13239TIP3    H261209   0.045   1.564  16.671  1.0199  0.1946  2.6974
13240TIP3   OH261210   4.675   5.455  15.781  0.0841 -0.1252  0.4178
13240TIP3    H161211   4.676   5.465  15.685 -1.4334  2.1460  0.5613
13240TIP3    H261212   4.758   5.494  15.809 -0.1454  0.6307  0.0911
13241TIP3   OH261213   0.819   6.812  14.069  0.1103  0.2873  0.0404
13241TIP3    H161214   0.805   6.871  13.995  1.6664  1.1339  0.3644
13241TIP3    H261215   0.733   6.777  14.089 -0.9139  2.4922 -0.1618
13242TIP3   OH261216   2.942   6.568   2.948 -0.1923 -0.0692  0.5317
13242TIP3    H161217   2.981   6.498   2.896  0.3985  0.6572 -0.0304
13242TIP3    H261218   2.928   6.640   2.886 -0.2647  0.5125  1.2026
13243TIP3   OH261219   5.751   3.439   3.843 -0.2939 -0.4021  0.5142
13243TIP3    H161220   5.769   3.371   3.908 -0.6808  1.4230  2.6664
13243TIP3    H261221   5.822   3.430   3.779 -0.7945 -3.2966  0.2333
13244TIP3   OH261222   4.103   2.615   2.873  0.6641  0.4943 -0.0006
13244TIP3    H161223   4.045   2.570   2.934 -0.2449  1.2248 -0.2976
13244TIP3    H261224   4.085   2.575   2.788  0.3499  0.9404 -0.1487
13245TIP3   OH261225   5.017   6.470  16.928 -0.0451  0.1159  0.1979
13245TIP3    H161226   5.051   6.529  16.995  0.2902 -0.2063  0.3164
13245TIP3    H261227   5.082   6.400  16.923 -0.3901 -0.1942 -0.0088
13246TIP3   OH261228   0.789   3.206  16.442 -0.3716  0.1719  0.1167
13246TIP3    H161229   0.799   3.298  16.467 -1.2229  0.6514 -1.1270
13246TIP3    H261230   0.743   3.166  16.515 -2.4702  1.4259 -0.3923
13247TIP3   OH261231   6.084   4.074   4.262 -0.2212  0.4507 -0.0167
13247TIP3    H161232   6.178   4.072   4.283 -0.1812 -1.2720 -0.2066
13247TIP3    H261233   6.075   4.015   4.188 -1.4004  1.0068 -0.3333
13248TIP3   OH261234   6.316   0.115   1.413 -0.1190  0.2930  0.0495
13248TIP3    H161235   6.397   0.073   1.443 -0.5560 -0.0893  0.7424
13248TIP3    H261236   6.339   0.157   1.330  0.1498 -2.0020 -1.1112
13249TIP3   OH261237   6.119   0.737  12.632 -0.2640 -0.1062 -0.3659
13249TIP3    H161238   6.177   0.808  12.660 -0.9129  0.3396 -0.1375
13249TIP3    H261239   6.173   0.658  12.641 -0.3903  0.0084  2.0871
13250TIP3   OH261240   6.160   3.625  13.991 -0.2682  0.4804 -0.0893
13250TIP3    H161241   6.085   3.627  13.932  0.4190  0.4890 -0.9893
13250TIP3    H261242   6.173   3.532  14.009  0.0589  0.4105 -0.6683
13251TIP3   OH261243   4.674   4.225   1.678  0.3011 -0.0320 -0.0311
13251TIP3    H161244   4.640   4.188   1.760 -0.5654 -0.5212 -0.5956
13251TIP3    H261245   4.763   4.192   1.672 -0.7534 -3.0608 -1.0516
13252TIP3   OH261246   3.945   1.823   0.379 -0.2695 -0.1628  0.5971
13252TIP3    H161247   3.971   1.913   0.359 -0.5635  0.1923  1.7239
13252TIP3    H261248   4.024   1.771   0.363 -0.5637  0.0096 -1.7041
13253TIP3   OH261249   3.334   6.339  15.859 -0.1140 -0.1064  0.1906
13253TIP3    H161250   3.320   6.360  15.951  1.4520  2.2765 -0.0283
13253TIP3    H261251   3.341   6.244  15.857 -1.5335 -0.3220  2.2982
13254TIP3   OH261252   4.191   5.204  11.698 -0.4161 -0.0456 -0.4180
13254TIP3    H161253   4.097   5.198  11.717 -0.3386  0.4083  0.1597
13254TIP3    H261254   4.214   5.118  11.662 -0.6159 -0.9793  1.5280
13255TIP3   OH261255   4.486   0.684  12.229  0.4651  0.6221 -0.3901
13255TIP3    H161256   4.406   0.631  12.229  0.3181  0.8154 -1.3965
13255TIP3    H261257   4.486   0.728  12.314 -0.1914  0.1669 -0.1462
13256TIP3   OH261258   3.738   1.727   1.419 -0.1717 -0.0807  0.0794
13256TIP3    H161259   3.712   1.708   1.329 -0.8744  0.8014  0.0813
13256TIP3    H261260   3.659   1.712   1.471  0.0530  0.0194  0.4579
13257TIP3   OH261261   0.826   6.557  12.195  0.4735 -0.3948 -0.1179
13257TIP3    H161262   0.774   6.575  12.273  0.3015 -0.0836 -0.3025
13257TIP3    H261263   0.891   6.627  12.193  0.8018 -0.6942  0.0270
13258TIP3   OH261264   2.392   1.260  11.330 -0.8303 -0.0061  0.0262
13258TIP3    H161265   2.488   1.265  11.321 -0.7410  0.0583  0.9699
13258TIP3    H261266   2.368   1.183  11.277 -0.2779  0.0692 -0.3457
13259TIP3   OH261267   6.759   3.547   2.033 -0.4000  0.5364 -0.0648
13259TIP3    H161268   6.800   3.633   2.021  2.1231 -0.4615  0.7840
13259TIP3    H261269   6.828   3.484   2.011 -2.0752 -1.2993 -0.3365
13260TIP3   OH261270   4.817   6.424  12.760 -0.7315 -0.3715  0.0438
13260TIP3    H161271   4.788   6.454  12.846 -0.2092 -0.8369  0.3917
13260TIP3    H261272   4.912   6.426  12.765 -0.6975  0.0371 -0.6838
13261TIP3   OH261273   6.169   3.172   4.502 -0.2055 -0.0860 -0.5360
13261TIP3    H161274   6.259   3.143   4.519  0.0329  0.2154 -1.2336
13261TIP3    H261275   6.133   3.190   4.588  0.2062 -0.7827 -0.2068
13262TIP3   OH261276   0.121   0.172  13.931 -0.0364 -0.2356 -0.2444
13262TIP3    H161277   0.137   0.213  13.846 -0.7211 -1.4272 -0.9712
13262TIP3    H261278   0.201   0.122  13.949  0.3014  0.3986  0.0578
13263TIP3   OH261279   0.638   6.030  13.960 -1.0809 -0.1155 -0.1699
13263TIP3    H161280   0.599   6.014  13.874 -1.3752  3.8083 -0.9519
13263TIP3    H261281   0.565   6.022  14.021 -2.3404  2.7589 -1.1052
13264TIP3   OH261282   6.797   6.439  14.582  0.0048  0.0705 -0.1786
13264TIP3    H161283   6.887   6.438  14.550  0.5163  0.4749  1.1820
13264TIP3    H261284   6.803   6.401  14.670 -0.7834  2.0675  0.7819
13265TIP3   OH261285   2.886   4.491  10.318  1.3310  0.0024 -0.3730
13265TIP3    H161286   2.860   4.430  10.249 -0.9713  0.6087 -0.1417
13265TIP3    H261287   2.904   4.573  10.272 -1.5724  0.8134 -0.2573
13266TIP3   OH261288   2.732   2.838  16.181  0.6220  0.2874 -0.2772
13266TIP3    H161289   2.709   2.904  16.246  0.9715 -0.4308  0.5978
13266TIP3    H261290   2.700   2.873  16.098 -0.8253  0.7159  0.4400
13267TIP3   OH261291   6.090   2.124  11.034 -0.2758  0.8532 -0.0560
13267TIP3    H161292   6.078   2.116  10.940 -0.1861 -0.7736  0.0339
13267TIP3    H261293   6.180   2.094  11.050 -1.3257 -2.3327  0.8234
13268TIP3   OH261294   6.550   1.762  14.625 -0.0950  0.0570 -0.5005
13268TIP3    H161295   6.479   1.770  14.690 -0.5508  0.1902 -1.0107
13268TIP3    H261296   6.505   1.750  14.542  0.4961 -0.4330 -0.7563
13269TIP3   OH261297   3.855   3.277  11.047 -0.4902 -0.2829  0.2597
13269TIP3    H161298   3.777   3.330  11.038  0.6868  1.9080  1.9961
13269TIP3    H261299   3.918   3.315  10.986 -0.3004 -1.1571 -0.1191
13270TIP3   OH261300   5.545   3.176   4.621  0.4100  0.6010  0.0564
13270TIP3    H161301   5.586   3.239   4.680  1.5939 -0.0100 -0.0739
13270TIP3    H261302   5.494   3.229   4.561  0.0328  1.3062  0.9733
13271TIP3   OH261303   1.257   3.171   3.705 -0.1510 -0.7362  0.3316
13271TIP3    H161304   1.337   3.198   3.661 -0.4780  0.1477  0.2408
13271TIP3    H261305   1.237   3.244   3.765 -1.0068 -0.8226  0.1698
13272TIP3   OH261306   5.383   4.507   4.723  0.4462  0.0887  0.2971
13272TIP3    H161307   5.366   4.548   4.638  0.1955 -0.5755  0.0198
13272TIP3    H261308   5.350   4.570   4.787  1.0079  0.7714 -0.0830
13273TIP3   OH261309   3.565   5.496   0.329  0.5844 -0.0413 -0.3095
13273TIP3    H161310   3.610   5.511   0.246  2.7238  1.0905  0.9646
13273TIP3    H261311   3.562   5.582   0.371 -0.6038 -0.5569  0.7368
13274TIP3   OH261312   4.327   4.805  16.613 -0.1403 -0.7289 -0.0695
13274TIP3    H161313   4.342   4.869  16.683 -2.3635 -0.3506  0.1384
13274TIP3    H261314   4.354   4.851  16.533 -0.8760  0.1604  0.1760
13275TIP3   OH261315   0.993   0.852   3.282 -0.2927  0.0750  0.1934
13275TIP3    H161316   0.947   0.833   3.364 -1.1505 -0.1364 -0.3271
13275TIP3    H261317   0.972   0.778   3.225 -0.4838  0.6838 -0.5356
13276TIP3   OH261318   3.193   2.890   1.623 -0.2286 -0.1932 -0.5781
13276TIP3    H161319   3.106   2.849   1.628 -1.2722  1.6127 -2.3431
13276TIP3    H261320   3.226   2.867   1.536  0.3815  0.3884 -0.5105
13277TIP3   OH261321   1.622   0.137  16.866 -0.2349  0.2251 -0.1828
13277TIP3    H161322   1.530   0.122  16.887 -0.0859 -0.1616  0.2106
13277TIP3    H261323   1.664   0.150  16.950  0.2230 -0.5008 -0.2874
13278TIP3   OH261324   6.295   5.848   1.935  0.1412  0.2955 -0.2544
13278TIP3    H161325   6.362   5.908   1.902 -0.8560  1.2560 -0.6256
13278TIP3    H261326   6.303   5.770   1.880  2.8723 -0.8872  1.6069
13279TIP3   OH261327   6.759   4.404   4.002  0.5464  0.0170  0.0173
13279TIP3    H161328   6.698   4.459   3.953  2.2281  0.7720 -1.3306
13279TIP3    H261329   6.705   4.363   4.070 -1.2487  1.3773 -0.5082
13280TIP3   OH261330   6.696   6.193  14.296  0.3627  0.0885 -0.4873
13280TIP3    H161331   6.624   6.257  14.299  0.4489  0.2502 -1.6247
13280TIP3    H261332   6.775   6.247  14.290  0.6066 -0.0896  0.7476
13281TIP3   OH261333   1.827   3.714   9.865 -0.1687 -0.3158 -0.2329
13281TIP3    H161334   1.801   3.667   9.944 -1.9679 -0.3658 -0.7900
13281TIP3    H261335   1.898   3.772   9.893 -1.3565  0.3435  1.6446
13282TIP3   OH261336   0.150   5.662   2.688  0.1521  0.2308  0.1976
13282TIP3    H161337   0.148   5.757   2.698 -1.4391  0.3663 -0.9224
13282TIP3    H261338   0.202   5.647   2.609  0.3473  0.1739  0.3365
13283TIP3   OH261339   5.591   2.218   2.296  0.1097 -0.0717  0.3959
13283TIP3    H161340   5.599   2.165   2.376 -1.2062  0.7870  1.1295
13283TIP3    H261341   5.530   2.168   2.241 -0.9836  0.5477  1.0098
13284TIP3   OH261342   5.953   0.473   2.947 -0.2080 -0.1997 -0.6465
13284TIP3    H161343   5.858   0.458   2.953 -0.4875  1.4618 -0.5344
13284TIP3    H261344   5.989   0.430   3.025 -1.0492  0.4629  0.1193
13285TIP3   OH261345   0.688   0.598  12.420 -0.0401  0.5203 -0.0505
13285TIP3    H161346   0.630   0.569  12.349 -0.4759  0.3642  0.3665
13285TIP3    H261347   0.776   0.579  12.388 -0.3225 -1.8185  0.4339
13286TIP3   OH261348   4.874   0.120   1.150  0.1853 -0.3452 -0.4214
13286TIP3    H161349   4.901   0.072   1.228 -0.7540 -1.8688 -0.9960
13286TIP3    H261350   4.886   0.212   1.173  3.5739 -0.8003  0.1848
13287TIP3   OH261351   1.239   1.093  11.296 -0.0285 -0.4185 -0.8287
13287TIP3    H161352   1.284   1.167  11.255  0.8394 -1.6996 -2.2544
13287TIP3    H261353   1.291   1.016  11.273 -2.1432 -1.7902 -1.3686
13288TIP3   OH261354   5.825   4.494  12.142  0.7144  0.5183 -0.0070
13288TIP3    H161355   5.797   4.505  12.052 -3.7359  1.5746  1.2374
13288TIP3    H261356   5.878   4.571  12.161  0.0237  1.3324 -1.2189
13289TIP3   OH261357   3.230   6.827   4.220 -0.4041  0.7144  0.2494
13289TIP3    H161358   3.202   6.840   4.130  0.5580  0.9611 -0.0187
13289TIP3    H261359   3.149   6.837   4.271 -1.0825 -0.1191 -0.6252
13290TIP3   OH261360   3.811   1.600  14.258  0.3575  0.6049 -0.0311
13290TIP3    H161361   3.833   1.669  14.321 -1.0320 -0.2386  1.4355
13290TIP3    H261362   3.847   1.520  14.297  0.8721  0.2808 -1.1198
13291TIP3   OH261363   4.820   6.018  12.071  0.3298  0.5144  0.3256
13291TIP3    H161364   4.864   6.078  12.131  0.2758  0.6420  0.2385
13291TIP3    H261365   4.879   5.943  12.064  0.9090  1.0286 -0.4091
13292TIP3   OH261366   2.660   6.158  12.133  0.2195  0.3025 -0.0397
13292TIP3    H161367   2.597   6.204  12.078  0.1494  0.9077  0.5289
13292TIP3    H261368   2.745   6.177  12.094  0.0968 -0.0595 -0.4878
13293TIP3   OH261369   6.727   5.070   2.581  0.1758  0.0244 -0.5192
13293TIP3    H161370   6.707   4.981   2.608 -0.6012 -0.1827 -1.7038
13293TIP3    H261371   6.707   5.124   2.658  0.7330 -0.8048  0.2312
13294TIP3   OH261372   0.473   5.766  16.763  0.0462  0.4497 -0.4188
13294TIP3    H161373   0.427   5.794  16.842  2.3867  1.5902  0.6457
13294TIP3    H261374   0.549   5.825  16.757  1.5479 -1.4947 -1.8707
13295TIP3   OH261375   5.470   4.840   3.296 -0.0291  0.0232  0.4383
13295TIP3    H161376   5.558   4.804   3.288  0.8143  2.0619  0.1158
13295TIP3    H261377   5.480   4.920   3.348 -1.4859  0.9574 -0.6312
13296TIP3   OH261378   5.910   3.788  14.915  0.0917 -0.5609 -0.5840
13296TIP3    H161379   5.873   3.846  14.849 -1.7862  1.0711  1.7235
13296TIP3    H261380   6.003   3.813  14.919 -0.3161  1.1450 -0.8286
13297TIP3   OH261381   3.099   3.692  13.112 -0.1083 -0.4217 -0.0644
13297TIP3    H161382   3.177   3.640  13.090 -0.6838 -1.9676  1.2788
13297TIP3    H261383   3.133   3.780  13.127  1.4215 -1.0701  0.5519
13298TIP3   OH261384   4.183   4.706   1.375 -0.2270 -0.2433 -0.3675
13298TIP3    H161385   4.166   4.615   1.353 -0.5355 -0.2971  0.0803
13298TIP3    H261386   4.177   4.710   1.470 -2.0103  0.5656 -0.4620
13299TIP3   OH261387   3.068   4.109  14.108 -0.3480 -0.2980  0.4329
13299TIP3    H161388   2.982   4.151  14.103 -0.6532 -0.9697 -0.0710
13299TIP3    H261389   3.087   4.105  14.202 -0.1122  1.3403  0.4879
13300TIP3   OH261390   6.564   6.645   4.888 -0.0753  0.2214  0.6092
13300TIP3    H161391   6.506   6.596   4.947  0.0867 -0.6526  0.0674
13300TIP3    H261392   6.516   6.725   4.867 -1.5948 -0.9724 -0.6943
13301TIP3   OH261393   5.276   4.780  14.384  0.1206 -0.0131  0.1975
13301TIP3    H161394   5.184   4.779  14.410  0.2397 -0.3000  0.6119
13301TIP3    H261395   5.275   4.815  14.295 -0.3281  0.5963  0.4367
13302TIP3   OH261396   2.499   2.256   5.978  0.2379 -0.4785 -0.5166
13302TIP3    H161397   2.453   2.269   5.895  0.7479  0.1089 -0.7172
13302TIP3    H261398   2.490   2.339   6.024 -0.2818 -0.8944  0.1455
13303TIP3   OH261399   4.315   0.411   3.185 -0.2882  0.2057 -0.3842
13303TIP3    H161400   4.340   0.413   3.093 -0.7091 -0.6730 -0.5244
13303TIP3    H261401   4.270   0.327   3.197 -2.4378  1.3537  0.0528
13304TIP3   OH261402   0.459   1.005   3.773  0.6189 -0.2153  0.0229
13304TIP3    H161403   0.407   0.993   3.693  0.4650 -1.6943  0.3112
13304TIP3    H261404   0.393   1.015   3.842  0.7520  1.1099 -0.0220
13305TIP3   OH261405   5.096   1.825   5.362  0.2922 -0.6889 -0.8021
13305TIP3    H161406   5.097   1.828   5.267  3.1607 -1.7660 -0.8884
13305TIP3    H261407   5.086   1.733   5.384  1.3348 -0.6486 -0.1057
13306TIP3   OH261408   3.492   2.550  14.357 -0.1113  0.3135 -0.1990
13306TIP3    H161409   3.565   2.566  14.298 -0.4786  1.0355 -0.4693
13306TIP3    H261410   3.437   2.487  14.311  0.2864 -0.1583 -0.0351
13307TIP3   OH261411   0.592   1.214   4.015  0.5248  0.1293 -0.2599
13307TIP3    H161412   0.614   1.207   3.922  1.0931 -1.0263 -0.0532
13307TIP3    H261413   0.548   1.132   4.036 -0.9210  0.9819  0.1752
13308TIP3   OH261414   1.365   1.158  16.325 -0.9969 -0.4683 -1.2961
13308TIP3    H161415   1.401   1.153  16.237  1.6764  1.2652 -0.4484
13308TIP3    H261416   1.435   1.126  16.382 -1.9312  0.1653  0.3077
13309TIP3   OH261417   0.179   5.483   0.230  0.0434  0.1586  0.3657
13309TIP3    H161418   0.187   5.424   0.155 -0.0925  0.6927 -0.0788
13309TIP3    H261419   0.261   5.533   0.231 -0.3146  0.7582  0.0438
13310TIP3   OH261420   5.599   3.884  11.457  0.4560 -0.5298 -0.1863
13310TIP3    H161421   5.669   3.911  11.516 -0.0017  1.2519 -0.3921
13310TIP3    H261422   5.534   3.955  11.464 -0.6708 -1.4462 -1.0518
13311TIP3   OH261423   1.716   2.664  11.200 -0.3648  0.5054  0.7402
13311TIP3    H161424   1.676   2.731  11.256 -0.6180  0.1861  0.9441
13311TIP3    H261425   1.645   2.602  11.182 -0.9030  1.7175 -1.7128
13312TIP3   OH261426   6.607   2.045   0.825 -0.2449 -0.5873  0.0035
13312TIP3    H161427   6.588   2.129   0.865  0.6972  0.1486 -1.0390
13312TIP3    H261428   6.526   1.995   0.835 -0.5508  0.1363  1.3508
13313TIP3   OH261429   6.828   2.101  15.049 -0.0942 -0.1494  0.2715
13313TIP3    H161430   6.741   2.135  15.069 -0.3543 -1.1272  0.8615
13313TIP3    H261431   6.841   2.123  14.957 -0.1711  1.6723  0.6483
13314TIP3   OH261432   0.276   2.975  11.399 -0.0018 -0.2565 -0.2041
13314TIP3    H161433   0.317   2.961  11.485  1.4964 -0.0810 -0.8558
13314TIP3    H261434   0.300   3.065  11.376  1.4212 -0.9830 -1.7112
13315TIP3   OH261435   2.715   1.961   5.408  0.9005 -0.2301  0.6475
13315TIP3    H161436   2.693   1.974   5.500 -0.4454  0.2108  0.2873
13315TIP3    H261437   2.721   1.866   5.398 -1.4664 -0.4402  0.6871
13316TIP3   OH261438   0.346   1.775   5.294  0.4201  0.2477 -0.0231
13316TIP3    H161439   0.437   1.746   5.294  0.8586  1.5314 -0.0588
13316TIP3    H261440   0.303   1.721   5.360  1.6622  0.8816  1.3890
13317TIP3   OH261441   4.749   3.418  11.153 -0.1406  0.6425 -0.3120
13317TIP3    H161442   4.761   3.444  11.062 -0.5859  0.9725 -0.2821
13317TIP3    H261443   4.799   3.337  11.162 -0.4179  0.3931 -0.9540
13318TIP3   OH261444   5.543   0.840  13.040 -0.4319  0.3542  0.1112
13318TIP3    H161445   5.613   0.794  12.994 -0.0601  0.2050  0.8083
13318TIP3    H261446   5.489   0.878  12.971  0.1017  0.1169 -0.4405
13319TIP3   OH261447   0.320   4.306   4.912 -0.2200 -0.0059 -0.2514
13319TIP3    H161448   0.391   4.271   4.860 -0.7830  0.1144 -1.1263
13319TIP3    H261449   0.261   4.346   4.848 -1.3927 -0.6628  0.3770
13320TIP3   OH261450   0.676   2.738   2.293  0.0765 -0.3518 -0.2235
13320TIP3    H161451   0.700   2.811   2.236  0.5268 -0.2875  0.0441
13320TIP3    H261452   0.581   2.732   2.286  0.0909 -0.0905 -0.6721
13321TIP3   OH261453   5.335   4.944  12.350  0.1849 -0.3225  0.5196
13321TIP3    H161454   5.315   5.029  12.389  0.2350 -0.5616  1.0805
13321TIP3    H261455   5.342   4.962  12.256 -1.2620  0.0150  0.4530
13322TIP3   OH261456   6.776   5.117   4.136 -0.4880  0.0844  0.1148
13322TIP3    H161457   6.715   5.086   4.203 -0.9917  1.6263  0.4120
13322TIP3    H261458   6.832   5.179   4.183  0.6377 -0.5307 -0.3961
13323TIP3   OH261459   5.067   5.743  15.953 -0.1090 -0.4191  0.3057
13323TIP3    H161460   5.155   5.710  15.971 -0.3916 -0.6898  1.2818
13323TIP3    H261461   5.009   5.683  16.001 -0.7969 -0.0228 -0.0163
13324TIP3   OH261462   6.590   2.158  11.097  0.4618 -0.7536  0.0478
13324TIP3    H161463   6.511   2.172  11.046  0.6541 -1.1565 -0.3609
13324TIP3    H261464   6.585   2.067  11.125  0.2269 -0.4707  0.9808
13325TIP3   OH261465   3.629   0.450   0.912 -0.1056  0.0507 -0.1333
13325TIP3    H161466   3.691   0.518   0.886  2.3092 -1.0927  2.1352
13325TIP3    H261467   3.549   0.498   0.934 -0.3959  1.5184 -3.7165
13326TIP3   OH261468   0.659   2.913  16.773  0.3352  0.3980 -0.1886
13326TIP3    H161469   0.574   2.873  16.758  0.2032  1.3103 -2.2392
13326TIP3    H261470   0.717   2.872  16.709  0.9696  1.1110 -0.0930
13327TIP3   OH261471   5.786   0.153  10.760  0.3499  0.8811 -0.3138
13327TIP3    H161472   5.726   0.224  10.784  1.3476  1.2857  1.1830
13327TIP3    H261473   5.823   0.124  10.844  2.8949  1.2749 -1.2100
13328TIP3   OH261474   2.482   4.605   4.359  0.2155  0.1982  0.3307
13328TIP3    H161475   2.442   4.615   4.272  0.4183 -1.6351 -0.0138
13328TIP3    H261476   2.435   4.531   4.398  1.5728 -0.3799  0.9161
13329TIP3   OH261477   3.771   0.502   4.958 -0.5900 -0.3207 -0.6961
13329TIP3    H161478   3.782   0.577   4.899  0.5493 -0.4263 -0.6475
13329TIP3    H261479   3.837   0.514   5.025 -2.7468  0.5026  1.3970
13330TIP3   OH261480   2.539   6.763   3.281 -0.4931 -0.0397  0.1434
13330TIP3    H161481   2.583   6.678   3.278 -1.2919 -0.4587 -0.0651
13330TIP3    H261482   2.449   6.742   3.308 -0.7500  0.7174 -0.1081
13331TIP3   OH261483   0.016   1.598   0.267  0.1850  0.5289  0.0100
13331TIP3    H161484  -0.017   1.610   0.178 -1.7540 -0.7472  0.4974
13331TIP3    H261485  -0.050   1.545   0.310  1.1051  1.0805  2.2262
13332TIP3   OH261486   2.198   0.726  16.754 -0.0583  0.2842  0.1406
13332TIP3    H161487   2.231   0.754  16.840 -0.6122 -0.3039  0.5499
13332TIP3    H261488   2.161   0.806  16.716 -0.0960  0.4815  0.5811
13333TIP3   OH261489   2.762   2.217  12.058 -0.0035  0.2181  0.4448
13333TIP3    H161490   2.737   2.227  12.150  1.4559 -0.6758  0.9807
13333TIP3    H261491   2.732   2.129  12.034  1.3101 -0.3156  0.6775
13334TIP3   OH261492   1.980   2.245  13.234 -0.2053  0.0463  0.6426
13334TIP3    H161493   2.016   2.156  13.241  0.1586  0.0195 -1.1122
13334TIP3    H261494   2.055   2.303  13.247  0.0879  0.0236 -0.7542
13335TIP3   OH261495   6.240   0.000  11.262  0.0339  0.5829 -0.2347
13335TIP3    H161496   6.251   0.065  11.193 -0.3071  0.8654 -0.0278
13335TIP3    H261497   6.279   0.040  11.339 -1.0409  0.9621  0.1331
13336TIP3   OH261498   4.581   6.381   5.492 -0.2273 -0.6200  0.3632
13336TIP3    H161499   4.547   6.469   5.480  0.3411 -0.5853 -1.3188
13336TIP3    H261500   4.508   6.331   5.529 -0.4192  0.6186  1.7594
13337TIP3   OH261501   5.674   2.654  10.403 -0.3324  0.0514 -0.0015
13337TIP3    H161502   5.657   2.575  10.454  2.0187 -0.8601 -0.4817
13337TIP3    H261503   5.684   2.723  10.468 -1.1491 -0.3127  0.5191
13338TIP3   OH261504   5.558   0.680  15.705 -0.0226 -0.2819  0.6473
13338TIP3    H161505   5.559   0.761  15.756  0.2503  0.0497  0.1285
13338TIP3    H261506   5.614   0.698  15.630 -2.1373  0.0271 -0.9664
13339TIP3   OH261507   3.259   5.108   5.454 -0.1991  0.1062 -0.0675
13339TIP3    H161508   3.222   5.137   5.371  0.7611  0.8754 -0.2384
13339TIP3    H261509   3.318   5.037   5.430 -0.4700 -0.1628  0.0492
13340TIP3   OH261510   4.483   0.965   1.361  0.2657 -0.2320  0.4696
13340TIP3    H161511   4.564   0.963   1.412  0.6678 -2.1079 -0.1759
13340TIP3    H261512   4.426   0.900   1.404  0.2011 -1.0196 -0.7730
13341TIP3   OH261513   3.548   1.135  17.129 -0.1206 -0.0040 -0.0651
13341TIP3    H161514   3.477   1.078  17.100 -0.8006  1.0315 -0.4859
13341TIP3    H261515   3.585   1.090  17.205 -0.1447 -1.3659 -0.8169
13342TIP3   OH261516   2.461   4.778  15.733  0.2587 -0.0262 -0.1279
13342TIP3    H161517   2.536   4.834  15.755  0.2596 -0.0534 -0.0598
13342TIP3    H261518   2.498   4.712  15.675  0.6092 -0.8984  1.0381
13343TIP3   OH261519   4.213   5.299   5.652  0.4995 -0.1741  0.3523
13343TIP3    H161520   4.263   5.258   5.723  0.5681 -1.1594 -0.2492
13343TIP3    H261521   4.148   5.353   5.696  0.1356 -1.2617  1.1724
13344TIP3   OH261522   3.923   6.534   5.580 -0.3246 -0.2453 -1.0384
13344TIP3    H161523   3.844   6.526   5.527 -2.0538 -0.6197  1.4177
13344TIP3    H261524   3.918   6.462   5.643  1.2111  0.5868  0.1198
13345TIP3   OH261525   6.209   0.130   3.847 -0.2461 -0.5049 -0.6067
13345TIP3    H161526   6.203   0.046   3.893 -0.9558 -0.6068 -0.8690
13345TIP3    H261527   6.137   0.127   3.783  1.3479 -0.8301 -2.4841
13346TIP3   OH261528   1.233   3.535  14.678  0.4578  0.0420  0.1785
13346TIP3    H161529   1.242   3.629  14.693  1.2790 -0.0600  0.3538
13346TIP3    H261530   1.276   3.520  14.593 -0.0634 -0.1096 -0.0622
13347TIP3   OH261531   3.919   4.485   0.193 -0.3122  0.3418 -0.5337
13347TIP3    H161532   3.945   4.410   0.140 -0.3117  0.3132 -0.4934
13347TIP3    H261533   3.956   4.467   0.280  0.7107  0.9481 -0.8224
13348TIP3   OH261534   6.394   3.646  11.033  0.0075  0.1904 -0.3636
13348TIP3    H161535   6.400   3.725  11.086 -1.1094 -0.9371  1.5479
13348TIP3    H261536   6.483   3.613  11.029  0.4042  1.2489 -0.7645
13349TIP3   OH261537   3.488   0.284  16.516  0.3187 -0.2631 -0.2766
13349TIP3    H161538   3.501   0.376  16.539  2.4447 -0.7149  0.5210
13349TIP3    H261539   3.461   0.286  16.424 -2.4286  1.2548  0.4427
13350TIP3   OH261540   6.369   6.164   3.516 -0.1943 -0.3055 -0.5243
13350TIP3    H161541   6.274   6.162   3.501 -0.0472 -1.6282 -1.5405
13350TIP3    H261542   6.391   6.072   3.534  0.6400  0.2617  1.6382
13351TIP3   OH261543   5.318   4.003   2.736  0.4232 -0.2966  0.3741
13351TIP3    H161544   5.331   4.043   2.650  1.5298  0.1579  0.7342
13351TIP3    H261545   5.270   4.069   2.787  0.4204 -0.2644  0.3300
13352TIP3   OH261546   5.611   5.095  12.269 -0.1999 -0.4694 -0.3114
13352TIP3    H161547   5.553   5.094  12.193  0.0505 -0.6114 -0.5024
13352TIP3    H261548   5.660   5.013  12.263 -0.5324 -0.7235  0.2790
13353TIP3   OH261549   2.802   1.936   2.239  0.4478 -0.3588 -0.1672
13353TIP3    H161550   2.840   1.981   2.314  1.2933 -0.4907 -0.5023
13353TIP3    H261551   2.787   1.846   2.269  1.1368 -0.5107 -0.2619
13354TIP3   OH261552   1.070   3.291   5.988  0.2034 -0.2034  0.7003
13354TIP3    H161553   1.086   3.385   5.999 -0.2491 -0.2028  1.3827
13354TIP3    H261554   1.148   3.260   5.941  1.3887  0.1292  2.3406
13355TIP3   OH261555   2.958   5.508  14.049  0.0230 -0.5271  0.0235
13355TIP3    H161556   3.047   5.473  14.046  1.7562  3.4099 -2.7875
13355TIP3    H261557   2.962   5.580  14.112 -0.4138  1.0649 -1.6494
13356TIP3   OH261558   0.564   5.745  15.070 -0.1561 -0.0710  0.0150
13356TIP3    H161559   0.569   5.824  15.123  0.5909 -0.6450  0.8302
13356TIP3    H261560   0.518   5.681  15.124  1.0416 -0.8138  0.2042
13357TIP3   OH261561   1.905   5.279  11.935  0.3011 -0.2567 -0.4073
13357TIP3    H161562   1.977   5.255  11.876  0.4646 -0.5201 -0.1064
13357TIP3    H261563   1.946   5.282  12.021 -0.0757 -0.5427 -0.2154
13358TIP3   OH261564   1.467   4.883   1.980  0.0841 -0.1357 -0.3732
13358TIP3    H161565   1.423   4.835   1.910  0.9777  0.0567 -1.0936
13358TIP3    H261566   1.559   4.882   1.955  0.7678 -1.8175  1.8113
13359TIP3   OH261567   5.782   0.965  13.764  0.0693  0.5088 -0.4130
13359TIP3    H161568   5.777   0.920  13.849  0.1793  0.7649 -0.2715
13359TIP3    H261569   5.819   0.899  13.705  2.1528  1.0208  0.2444
13360TIP3   OH261570   1.433   6.224   1.822 -0.0477 -0.0921 -0.1788
13360TIP3    H161571   1.490   6.149   1.806  0.1646  0.1344 -0.5016
13360TIP3    H261572   1.481   6.277   1.886 -1.4716 -1.6507  2.3708
13361TIP3   OH261573   4.774   6.712  14.246  0.0475 -0.6486  0.0517
13361TIP3    H161574   4.756   6.682  14.335 -1.5418  0.5508  0.1713
13361TIP3    H261575   4.706   6.669  14.192  0.8194 -1.1412 -0.5529
13362TIP3   OH261576   1.491   2.251  12.028  0.8725 -0.3467  0.1293
13362TIP3    H161577   1.467   2.343  12.038 -2.3023 -1.0694  0.4284
13362TIP3    H261578   1.532   2.246  11.942 -0.9936  1.0651 -0.9170
13363TIP3   OH261579   5.593   3.949  12.940 -0.1548 -1.0228  0.0990
13363TIP3    H161580   5.634   3.906  12.866  0.4542 -0.5090  0.1328
13363TIP3    H261581   5.665   3.967  13.001 -0.6360 -1.4075  0.8061
13364TIP3   OH261582   4.960   5.092   6.248  0.3576 -0.2643 -0.0595
13364TIP3    H161583   4.959   5.011   6.196 -0.2963 -1.4807  1.7619
13364TIP3    H261584   5.042   5.086   6.298 -0.3882 -0.5626  1.1660
13365TIP3   OH261585   1.766   0.814   2.588 -0.5578  0.0433  0.2640
13365TIP3    H161586   1.857   0.826   2.615 -0.3692 -1.4955  0.4248
13365TIP3    H261587   1.732   0.902   2.579  0.6164  0.6399  1.3552
13366TIP3   OH261588   2.965   2.211  15.060 -0.0668 -0.6310  0.4722
13366TIP3    H161589   3.034   2.274  15.041  0.6153 -1.7715 -1.0464
13366TIP3    H261590   3.011   2.128  15.075 -0.9414 -0.8418  2.2980
13367TIP3   OH261591   5.177   4.454  11.796 -0.2211  0.4042  0.2612
13367TIP3    H161592   5.140   4.367  11.784 -0.7804  0.7051 -0.2268
13367TIP3    H261593   5.118   4.498  11.857  1.4741 -0.4105  2.6493
13368TIP3   OH261594   5.807   4.380  15.709  0.0185  0.1719 -0.1780
13368TIP3    H161595   5.877   4.332  15.667  0.1002  1.6283 -1.8052
13368TIP3    H261596   5.764   4.428  15.638 -1.3410  0.8926  1.0672
13369TIP3   OH261597   0.990   2.002  13.494  0.6011 -0.4490 -0.6481
13369TIP3    H161598   0.977   1.957  13.578 -0.5178 -1.7908 -1.4999
13369TIP3    H261599   1.064   1.956  13.453  1.4262  0.4807 -0.2464
13370TIP3   OH261600   4.934   3.949  13.885  0.5205 -0.4685 -0.5551
13370TIP3    H161601   4.999   3.898  13.835  1.8837  0.4738  0.1997
13370TIP3    H261602   4.986   4.010  13.936 -0.4901 -3.2712  4.4168
13371TIP3   OH261603   3.981   4.840  15.814  0.4259  0.5002  0.8756
13371TIP3    H161604   3.998   4.835  15.908  0.3159 -0.0573  0.8682
13371TIP3    H261605   3.886   4.831  15.806  0.5693 -1.0012  0.6176
13372TIP3   OH261606   6.590   4.418   4.773 -0.3161  0.3827 -0.1675
13372TIP3    H161607   6.643   4.419   4.693 -0.3772 -0.8398 -0.2321
13372TIP3    H261608   6.599   4.330   4.807 -2.2435  0.1534 -0.1353
13373TIP3   OH261609   3.068   1.378  11.881  0.0813 -0.2371 -0.0489
13373TIP3    H161610   3.081   1.466  11.845 -0.9066 -0.1081 -0.1174
13373TIP3    H261611   3.090   1.387  11.974 -1.1872  0.4063  0.2207
13374TIP3   OH261612   5.515   3.434  14.599  0.0382  0.8116 -0.0178
13374TIP3    H161613   5.587   3.379  14.631 -0.7270  0.4399  1.1310
13374TIP3    H261614   5.546   3.467  14.515  1.2710  0.1072  0.1308
13375TIP3   OH261615   4.236   4.439   4.127 -0.2033 -0.5719 -0.2991
13375TIP3    H161616   4.181   4.389   4.188  1.8945 -1.7900  0.7097
13375TIP3    H261617   4.308   4.471   4.182  1.0637 -0.5911 -1.9031
13376TIP3   OH261618   2.721   0.471   5.380 -0.7160 -0.2292 -0.4957
13376TIP3    H161619   2.741   0.481   5.473  0.5033  0.2025 -0.7885
13376TIP3    H261620   2.780   0.402   5.350  0.7999  1.4293 -1.4980
13377TIP3   OH261621   1.640   1.062  16.868 -0.2935 -0.5936  0.0307
13377TIP3    H161622   1.698   1.000  16.914  0.1833 -0.6275 -0.6096
13377TIP3    H261623   1.612   1.014  16.790  1.0950  0.4273 -1.1435
13378TIP3   OH261624   2.471   0.865  10.819  0.0376  0.1337 -0.0801
13378TIP3    H161625   2.445   0.821  10.737  0.1579 -0.1403  0.0262
13378TIP3    H261626   2.436   0.809  10.888 -0.4670  0.6180  0.0536
13379TIP3   OH261627   1.950   2.848  14.455  0.0496 -0.4339 -0.0407
13379TIP3    H161628   2.017   2.916  14.460 -0.7523  0.3556  0.1815
13379TIP3    H261629   1.989   2.780  14.400  1.3749 -0.3934  0.8180
13380TIP3   OH261630   3.382   1.800  15.899  0.1123 -0.1079  0.4943
13380TIP3    H161631   3.471   1.835  15.894  0.1770 -0.4202 -2.9345
13380TIP3    H261632   3.393   1.706  15.886 -0.6777 -0.1613  0.1637
13381TIP3   OH261633   6.056   3.311   2.952 -0.4782  0.4442  0.4270
13381TIP3    H161634   5.970   3.344   2.928  0.4830  2.0543 -1.0065
13381TIP3    H261635   6.108   3.389   2.970  1.6205 -0.2146 -2.1258
13382TIP3   OH261636   2.796   2.198  16.602  0.1742  0.5505 -0.1051
13382TIP3    H161637   2.866   2.136  16.584  0.1079  0.4393  0.0139
13382TIP3    H261638   2.821   2.239  16.685  0.7240  1.4090 -0.6735
13383TIP3   OH261639   6.440   6.177   0.136  0.1381 -0.0702  0.1055
13383TIP3    H161640   6.426   6.092   0.176 -1.1072 -1.2227 -2.5472
13383TIP3    H261641   6.535   6.187   0.132  0.2873 -1.0134  1.0297
13384TIP3   OH261642   3.094   4.752   0.210  0.5005  0.7719 -0.4203
13384TIP3    H161643   3.005   4.774   0.237  1.2362  2.0000  1.2361
13384TIP3    H261644   3.139   4.837   0.204  1.8200  0.1269 -0.1248
13385TIP3   OH261645   1.589   2.585   0.575  0.3473  0.5184  0.1563
13385TIP3    H161646   1.533   2.618   0.505  2.1672 -0.3490 -1.8148
13385TIP3    H261647   1.609   2.662   0.629 -1.8962  1.0057  0.3705
13386TIP3   OH261648   0.443   1.738  11.477  0.5315  0.1113  0.4352
13386TIP3    H161649   0.508   1.692  11.424 -0.5145  0.1302 -0.9162
13386TIP3    H261650   0.368   1.677  11.482 -0.4277  1.1705 -0.4292
13387TIP3   OH261651   4.285   4.442  10.817 -0.2137 -0.2605  0.1768
13387TIP3    H161652   4.366   4.487  10.841  0.5605 -0.4243 -1.9833
13387TIP3    H261653   4.313   4.371  10.759 -2.0328  0.6260 -1.8816
13388TIP3   OH261654   2.391   4.271   2.105 -0.1894  0.3295  0.3545
13388TIP3    H161655   2.365   4.180   2.121 -1.5882  0.9449  1.8042
13388TIP3    H261656   2.486   4.271   2.121 -0.3305 -0.6761  1.3712
13389TIP3   OH261657   6.760   0.548   2.588 -0.3450  0.1062 -0.5151
13389TIP3    H161658   6.706   0.484   2.635 -0.3202 -0.5076 -1.3154
13389TIP3    H261659   6.770   0.621   2.650  0.6093 -1.1472  0.8725
13390TIP3   OH261660   4.058   3.292   0.604 -0.0956 -0.4228  0.0256
13390TIP3    H161661   4.144   3.298   0.646  0.2846 -1.4435 -0.5538
13390TIP3    H261662   4.077   3.257   0.517 -1.1057 -0.7326 -0.0799
13391TIP3   OH261663   4.739   5.141  14.535 -0.4679 -0.1447 -0.0975
13391TIP3    H161664   4.792   5.133  14.614  0.2913 -0.7376 -0.6549
13391TIP3    H261665   4.667   5.078  14.547  1.9720 -3.5114 -1.6810
13392TIP3   OH261666   3.418   1.575  11.421 -0.6787  0.4240  0.0201
13392TIP3    H161667   3.390   1.553  11.510  3.0076 -1.8127  0.8379
13392TIP3    H261668   3.448   1.666  11.427  0.9366 -0.1582  1.5563
13393TIP3   OH261669   3.482   0.312  15.826 -0.2411 -0.1670  0.2083
13393TIP3    H161670   3.555   0.289  15.883 -0.4975  0.0806  0.6394
13393TIP3    H261671   3.514   0.387  15.776 -0.9780  1.4610  2.0434
13394TIP3   OH261672   6.271   6.660   4.541 -0.6356 -0.0627 -0.4338
13394TIP3    H161673   6.360   6.673   4.508 -0.3983  0.1065  0.2636
13394TIP3    H261674   6.214   6.677   4.465 -0.0701 -0.3817 -0.9362
13395TIP3   OH261675   2.771   3.744  13.443  0.1340  0.9614 -0.5001
13395TIP3    H161676   2.805   3.723  13.356  1.7295  1.2090  0.0368
13395TIP3    H261677   2.794   3.836  13.456 -1.2979  1.3219 -0.3385
13396TIP3   OH261678   5.438   3.035   0.238 -0.2203 -0.5927  0.1393
13396TIP3    H161679   5.528   3.023   0.208 -0.8842  0.3729 -2.4728
13396TIP3    H261680   5.389   3.058   0.159 -2.8000 -1.1892  1.4612
13397TIP3   OH261681   0.638   5.971   2.573 -0.1954 -0.0408  0.2283
13397TIP3    H161682   0.659   6.057   2.537  1.8422  0.2583  1.9501
13397TIP3    H261683   0.572   5.988   2.641  0.5492  0.2660  0.8913
13398TIP3   OH261684   0.828   4.235  14.061  0.2943  0.2171 -0.4211
13398TIP3    H161685   0.745   4.262  14.021  0.7887 -0.1005 -1.6849
13398TIP3    H261686   0.851   4.154  14.017  1.8750  0.9049 -0.9440
13399TIP3   OH261687   4.900   0.673   5.464  0.5897  0.3402  0.8588
13399TIP3    H161688   4.919   0.644   5.553 -0.4665  0.6983  1.2194
13399TIP3    H261689   4.806   0.657   5.454  0.7268  0.1673 -0.2475
13400TIP3   OH261690   6.508   0.929  13.259 -0.2605  0.1323  0.1251
13400TIP3    H161691   6.415   0.917  13.238  0.3908 -2.1527 -1.9646
13400TIP3    H261692   6.539   0.995  13.196  0.4703 -2.6638 -2.6920
13401TIP3   OH261693   1.974   3.860  14.641  0.1265  0.3273 -0.0007
13401TIP3    H161694   1.963   3.795  14.711 -0.5890 -0.0897 -0.4948
13401TIP3    H261695   1.918   3.829  14.570 -1.1179  2.0705  0.1656
13402TIP3   OH261696   5.692   0.384   2.971 -0.6072 -0.5894  0.3239
13402TIP3    H161697   5.603   0.407   2.996 -0.1586  1.0682  0.5321
13402TIP3    H261698   5.688   0.292   2.947 -2.2521 -0.6831  0.8749
13403TIP3   OH261699   1.237   3.451  12.719 -0.3000  0.3755 -0.3622
13403TIP3    H161700   1.282   3.513  12.661  1.9223  0.2381  1.1151
13403TIP3    H261701   1.277   3.366  12.697 -0.7418  0.0447  0.1190
13404TIP3   OH261702   5.073   6.059   3.295  0.0965  0.0189 -0.5720
13404TIP3    H161703   5.019   5.980   3.299 -0.1707  0.2488  1.0364
13404TIP3    H261704   5.161   6.029   3.318  0.2076  0.0249 -0.9812
13405TIP3   OH261705   1.302   3.730  11.062  0.7168  0.2515  0.2152
13405TIP3    H161706   1.207   3.714  11.064  0.7955 -0.6009 -1.1586
13405TIP3    H261707   1.313   3.814  11.106 -0.4631 -0.5189  2.0892
13406TIP3   OH261708   4.206   5.689  10.179  0.4302 -0.3960 -0.5209
13406TIP3    H161709   4.236   5.777  10.153 -0.1155  0.3649  1.2821
13406TIP3    H261710   4.117   5.684  10.144  0.3488 -0.0944 -0.3671
13407TIP3   OH261711   2.980   6.634  14.146  0.0890 -0.5209  0.0368
13407TIP3    H161712   3.026   6.709  14.184  1.9667 -0.6728 -1.7861
13407TIP3    H261713   2.889   6.646  14.174  0.5141  1.8653  0.6540
13408TIP3   OH261714   1.642   0.836  10.999  0.1543 -0.2326 -0.4462
13408TIP3    H161715   1.712   0.775  10.975  1.4679  1.5095 -1.2630
13408TIP3    H261716   1.686   0.919  11.013 -1.5441  0.5052  0.9190
13409TIP3   OH261717   4.766   6.393   1.110  0.0399 -0.2282 -0.2492
13409TIP3    H161718   4.739   6.474   1.066  1.8409  1.3356  1.3339
13409TIP3    H261719   4.724   6.397   1.196  0.8035 -0.5295  0.1505
13410TIP3   OH261720   4.848   1.095  13.841 -0.0365  0.3306 -0.2717
13410TIP3    H161721   4.859   1.181  13.882 -1.0539  0.1372  0.4415
13410TIP3    H261722   4.756   1.072  13.857  0.1221 -0.7278 -0.7761
13411TIP3   OH261723   3.464   4.420  12.941  0.5062  0.8355  0.8533
13411TIP3    H161724   3.420   4.429  12.856 -1.6455  0.2871  1.8453
13411TIP3    H261725   3.553   4.392  12.918 -0.1188  0.2996 -1.2177
13412TIP3   OH261726   3.399   2.567   2.380  0.5246 -0.2801  0.1808
13412TIP3    H161727   3.372   2.507   2.310  0.3628 -0.0000 -0.0044
13412TIP3    H261728   3.485   2.537   2.406  0.5173 -0.4894 -0.0312
13413TIP3   OH261729   4.171   6.713  12.877 -0.0353  0.6244  0.3101
13413TIP3    H161730   4.137   6.676  12.795  2.5579 -0.7249 -0.2686
13413TIP3    H261731   4.185   6.806  12.857  1.9234  0.0583 -1.3877
13414TIP3   OH261732   1.272   5.358   2.411 -0.3931 -0.1513 -0.1357
13414TIP3    H161733   1.309   5.439   2.377 -0.4210 -0.0249  0.1333
13414TIP3    H261734   1.306   5.352   2.500 -1.2574  0.1171  0.2215
13415TIP3   OH261735   2.664   3.314   5.407 -0.3163  0.2406 -1.0597
13415TIP3    H161736   2.698   3.395   5.370  1.6898  0.1872  0.4738
13415TIP3    H261737   2.665   3.328   5.501 -1.1611 -1.1313 -0.8190
13416TIP3   OH261738   4.209   1.071   1.596 -0.1048 -0.2689 -0.2526
13416TIP3    H161739   4.132   1.128   1.606 -1.1131 -0.9219 -3.4028
13416TIP3    H261740   4.264   1.116   1.532 -0.0198 -1.9323 -1.3760
13417TIP3   OH261741   2.093   3.021   2.837  0.1414 -0.1998  0.7472
13417TIP3    H161742   2.176   2.980   2.809  1.4244  1.6796  1.5967
13417TIP3    H261743   2.095   3.107   2.796 -1.9557 -0.4874 -0.0582
13418TIP3   OH261744   2.463   4.631  11.108 -0.4929  0.2033  0.0673
13418TIP3    H161745   2.401   4.611  11.038 -0.4161 -2.1110  0.5886
13418TIP3    H261746   2.485   4.723  11.095 -1.5729  0.2167 -2.0638
13419TIP3   OH261747   1.504   6.818  15.179  0.3367  0.3215 -0.3209
13419TIP3    H161748   1.532   6.793  15.267 -0.2413  0.3856 -0.1139
13419TIP3    H261749   1.585   6.836  15.132  0.7476 -1.3049 -0.2869
13420TIP3   OH261750   5.951   5.945   1.271 -0.6091  0.2747 -0.5255
13420TIP3    H161751   5.864   5.920   1.240 -0.6335  1.1104 -1.1665
13420TIP3    H261752   5.950   5.925   1.365 -0.9440 -1.1918 -0.8127
13421TIP3   OH261753   0.084   3.225   4.394  0.2878 -0.0158 -0.0666
13421TIP3    H161754   0.163   3.175   4.370  0.3568  0.5145 -0.9449
13421TIP3    H261755   0.060   3.272   4.315  0.3552  1.5385  0.8066
13422TIP3   OH261756   4.373   5.209  12.232 -0.3801  0.0934  0.0923
13422TIP3    H161757   4.334   5.172  12.153  2.1463  0.5845 -1.4886
13422TIP3    H261758   4.418   5.135  12.273 -2.5877 -0.4238  1.7978
13423TIP3   OH261759   5.420   2.713  11.201  0.1372 -0.2641  0.4343
13423TIP3    H161760   5.428   2.807  11.220  0.0119 -0.0237 -0.6719
13423TIP3    H261761   5.461   2.671  11.277  1.1437  0.7025  0.4697
13424TIP3   OH261762   4.189   0.311   4.843 -0.3356  0.6052 -0.3044
13424TIP3    H161763   4.261   0.247   4.841  0.0264  1.0242 -1.1949
13424TIP3    H261764   4.203   0.360   4.924 -0.7506 -0.5766  0.5104
13425TIP3   OH261765   0.379   4.066  16.376  0.5055 -0.3443  0.1403
13425TIP3    H161766   0.473   4.082  16.368  0.3984 -0.5607 -2.5070
13425TIP3    H261767   0.339   4.152  16.363  0.3272 -0.2819  1.0836
13426TIP3   OH261768   0.859   4.811  15.392 -0.0542  0.0300  0.3421
13426TIP3    H161769   0.916   4.876  15.433 -0.3804 -0.8674  2.3390
13426TIP3    H261770   0.773   4.824  15.433 -0.2061 -1.4195  0.5491
13427TIP3   OH261771   1.014   6.638   1.450 -0.0453  0.4445  0.3392
13427TIP3    H161772   1.073   6.635   1.525  0.1758  2.6417  0.3138
13427TIP3    H261773   1.045   6.712   1.398  0.2141 -1.3731 -2.3087
13428TIP3   OH261774   3.469   3.802   4.538 -0.0446 -0.2428 -0.2137
13428TIP3    H161775   3.411   3.765   4.472 -0.2807 -1.6683  0.7532
13428TIP3    H261776   3.527   3.730   4.562  1.4394  0.8506 -0.3775
13429TIP3   OH261777   1.054   2.992   4.632  0.8931 -0.1984  0.3712
13429TIP3    H161778   0.987   3.058   4.613  1.7983  0.2237 -1.5151
13429TIP3    H261779   1.130   3.042   4.660  1.4439 -0.4526 -0.6401
13430TIP3   OH261780   1.230   4.364  10.136  0.0035  1.2779 -0.5699
13430TIP3    H161781   1.152   4.347  10.084 -0.3393  1.8062 -0.2435
13430TIP3    H261782   1.282   4.284  10.129 -1.6119 -0.0100  1.0502
13431TIP3   OH261783   6.014   1.997  15.677  0.1301  0.2706  0.6141
13431TIP3    H161784   6.085   2.060  15.685 -0.2558  0.6846  0.8166
13431TIP3    H261785   6.034   1.930  15.743 -1.1826  1.8747  2.7690
13432TIP3   OH261786   6.279   1.274  13.036  0.0114 -0.1975  0.3608
13432TIP3    H161787   6.251   1.289  13.126 -1.1675  0.2230 -0.0527
13432TIP3    H261788   6.258   1.355  12.990 -0.4262 -0.7923 -0.5227
13433TIP3   OH261789   5.782   1.225   2.911 -0.5130  0.1115  0.1134
13433TIP3    H161790   5.762   1.138   2.876  1.7848  0.1077 -1.4194
13433TIP3    H261791   5.697   1.263   2.931 -1.8230 -1.1290 -2.5774
13434TIP3   OH261792   1.941   4.754   2.170  0.2354  0.3747  0.7119
13434TIP3    H161793   1.855   4.718   2.150 -0.2974  0.8878  1.9801
13434TIP3    H261794   1.923   4.829   2.227  1.5190  0.4297  1.0713
13435TIP3   OH261795   1.061   3.864  15.139  0.4940  0.1400 -0.2796
13435TIP3    H161796   1.012   3.928  15.086 -0.2652 -0.7501 -0.6834
13435TIP3    H261797   1.002   3.789  15.146  0.9192 -0.0824  1.1473
13436TIP3   OH261798   2.991   5.181   0.947  0.9296  0.2738  0.1609
13436TIP3    H161799   2.930   5.250   0.974  0.0287 -0.3151 -0.2854
13436TIP3    H261800   2.994   5.189   0.851 -0.6116 -1.4135 -0.0786
13437TIP3   OH261801   0.164   2.659   3.756  0.4787  0.5068 -0.0721
13437TIP3    H161802   0.224   2.636   3.827  1.1574  0.0964 -0.7592
13437TIP3    H261803   0.212   2.723   3.703  1.2858 -1.4937 -1.9133
13438TIP3   OH261804   2.323   2.260  17.041  0.0505  0.0433  0.6152
13438TIP3    H161805   2.341   2.289  16.952  0.3905 -0.9801  0.3459
13438TIP3    H261806   2.255   2.320  17.073  2.0000  2.3544  0.7282
13439TIP3   OH261807   5.779   4.292   5.667  0.7327  0.4011  0.1098
13439TIP3    H161808   5.751   4.201   5.668  0.2159  0.5626  0.8017
13439TIP3    H261809   5.698   4.343   5.669  1.0135  0.8797 -0.2921
13440TIP3   OH261810   2.361   2.420  13.163  0.9153 -0.3413 -0.0131
13440TIP3    H161811   2.397   2.335  13.139  0.8066  0.3237 -2.8520
13440TIP3    H261812   2.423   2.454  13.228  0.1186 -3.1395  2.4023
13441TIP3   OH261813   4.653   4.875  15.903  1.0197  0.1756 -0.0191
13441TIP3    H161814   4.655   4.967  15.878  2.3464  0.5169  1.1923
13441TIP3    H261815   4.736   4.839  15.871  0.0626 -0.8898 -1.4126
13442TIP3   OH261816   2.706   5.713  14.709 -0.4598  0.0482 -0.0733
13442TIP3    H161817   2.725   5.731  14.617  0.7054  1.9970  0.4869
13442TIP3    H261818   2.720   5.797  14.753 -0.6287 -0.9234  1.9420
13443TIP3   OH261819   4.307   3.618  12.394  0.5928 -0.0260 -0.6239
13443TIP3    H161820   4.300   3.710  12.367  2.0664  0.2593 -0.1196
13443TIP3    H261821   4.221   3.597  12.430 -0.2462  0.6885 -2.1307
13444TIP3   OH261822   3.884   0.007  12.120 -0.2274  0.0987  0.1211
13444TIP3    H161823   3.870   0.071  12.189  0.5407 -0.5767  0.9212
13444TIP3    H261824   3.935   0.054  12.054  0.0116  0.4223  0.5305
13445TIP3   OH261825   0.774   1.688   4.299 -0.6497  0.6913  0.3211
13445TIP3    H161826   0.693   1.735   4.282 -0.5575  1.0368  0.8237
13445TIP3    H261827   0.783   1.629   4.225 -0.4477  1.8986 -0.6503
13446TIP3   OH261828   0.013   1.196   2.705  0.3812  0.2315 -0.1359
13446TIP3    H161829   0.074   1.256   2.663  3.4602 -2.1787  0.4747
13446TIP3    H261830  -0.014   1.241   2.785  1.3559  1.4214 -0.4462
13447TIP3   OH261831   2.488   6.686   5.467  0.9125 -0.0303  0.6770
13447TIP3    H161832   2.557   6.720   5.410 -0.0783  1.7519  0.4956
13447TIP3    H261833   2.478   6.752   5.536 -0.9926  0.0488  0.3752
13448TIP3   OH261834   0.968   4.217  11.037 -0.2699  0.1143  0.3542
13448TIP3    H161835   0.997   4.181  11.121 -0.2807 -0.8686 -0.0389
13448TIP3    H261836   1.016   4.165  10.972 -0.0786  1.0186 -0.2496
13449TIP3   OH261837   6.007   0.927   5.193 -0.2843  0.1622 -0.2548
13449TIP3    H161838   6.067   1.001   5.198  0.5068 -0.5462  1.5224
13449TIP3    H261839   5.924   0.962   5.225  0.4629 -0.0178  2.0943
13450TIP3   OH261840   5.576   2.906   2.448  0.2859  0.5117 -0.7152
13450TIP3    H161841   5.652   2.944   2.404 -0.8474  0.0626 -3.1962
13450TIP3    H261842   5.512   2.978   2.452  0.6167  0.7566  0.9420
13451TIP3   OH261843   5.544   0.655  16.360  0.2656  0.4202 -0.7807
13451TIP3    H161844   5.541   0.654  16.264  1.5671 -0.1361 -0.8294
13451TIP3    H261845   5.637   0.652  16.382  0.0617  1.8629  0.5056
13452TIP3   OH261846   0.548   5.008  16.994  0.3503 -0.4461  0.3006
13452TIP3    H161847   0.503   4.923  16.989 -0.8696  0.2081 -0.3406
13452TIP3    H261848   0.639   4.988  16.971  0.1687 -1.6408  0.5398
13453TIP3   OH261849   1.461   2.751  12.378 -0.0333 -0.1715  0.1224
13453TIP3    H161850   1.513   2.752  12.458 -0.1537  0.8272  0.1982
13453TIP3    H261851   1.526   2.740  12.308  0.5314  2.7031  0.0794
13454TIP3   OH261852   6.494   0.420   1.952 -0.7098  0.0144  0.3254
13454TIP3    H161853   6.528   0.334   1.978  1.0170  0.1799 -1.1374
13454TIP3    H261854   6.440   0.402   1.875  0.7632  0.3233 -0.8286
13455TIP3   OH261855   0.456   1.098  15.053 -0.5539  0.1411  0.3090
13455TIP3    H161856   0.373   1.146  15.053  0.1041  1.2929  0.5942
13455TIP3    H261857   0.503   1.129  15.130  0.0563 -0.6898  0.2918
13456TIP3   OH261858   0.097   3.296   5.568 -0.1409 -0.5336  0.2077
13456TIP3    H161859   0.180   3.267   5.530 -0.8236 -1.1244 -0.8806
13456TIP3    H261860   0.107   3.283   5.662  1.3896  0.4082  0.2087
13457TIP3   OH261861   0.205   6.561  14.528 -0.4306 -0.7523 -0.1435
13457TIP3    H161862   0.263   6.580  14.454  0.3134  0.8732  0.8109
13457TIP3    H261863   0.265   6.542  14.601 -1.1324 -0.9525  0.3915
13458TIP3   OH261864   0.264   2.495  17.059  0.0939  0.1472 -0.6909
13458TIP3    H161865   0.173   2.466  17.050  0.2118 -0.4491 -0.0831
13458TIP3    H261866   0.298   2.444  17.133  1.1675 -0.2507 -1.4288
13459TIP3   OH261867   0.611   1.348   3.290 -0.4718  0.0458  0.3160
13459TIP3    H161868   0.536   1.289   3.278 -2.2606  2.3373 -0.6768
13459TIP3    H261869   0.572   1.430   3.320  1.9934  0.5607  2.4287
13460TIP3   OH261870   0.805   2.656   3.913  0.2690 -0.1962 -0.5391
13460TIP3    H161871   0.741   2.652   3.985  0.1861  0.5631 -0.5630
13460TIP3    H261872   0.886   2.623   3.952  0.4617  1.0597  0.1867
13461TIP3   OH261873   5.323   0.865   1.205  0.2349  0.4489  0.7186
13461TIP3    H161874   5.353   0.878   1.296  1.1477  0.8829  0.3713
13461TIP3    H261875   5.395   0.816   1.164 -0.3376 -0.0625  0.3148
13462TIP3   OH261876   0.428   5.979   0.906  0.2720  0.3606 -0.3483
13462TIP3    H161877   0.515   5.944   0.926 -0.3917  0.0235  2.4010
13462TIP3    H261878   0.376   5.960   0.984 -2.4565  0.0996 -2.0857
13463TIP3   OH261879   6.027   6.320  11.471 -0.2552  0.3345  0.5091
13463TIP3    H161880   6.036   6.270  11.552 -0.4023 -0.1550  0.2247
13463TIP3    H261881   5.975   6.397  11.496 -1.1437 -0.3051  0.6721
13464TIP3   OH261882   6.010   6.734  16.575  0.2521  0.8866 -0.0813
13464TIP3    H161883   6.042   6.787  16.648 -2.2445  0.9880  1.0534
13464TIP3    H261884   5.955   6.793  16.524  0.4372  0.3235 -0.9529
13465TIP3   OH261885   5.603   3.355  13.854 -0.2823  0.3159 -0.1188
13465TIP3    H161886   5.546   3.368  13.929  0.7410  1.6008  0.4681
13465TIP3    H261887   5.544   3.333  13.782 -1.2348 -1.5635  1.1665
13466TIP3   OH261888   4.133   4.255   4.299 -0.8027  0.2956 -0.5927
13466TIP3    H161889   4.206   4.194   4.288  0.7657  2.0854 -0.6147
13466TIP3    H261890   4.071   4.210   4.355  1.9495 -0.0032  2.4567
13467TIP3   OH261891   5.085   3.715  11.524 -0.0471  0.6769 -0.0199
13467TIP3    H161892   5.036   3.688  11.601  2.3773  0.7655  1.6413
13467TIP3    H261893   5.156   3.770  11.558  2.3717 -0.9827 -2.0257
13468TIP3   OH261894   4.269   3.121  14.950  0.2971  0.3430  0.0339
13468TIP3    H161895   4.179   3.144  14.928  0.9264  3.0248 -0.0825
13468TIP3    H261896   4.261   3.042  15.003 -1.8346 -1.5941 -2.8961
13469TIP3   OH261897   5.678   0.017   2.039  0.3667  0.7157  0.1987
13469TIP3    H161898   5.759   0.049   1.998 -0.1040  0.5711 -0.8747
13469TIP3    H261899   5.608   0.064   1.993 -0.2377 -0.3902 -0.0409
13470TIP3   OH261900   6.747   1.341  13.652  0.1327  0.3357  0.1944
13470TIP3    H161901   6.780   1.340  13.742  0.2353  1.5874  0.1915
13470TIP3    H261902   6.822   1.371  13.600 -0.4920  1.5868 -0.0249
13471TIP3   OH261903   2.294   0.021  15.604  0.3356  0.5571  0.0489
13471TIP3    H161904   2.238   0.097  15.619  0.6294  0.7618  0.1117
13471TIP3    H261905   2.234  -0.048  15.577  0.2938  1.4143 -2.2150
13472TIP3   OH261906   1.546   6.368  12.132  0.2989 -0.1805  0.1933
13472TIP3    H161907   1.463   6.321  12.131 -0.2859  0.8506 -1.0483
13472TIP3    H261908   1.565   6.387  12.041  1.0688  1.0410  0.5793
13473TIP3   OH261909   1.636   4.114   6.030  0.4895  0.0417 -0.1506
13473TIP3    H161910   1.639   4.203   6.066 -0.0112 -0.6741  1.7957
13473TIP3    H261911   1.728   4.090   6.018  0.6080  1.1637 -1.6535
13474TIP3   OH261912   4.712   3.684  13.578  0.0482 -0.3774 -0.2115
13474TIP3    H161913   4.652   3.658  13.509  0.2840  0.1600 -0.6312
13474TIP3    H261914   4.786   3.725  13.532 -0.6875  1.8268  0.4232
13475TIP3   OH261915   4.450   4.053   5.257 -0.7886  0.4635 -0.1787
13475TIP3    H161916   4.543   4.033   5.265 -0.9985 -2.2722 -2.7390
13475TIP3    H261917   4.407   3.992   5.317 -1.0031  0.6043 -0.1872
13476TIP3   OH261918   1.655   4.902   5.991  0.3362 -0.3639  0.1633
13476TIP3    H161919   1.613   4.827   5.949  0.1944 -1.3139  1.8974
13476TIP3    H261920   1.708   4.864   6.061  0.9873  1.1028  0.5051
13477TIP3   OH261921   4.065   2.033  16.634 -0.7328  0.0842 -0.3465
13477TIP3    H161922   4.084   1.982  16.555 -0.4749 -0.8745  0.3020
13477TIP3    H261923   4.149   2.072  16.658 -1.1181  1.6315 -1.3613
13478TIP3   OH261924   1.375   0.830  10.535  0.0359  0.3834  0.0934
13478TIP3    H161925   1.375   0.872  10.449 -0.0829  1.4463  0.5921
13478TIP3    H261926   1.307   0.876  10.584 -1.5208 -1.7335  0.0696
13479TIP3   OH261927   0.945   1.021  10.802  0.4599  0.3029 -0.5344
13479TIP3    H161928   0.979   0.963  10.870  0.0864 -0.4343 -0.9520
13479TIP3    H261929   0.874   1.069  10.844  0.3013 -0.0700 -0.3732
13480TIP3   OH261930   0.928   1.602   2.839 -0.2552  0.9017  0.0074
13480TIP3    H161931   0.862   1.589   2.771 -0.2498  1.5064 -0.1161
13480TIP3    H261932   0.880   1.593   2.921 -0.4196  0.9769 -0.0795
13481TIP3   OH261933   3.949   3.903   1.131  0.6072  0.5347 -0.0579
13481TIP3    H161934   3.956   3.986   1.085 -0.4505  0.0536 -1.1325
13481TIP3    H261935   3.879   3.917   1.195 -0.6052  0.0707 -1.2287
13482TIP3   OH261936   4.751   5.579   5.447  0.8161 -0.3792 -0.4788
13482TIP3    H161937   4.781   5.589   5.537  0.7234  0.0997 -0.5014
13482TIP3    H261938   4.741   5.668   5.415 -1.5751 -0.4753 -0.1743
13483TIP3   OH261939   4.484   3.529   1.658 -0.0916  0.4003  0.2123
13483TIP3    H161940   4.393   3.512   1.635 -0.0253 -0.1790  0.3757
13483TIP3    H261941   4.511   3.600   1.600 -0.6379  0.5526  0.1462
13484TIP3   OH261942   0.529   6.302   2.102 -0.0747 -0.2566 -0.0216
13484TIP3    H161943   0.599   6.367   2.107 -0.5181  0.1410  1.6658
13484TIP3    H261944   0.553   6.234   2.165 -1.4543  0.1785  1.0295
13485TIP3   OH261945   6.231   6.736  14.705  0.2385  0.1723 -0.2849
13485TIP3    H161946   6.194   6.814  14.664  1.9671  1.3562  0.2832
13485TIP3    H261947   6.247   6.762  14.796  1.4814 -0.5906 -0.2562
13486TIP3   OH261948   6.380   5.787   3.931  0.4459 -0.1060 -0.1125
13486TIP3    H161949   6.447   5.822   3.989 -0.7836  0.5023  0.9841
13486TIP3    H261950   6.316   5.858   3.921 -1.1586 -1.3741  0.6715
13487TIP3   OH261951   6.231   3.436   1.626 -0.1397  0.1936 -0.8197
13487TIP3    H161952   6.190   3.471   1.547 -1.3971 -1.2124 -0.8343
13487TIP3    H261953   6.209   3.343   1.625 -0.0576  0.1132  1.0989
13488TIP3   OH261954   5.439   0.422   3.054 -0.0175  0.0268 -0.2910
13488TIP3    H161955   5.440   0.402   3.147 -0.1368 -1.2986 -0.5513
13488TIP3    H261956   5.401   0.510   3.048 -1.3829 -0.4597  0.7993
13489TIP3   OH261957   4.797   6.752   5.174 -0.2467  0.8520 -0.2068
13489TIP3    H161958   4.730   6.735   5.240 -1.0990 -0.8880 -1.4474
13489TIP3    H261959   4.751   6.748   5.090  1.2594  0.2884 -1.0488
13490TIP3   OH261960   3.345   5.847   3.326 -0.2939  0.0388 -0.6681
13490TIP3    H161961   3.438   5.850   3.349 -0.1854 -0.3619 -1.0464
13490TIP3    H261962   3.336   5.908   3.252 -0.2103 -0.3982 -1.0416
13491TIP3   OH261963   1.785   0.228   2.281  0.2956  0.2326 -0.1047
13491TIP3    H161964   1.879   0.238   2.296  0.2095 -0.9037  1.3626
13491TIP3    H261965   1.745   0.295   2.336  0.1596 -1.1827  1.5972
13492TIP3   OH261966   6.698   6.661   4.278 -0.1464  0.4983 -0.3388
13492TIP3    H161967   6.763   6.597   4.308 -1.9575 -0.8952  0.8425
13492TIP3    H261968   6.749   6.730   4.237  1.9122 -2.0713 -2.5127
13493TIP3   OH261969   1.495   3.556  12.169 -0.0517  0.4444  0.0242
13493TIP3    H161970   1.535   3.495  12.230  1.4714 -1.0168 -2.2571
13493TIP3    H261971   1.406   3.525  12.157 -0.5900  1.1436  1.9028
13494TIP3   OH261972   2.918   3.117   0.791 -0.2336 -0.3528  0.5458
13494TIP3    H161973   2.900   3.207   0.764  1.8585 -0.0615  0.0065
13494TIP3    H261974   2.959   3.127   0.877  1.5117 -0.6465 -0.2250
13495TIP3   OH261975   2.757   1.076   1.775 -0.0205 -0.2273 -0.1373
13495TIP3    H161976   2.757   0.991   1.818  0.0040 -0.6981 -1.0263
13495TIP3    H261977   2.711   1.134   1.835  0.4359 -0.7390  0.7170
13496TIP3   OH261978   0.712   3.417  13.342  0.3063 -0.1561 -0.1492
13496TIP3    H161979   0.772   3.409  13.416  0.6638 -0.9861 -0.5162
13496TIP3    H261980   0.663   3.498  13.359  0.2530 -0.4341  1.0822
13497TIP3   OH261981   4.174   1.011   3.225  0.2350  0.3270 -0.3660
13497TIP3    H161982   4.246   1.011   3.161 -0.4370  3.6744 -1.3681
13497TIP3    H261983   4.216   1.036   3.307  0.6069 -0.4927 -0.3019
13498TIP3   OH261984   2.166   5.527  11.524  0.0842  0.1822 -0.2396
13498TIP3    H161985   2.189   5.435  11.537  1.9009  0.6331  0.0969
13498TIP3    H261986   2.171   5.540  11.429  1.7998  0.3623 -0.1529
13499TIP3   OH261987   2.817   2.495  12.611 -0.0234  0.0897 -0.2163
13499TIP3    H161988   2.744   2.550  12.580 -0.8198 -1.5738 -1.4513
13499TIP3    H261989   2.847   2.539  12.690 -2.2717  0.9406  0.2607
13500TIP3   OH261990   4.384   0.898  12.997  0.1588  0.0263  0.3502
13500TIP3    H161991   4.325   0.929  12.928 -0.5294  1.5704  1.5709
13500TIP3    H261992   4.332   0.838  13.049  0.0897  0.3000  0.6012
13501TIP3   OH261993   3.101   4.425  12.841 -0.2312 -0.3524  0.4310
13501TIP3    H161994   3.161   4.445  12.769 -0.0955  0.6368  0.8031
13501TIP3    H261995   3.155   4.377  12.904 -0.5305 -1.8641 -0.4208
13502TIP3   OH261996   0.061   5.663   2.113  0.6998  0.2660 -0.3748
13502TIP3    H161997   0.115   5.588   2.139 -2.6885 -1.6092  2.1717
13502TIP3    H261998   0.051   5.713   2.194 -0.4580  1.1311 -1.0373
13503TIP3   OH261999   1.505   1.050  13.842  0.7008 -0.1768 -0.0710
13503TIP3    H162000   1.539   1.120  13.786  1.1616  0.3658  0.8786
13503TIP3    H262001   1.425   1.086  13.879  1.4944  0.2629  1.2539
13504TIP3   OH262002   5.172   6.698   5.046  0.5682  0.6487 -0.4500
13504TIP3    H162003   5.174   6.652   5.130  1.1130  0.7814 -0.3884
13504TIP3    H262004   5.175   6.791   5.069  0.5831  0.6887 -0.6099
13505TIP3   OH262005   0.258   4.858  11.853  0.1342  0.5211  0.2625
13505TIP3    H162006   0.217   4.945  11.853 -1.6031 -0.2539  0.0893
13505TIP3    H262007   0.197   4.803  11.902  0.8411 -0.7516 -0.2455
13506TIP3   OH262008   1.175   2.971  13.429  0.3869 -0.2956  0.1599
13506TIP3    H162009   1.204   3.039  13.489 -1.4770 -0.7253  1.6560
13506TIP3    H262010   1.148   3.018  13.350 -1.5739  0.8743  1.4321
13507TIP3   OH262011   4.493   3.565   4.222  0.4901  0.2140 -0.0410
13507TIP3    H162012   4.408   3.551   4.180  1.5490  0.1042 -2.3099
13507TIP3    H262013   4.475   3.561   4.315 -1.7330 -1.4406 -0.4658
13508TIP3   OH262014   4.985   2.607  10.482  0.2427  0.0027 -0.2362
13508TIP3    H162015   4.924   2.579  10.551  0.6288 -0.8914 -0.2391
13508TIP3    H262016   5.025   2.526  10.451  2.0544  0.6268  0.3312
13509TIP3   OH262017   4.898   0.953   2.662 -0.5286  0.1623 -0.1275
13509TIP3    H162018   4.972   0.900   2.634  0.5088  1.7035 -0.4171
13509TIP3    H262019   4.868   0.912   2.744  1.2335  0.0676  0.4949
13510TIP3   OH262020   6.658   4.075   3.154 -0.2260  0.0569 -0.7087
13510TIP3    H162021   6.635   4.003   3.095 -1.0322  0.4411 -0.8793
13510TIP3    H262022   6.576   4.096   3.199  0.6437 -1.1762  1.6339
13511TIP3   OH262023   4.289   2.352   4.020 -0.0827  0.5794  0.3872
13511TIP3    H162024   4.202   2.313   4.012 -1.1780  2.5457  1.9459
13511TIP3    H262025   4.343   2.303   3.957 -2.1461 -1.0749 -0.2040
13512TIP3   OH262026   5.610   4.912  11.985  0.1403 -0.0011  0.3111
13512TIP3    H162027   5.516   4.896  11.989  0.1447  0.1297  2.9522
13512TIP3    H262028   5.622   4.966  11.907 -1.9974  0.1511  0.0203
13513TIP3   OH262029   5.389   3.705   2.751  0.0981 -0.1323  0.2252
13513TIP3    H162030   5.320   3.641   2.767 -0.0738 -0.3109 -1.1236
13513TIP3    H262031   5.350   3.789   2.775 -0.0566 -0.4029  0.9303
13514TIP3   OH262032   4.451   0.141   4.878 -0.4268 -0.0456  0.1916
13514TIP3    H162033   4.517   0.205   4.906  0.4183 -0.7677 -0.1133
13514TIP3    H262034   4.475   0.060   4.924 -0.9058 -0.4010 -0.1723
13515TIP3   OH262035   4.339   3.240  17.023 -0.2271  0.0910  1.0394
13515TIP3    H162036   4.379   3.298  16.958  0.0113 -0.4548  0.6908
13515TIP3    H262037   4.249   3.229  16.993  0.4015 -1.7665 -0.3599
13516TIP3   OH262038   4.997   2.568  17.120  0.3246  0.5463  0.3624
13516TIP3    H162039   5.039   2.483  17.107  1.0031  1.0126 -0.6595
13516TIP3    H262040   4.943   2.557  17.199 -0.8705 -1.3071 -0.6366
13517TIP3   OH262041   4.199   1.598   5.681 -0.0580  0.2515 -0.2610
13517TIP3    H162042   4.243   1.610   5.765 -2.0485 -0.4681  0.9708
13517TIP3    H262043   4.253   1.534   5.634  1.9841  1.9023 -0.2796
13518TIP3   OH262044   5.680   1.099   1.972  0.1171  0.0061  0.2766
13518TIP3    H162045   5.592   1.131   1.991 -0.0947 -0.5149  0.2123
13518TIP3    H262046   5.679   1.008   2.003  1.1950  0.5103  1.9425
13519TIP3   OH262047   0.243   4.034  15.979 -0.2011 -0.7790  0.0571
13519TIP3    H162048   0.280   4.114  16.018 -1.7301 -0.2234  0.4712
13519TIP3    H262049   0.279   3.963  16.032 -1.8105 -0.0765  2.2526
13520TIP3   OH262050   3.476   0.494   5.043 -0.3136 -0.3244  0.0631
13520TIP3    H162051   3.559   0.540   5.026 -0.5931  0.1221 -0.1081
13520TIP3    H262052   3.408   0.555   5.014 -0.6790 -1.9753 -3.1175
13521TIP3   OH262053   4.555   6.121  12.895 -0.4626  0.0856 -0.1125
13521TIP3    H162054   4.630   6.134  12.836  0.3982 -2.8443  0.1881
13521TIP3    H262055   4.502   6.200  12.883  2.3911  2.1048 -0.6974
13522TIP3   OH262056   0.956   5.200   4.145 -0.3246  0.7664  0.2329
13522TIP3    H162057   1.015   5.209   4.220 -1.0046 -0.7610  0.9852
13522TIP3    H262058   0.883   5.259   4.164 -0.4166  0.5058  0.7153
13523TIP3   OH262059   0.971   0.471  15.069  0.2073 -0.0072 -0.5273
13523TIP3    H162060   1.064   0.490  15.062  0.6784 -1.8112  0.2746
13523TIP3    H262061   0.961   0.385  15.028 -1.1267  0.2118 -0.6977
13524TIP3   OH262062   0.603   2.418  13.378  0.0089  0.2239 -1.0117
13524TIP3    H162063   0.639   2.506  13.380 -0.4796  0.4430  1.0893
13524TIP3    H262064   0.659   2.367  13.437 -1.0101 -0.2756 -0.4318
13525TIP3   OH262065   4.554   6.575   3.016  0.0564  0.2116  0.3391
13525TIP3    H162066   4.605   6.635   2.962 -1.3493 -0.1777 -1.5076
13525TIP3    H262067   4.604   6.568   3.098  1.9760  1.2486 -0.6796
13526TIP3   OH262068   4.132   6.467   3.648  0.5006 -0.5400 -0.2598
13526TIP3    H162069   4.045   6.432   3.628 -0.5825 -0.2543  3.2141
13526TIP3    H262070   4.176   6.396   3.696  1.1309  0.2586  0.3808
13527TIP3   OH262071   0.729   5.447  10.628 -0.4135  0.0232  0.6439
13527TIP3    H162072   0.725   5.364  10.580 -0.7955  1.0329 -1.1578
13527TIP3    H262073   0.819   5.477  10.618 -0.4806  0.2135  0.6029
13528TIP3   OH262074   0.847   3.769  16.775 -0.5564  0.2360 -0.0201
13528TIP3    H162075   0.838   3.839  16.840  1.4087  1.3439 -0.8582
13528TIP3    H262076   0.872   3.692  16.826 -1.0851  0.5575  0.7457
13529TIP3   OH262077   4.981   1.611  16.046 -0.1724 -0.2935 -0.2331
13529TIP3    H162078   5.005   1.664  16.122 -0.8804 -0.8396  0.3870
13529TIP3    H262079   5.055   1.619  15.986  0.9935 -0.9379  1.0755
13530TIP3   OH262080   4.934   2.016  12.400 -0.0686  0.2395  0.6389
13530TIP3    H162081   4.919   1.939  12.455 -2.7546 -0.2010 -0.5862
13530TIP3    H262082   4.893   1.995  12.316  1.8819  1.8142 -0.8098
13531TIP3   OH262083   6.608   5.475  13.210  0.7231  0.1109 -0.2087
13531TIP3    H162084   6.661   5.396  13.220  0.2871 -0.0783  0.6304
13531TIP3    H262085   6.665   5.535  13.162  1.2595 -0.5137 -0.3777
13532TIP3   OH262086   2.056   3.674   0.091 -0.1692 -0.0940 -0.1522
13532TIP3    H162087   2.019   3.638   0.172  0.3187  0.2790  0.2432
13532TIP3    H262088   2.089   3.760   0.116  0.8468 -0.3566 -0.5081
13533TIP3   OH262089   4.876   0.306  13.295 -0.0093  0.3173  0.2586
13533TIP3    H162090   4.870   0.347  13.208 -0.6410  0.2919  0.2908
13533TIP3    H262091   4.903   0.216  13.276  2.0274  0.8879  0.2254
13534TIP3   OH262092   2.646   4.000  15.904 -0.2679  0.3268  0.4249
13534TIP3    H162093   2.647   4.096  15.897  1.2933  0.3288  0.1948
13534TIP3    H262094   2.710   3.981  15.973  0.2144 -0.5820 -0.2492
13535TIP3   OH262095   1.194   1.686  12.629  0.3579  0.4245  0.7562
13535TIP3    H162096   1.102   1.710  12.619  0.8234  1.4178 -2.2972
13535TIP3    H262097   1.204   1.609  12.573  1.3675  0.2663  1.1320
13536TIP3   OH262098   3.520   3.145   2.381 -0.5021  0.4440 -0.1604
13536TIP3    H162099   3.522   3.214   2.315  0.9592 -0.8542 -1.5427
13536TIP3    H262100   3.576   3.076   2.346 -1.3734 -1.1850  1.4759
13537TIP3   OH262101   6.834   6.807  15.779 -0.1674  0.4125 -0.4467
13537TIP3    H162102   6.894   6.792  15.706  0.5436  0.0436  0.1989
13537TIP3    H262103   6.789   6.888  15.757 -0.7524 -0.2566 -1.8173
13538TIP3   OH262104   4.949   5.642   0.123 -0.0939 -0.0043  0.4399
13538TIP3    H162105   4.857   5.648   0.097  0.3723  2.5105 -0.8983
13538TIP3    H262106   4.997   5.644   0.040  1.2040 -1.8802  1.0791
13539TIP3   OH262107   4.761   4.074  11.481 -0.2455 -0.4817 -0.0455
13539TIP3    H162108   4.791   3.994  11.438 -2.4586 -1.3498 -0.0944
13539TIP3    H262109   4.787   4.065  11.572 -0.6388 -1.3663 -0.0154
13540TIP3   OH262110   0.296   0.241  11.897 -0.4212  0.0542 -0.6779
13540TIP3    H162111   0.237   0.313  11.919 -0.9659 -0.2761 -1.0190
13540TIP3    H262112   0.250   0.194  11.827 -0.0879 -0.6354 -0.4367
13541TIP3   OH262113   5.592   1.865  14.964 -0.5855 -0.1475 -0.3967
13541TIP3    H162114   5.651   1.907  15.026  0.6960 -0.3559 -1.4215
13541TIP3    H262115   5.505   1.873  15.003  0.0984  0.3228  1.0741
13542TIP3   OH262116   6.125   2.508  11.441 -0.1096 -0.5898 -0.1344
13542TIP3    H162117   6.164   2.477  11.523  1.1249 -1.4839 -1.0183
13542TIP3    H262118   6.081   2.431  11.405  1.2376 -0.8547 -1.3449
13543TIP3   OH262119   0.784   2.373  16.164  0.0492  0.2912  0.0210
13543TIP3    H162120   0.726   2.307  16.202  1.6684 -1.1705  0.0810
13543TIP3    H262121   0.814   2.333  16.082  1.0432  0.9635  0.0501
13544TIP3   OH262122   1.090   3.974  16.122 -0.1681  0.0001 -0.3775
13544TIP3    H162123   1.119   3.975  16.031 -1.8976 -0.8930 -0.9805
13544TIP3    H262124   1.138   3.901  16.161  0.8265  0.5897 -0.4553
13545TIP3   OH262125   5.923   0.391   2.393  0.2281 -0.5066  0.7732
13545TIP3    H162126   5.936   0.350   2.307 -1.4647 -2.2315  1.2740
13545TIP3    H262127   5.835   0.365   2.418  0.2144  1.0502  2.4926
13546TIP3   OH262128   4.637   1.662   2.676  0.1172 -0.2148 -0.1104
13546TIP3    H162129   4.699   1.634   2.609  0.8452 -1.4852  1.0477
13546TIP3    H262130   4.675   1.742   2.712  0.9485 -0.8249  0.3913
13547TIP3   OH262131   1.676   5.325   2.798 -0.1340 -0.1342 -0.1026
13547TIP3    H162132   1.722   5.254   2.843  0.1009 -0.0515 -0.2087
13547TIP3    H262133   1.720   5.332   2.714  0.4996  0.7959  0.2850
13548TIP3   OH262134   3.817   2.439   3.897  0.3342 -0.0754  0.3223
13548TIP3    H162135   3.899   2.395   3.918  0.8547  0.5539 -0.3419
13548TIP3    H262136   3.788   2.478   3.979  0.6816 -0.3226  0.5628
13549TIP3   OH262137   2.824   0.962  11.307  0.2321  0.4200  0.2875
13549TIP3    H162138   2.746   1.000  11.266  0.2961  1.2031  0.8783
13549TIP3    H262139   2.894   0.977  11.244  0.0761  0.4708  0.1248
13550TIP3   OH262140   5.679   6.631   3.036 -0.1374  0.1521  0.4327
13550TIP3    H162141   5.614   6.563   3.054  0.0143 -0.7067 -1.8930
13550TIP3    H262142   5.639   6.712   3.069 -2.6357 -0.2702 -1.2736
13551TIP3   OH262143   6.426   3.347   2.819 -0.0863 -0.4675  0.3309
13551TIP3    H162144   6.514   3.336   2.784  0.2086 -1.3031  1.2818
13551TIP3    H262145   6.437   3.404   2.895 -0.6455  0.9082 -0.5780
13552TIP3   OH262146   6.634   3.973   4.279 -0.1096 -0.0463  0.2186
13552TIP3    H162147   6.637   3.985   4.374  0.4240  0.2422  0.1706
13552TIP3    H262148   6.656   4.060   4.244  0.0769 -0.2450 -0.1629
13553TIP3   OH262149   3.288   3.453   2.538  0.1226  0.1158 -0.2795
13553TIP3    H162150   3.322   3.371   2.575  0.5554  0.6890  0.6150
13553TIP3    H262151   3.198   3.458   2.568  0.1519  0.0630 -0.1837
13554TIP3   OH262152   1.324   4.795   3.248  0.3296  0.4388  0.5007
13554TIP3    H162153   1.271   4.873   3.228 -0.2283 -0.2651 -0.8474
13554TIP3    H262154   1.390   4.827   3.310 -1.3798  1.4373  1.8916
13555TIP3   OH262155   2.241   3.919  13.631  0.0727 -0.4102  0.0395
13555TIP3    H162156   2.242   3.825  13.609 -0.7933 -0.3308 -0.4026
13555TIP3    H262157   2.322   3.953  13.594  0.3195 -0.9635  0.0668
13556TIP3   OH262158   5.329   4.660  13.788 -0.0466 -0.2074  0.0310
13556TIP3    H162159   5.385   4.654  13.865  0.6440 -0.2238 -0.4590
13556TIP3    H262160   5.387   4.694  13.719 -0.7773  0.2908 -0.3522
13557TIP3   OH262161   2.243   2.351   0.656  0.0953 -0.5311 -0.3498
13557TIP3    H162162   2.333   2.366   0.682 -0.4973  1.2269  0.8511
13557TIP3    H262163   2.240   2.373   0.563  0.2395  2.9521  0.3360
13558TIP3   OH262164   2.754   1.265  15.459  0.2604  0.1293 -0.0886
13558TIP3    H162165   2.787   1.340  15.510 -2.0726 -0.4133  2.4774
13558TIP3    H262166   2.813   1.193  15.483  0.9157  0.5395 -0.4547
13559TIP3   OH262167   2.094   2.742  16.603  0.0469  1.1393  0.7828
13559TIP3    H162168   2.044   2.685  16.661  0.2818 -0.9903 -0.9650
13559TIP3    H262169   2.039   2.820  16.593 -1.6294  0.0468  1.1004
13560TIP3   OH262170   5.753   0.276  10.169 -0.2016  0.0240  0.0147
13560TIP3    H162171   5.722   0.216  10.101  1.5317 -0.9683  0.0426
13560TIP3    H262172   5.682   0.277  10.234 -1.4379  0.1942 -1.2970
13561TIP3   OH262173   3.179   1.785   0.628  0.0033  0.2265 -0.4268
13561TIP3    H162174   3.141   1.707   0.669 -0.4552  1.7566  2.2526
13561TIP3    H262175   3.198   1.757   0.538 -4.3384 -1.6301 -1.0256
13562TIP3   OH262176   2.178   4.130   9.998  0.8099 -0.3486  0.1981
13562TIP3    H162177   2.160   4.207  10.053  0.7249  0.0029 -0.3222
13562TIP3    H262178   2.258   4.092  10.036  1.0908  0.2385  0.2015
13563TIP3   OH262179   6.197   0.671   3.697 -0.0332 -0.1019 -0.2622
13563TIP3    H162180   6.203   0.654   3.602 -0.6561 -0.8412 -0.1810
13563TIP3    H262181   6.133   0.741   3.705 -0.1897 -0.2298 -0.3771
13564TIP3   OH262182   6.192   6.674  15.747  0.2197  0.3283  0.5312
13564TIP3    H162183   6.232   6.587  15.744  2.3292  1.2471 -0.3503
13564TIP3    H262184   6.110   6.665  15.699 -0.1002 -1.3701  1.3204
13565TIP3   OH262185   6.629   1.694  12.201 -0.1099 -0.3369  0.3021
13565TIP3    H162186   6.669   1.613  12.234 -0.7409 -1.4370 -1.4630
13565TIP3    H262187   6.688   1.763  12.231  0.4010 -1.4245  1.9482
13566TIP3   OH262188   2.481   5.352  11.462 -0.4969  0.2922 -0.2772
13566TIP3    H162189   2.465   5.441  11.430  1.0182  0.5085 -0.5124
13566TIP3    H262190   2.399   5.326  11.504 -1.9964  0.6607 -2.7962
13567TIP3   OH262191   1.613   2.280   1.588 -0.6190 -0.5813 -0.0891
13567TIP3    H162192   1.679   2.340   1.553 -0.0693 -0.7789  0.5831
13567TIP3    H262193   1.537   2.335   1.606 -0.9699 -0.4979 -1.7008
13568TIP3   OH262194   2.426   3.817   0.544  0.2263  0.4535 -0.1572
13568TIP3    H162195   2.476   3.806   0.463  0.7673 -1.5443  0.3982
13568TIP3    H262196   2.432   3.732   0.589  0.3493  1.6262  2.2197
13569TIP3   OH262197   0.768   5.189  10.540  0.0554 -0.1221  0.5481
13569TIP3    H162198   0.752   5.151  10.454  0.7378  0.4359  0.1575
13569TIP3    H262199   0.738   5.123  10.602 -1.8206  0.0625 -0.0991
13570TIP3   OH262200   3.744   6.572   4.965 -0.8231 -0.2165  0.6373
13570TIP3    H162201   3.793   6.490   4.966 -0.3208  0.0624  2.2922
13570TIP3    H262202   3.658   6.549   5.000 -0.7670 -0.0810  0.8641
13571TIP3   OH262203   5.325   2.180   4.724 -0.5677  0.1597  0.2117
13571TIP3    H162204   5.269   2.111   4.760 -0.4229 -0.2342 -0.3046
13571TIP3    H262205   5.363   2.222   4.801 -2.3716  1.1329  0.6266
13572TIP3   OH262206   0.066   6.263  14.762  0.2000 -0.5664  0.3600
13572TIP3    H162207   0.091   6.171  14.763  1.4901 -0.2364  1.4502
13572TIP3    H262208   0.140   6.308  14.721 -0.1632  0.0601  0.3658
13573TIP3   OH262209   6.685   3.847   2.379 -0.3294 -0.4865 -0.2843
13573TIP3    H162210   6.759   3.788   2.364 -0.8167 -0.9063 -1.1452
13573TIP3    H262211   6.706   3.925   2.327  0.4938  0.2993  1.1484
13574TIP3   OH262212   1.539   3.681  16.085 -0.1945  0.4198 -0.3954
13574TIP3    H162213   1.516   3.738  16.158 -0.8062 -0.3736  0.0558
13574TIP3    H262214   1.467   3.692  16.023 -0.4486 -0.0277 -0.1923
13575TIP3   OH262215   0.599   1.957  15.391  0.2778  0.2565 -0.2553
13575TIP3    H162216   0.648   1.892  15.442  0.2547  1.7795  1.8580
13575TIP3    H262217   0.650   2.037  15.400 -2.4202  1.9131  2.0041
13576TIP3   OH262218   4.464   0.434  13.623 -0.5067  0.2474  0.4300
13576TIP3    H162219   4.455   0.408  13.531  1.0672 -2.4575  0.9249
13576TIP3    H262220   4.472   0.351  13.670  0.1534  1.5973  2.8451
13577TIP3   OH262221   4.362   1.460   5.267  0.2588  0.0264 -0.2471
13577TIP3    H162222   4.369   1.537   5.324  0.9950 -0.3289  0.1694
13577TIP3    H262223   4.447   1.416   5.278  0.4792  0.0382 -1.7686
13578TIP3   OH262224   3.367   0.092   5.754  0.1079  0.0665  0.2447
13578TIP3    H162225   3.276   0.120   5.756  0.3349  1.0070 -1.0060
13578TIP3    H262226   3.416   0.165   5.791  0.4874  0.3033 -0.6851
13579TIP3   OH262227   5.542   4.345  14.196  0.6016 -0.6126 -0.3574
13579TIP3    H162228   5.609   4.310  14.138  0.6122 -1.1546 -0.0190
13579TIP3    H262229   5.589   4.404  14.255  0.8308 -1.2213  0.0719
13580TIP3   OH262230   6.540   4.610  16.587  0.2209 -0.2834  0.2866
13580TIP3    H162231   6.449   4.600  16.559 -0.8118  0.2335  3.1403
13580TIP3    H262232   6.590   4.554  16.528 -1.9209 -0.5101 -1.4100
13581TIP3   OH262233   2.445   1.734   2.297 -0.1035 -0.2960 -0.3008
13581TIP3    H162234   2.469   1.703   2.210 -0.4825  1.3564 -1.0357
13581TIP3    H262235   2.378   1.800   2.281  0.3545  0.5768  1.1952
13582TIP3   OH262236   0.472   4.571  13.859 -0.1027  0.4399 -0.3098
13582TIP3    H162237   0.397   4.565  13.801 -0.2125 -1.5911 -0.0346
13582TIP3    H262238   0.482   4.665  13.876 -2.1850  0.8120 -0.8403
13583TIP3   OH262239   1.529   3.757  11.274  0.5272  0.4480 -0.3257
13583TIP3    H162240   1.606   3.791  11.319  0.3939  0.4698 -0.1099
13583TIP3    H262241   1.465   3.828  11.279 -0.2589 -0.3336  1.4059
13584TIP3   OH262242   2.131   5.331   0.842 -0.0000  0.3313  0.2179
13584TIP3    H162243   2.200   5.382   0.885  0.7315 -0.8103  0.4515
13584TIP3    H262244   2.173   5.296   0.764  0.1228 -1.4636  1.0441
13585TIP3   OH262245   6.643   0.231   2.460 -0.0719  0.2106 -0.1875
13585TIP3    H162246   6.601   0.172   2.397 -1.3810  0.4193  0.4477
13585TIP3    H262247   6.707   0.280   2.408 -0.3245 -0.4095 -1.1154
13586TIP3   OH262248   6.643   1.482   5.377  0.1476 -0.4100 -0.2848
13586TIP3    H162249   6.630   1.573   5.403  1.9076 -0.4068  0.7471
13586TIP3    H262250   6.587   1.432   5.436 -1.2070  0.0004 -1.1808
13587TIP3   OH262251   4.625   5.716  15.401 -0.4980 -0.4105 -0.5038
13587TIP3    H162252   4.709   5.757  15.381 -1.2195  1.1065 -0.6257
13587TIP3    H262253   4.595   5.762  15.480 -1.0795 -1.1385 -0.2900
13588TIP3   OH262254   1.074   2.800  16.381  0.2417 -0.4302 -0.7636
13588TIP3    H162255   1.019   2.876  16.362 -2.3638 -1.7122  1.1501
13588TIP3    H262256   1.028   2.726  16.341 -1.0323 -1.9354  3.0914
13589TIP3   OH262257   4.864   3.883   0.555 -0.0761  0.1590  0.1981
13589TIP3    H162258   4.843   3.947   0.487 -0.2729 -0.8869 -0.7587
13589TIP3    H262259   4.943   3.917   0.597 -0.1692  1.0158 -0.3020
13590TIP3   OH262260   6.114   5.221  10.727 -0.4094  0.5492 -0.5039
13590TIP3    H162261   6.103   5.152  10.791 -1.0663  2.2092  1.2498
13590TIP3    H262262   6.029   5.229  10.684 -0.5323  0.7255 -0.2268
13591TIP3   OH262263   4.448   3.261   3.290 -0.3013  0.5188  0.3009
13591TIP3    H162264   4.353   3.258   3.303 -0.2139  0.5271  1.0209
13591TIP3    H262265   4.461   3.240   3.198 -0.8783 -1.5552  0.6550
13592TIP3   OH262266   1.047   5.250  10.520  0.5002 -0.1141 -0.1860
13592TIP3    H162267   1.037   5.345  10.525  0.4968 -0.1875  2.6911
13592TIP3    H262268   0.958   5.215  10.531  0.6810 -0.4635  0.2080
13593TIP3   OH262269   3.462   6.558   1.093  1.1487  0.2403  0.1010
13593TIP3    H162270   3.524   6.488   1.115 -0.5464 -1.0086  1.1849
13593TIP3    H262271   3.378   6.513   1.084  0.4733  1.7782 -1.9446
13594TIP3   OH262272   6.084   4.971  12.932 -0.3614 -0.0380 -0.4999
13594TIP3    H162273   6.071   5.037  13.000 -1.7004 -1.7707  1.0322
13594TIP3    H262274   6.139   5.014  12.867 -1.5550  2.7222  0.1821
13595TIP3   OH262275   1.901   1.862   5.082 -0.8711  0.4701 -0.8036
13595TIP3    H162276   1.962   1.795   5.115  0.3355  0.6151 -2.5862
13595TIP3    H262277   1.936   1.885   4.996 -1.6254  2.9321 -0.5174
13596TIP3   OH262278   0.944   4.508  14.970 -0.6700 -0.2658 -0.2133
13596TIP3    H162279   0.997   4.566  15.024  1.6932 -2.2241 -0.2804
13596TIP3    H262280   1.007   4.456  14.920 -2.6256 -2.8311 -0.2336
13597TIP3   OH262281   2.015   4.299  15.002 -0.3190 -0.1519 -0.1932
13597TIP3    H162282   2.094   4.251  15.026 -0.7624 -0.5127  0.5607
13597TIP3    H262283   2.003   4.280  14.909  0.9326  0.5659 -0.5273
13598TIP3   OH262284   2.821   6.520   3.959 -0.6895 -0.1380  0.3855
13598TIP3    H162285   2.785   6.488   3.875 -0.8485 -0.6342  0.6377
13598TIP3    H262286   2.914   6.534   3.941 -1.1847  2.3669 -0.6365
13599TIP3   OH262287   5.369   2.228  14.967 -0.1612  0.0961  0.0449
13599TIP3    H162288   5.365   2.200  14.875  2.3825  0.1647 -0.1568
13599TIP3    H262289   5.451   2.277  14.973 -0.5497  0.5543  2.2522
13600TIP3   OH262290   3.350   2.541  13.037  0.0261  0.1176 -0.5743
13600TIP3    H162291   3.385   2.475  13.096 -0.3754  0.4374  0.0217
13600TIP3    H262292   3.411   2.541  12.963 -1.3349 -2.7614 -1.8435
13601TIP3   OH262293   3.480   4.445  14.055 -0.0544 -0.1635  0.0651
13601TIP3    H162294   3.411   4.506  14.030  0.5224  0.8953  0.9828
13601TIP3    H262295   3.433   4.365  14.081 -1.1487  1.1918  2.6161
13602TIP3   OH262296   4.909   2.874  14.531 -0.8269  0.1713  0.1976
13602TIP3    H162297   4.868   2.843  14.612 -1.2776 -1.0519 -0.4627
13602TIP3    H262298   4.991   2.825  14.526  0.0872  1.5911  0.8114
13603TIP3   OH262299   3.242   6.127   1.752  0.5882 -0.4977  0.2214
13603TIP3    H162300   3.311   6.117   1.818  1.2562  1.3736 -0.1492
13603TIP3    H262301   3.210   6.216   1.764 -1.1985 -1.0333 -0.2029
13604TIP3   OH262302   3.301   6.221   2.379  0.3135 -0.0878  0.0116
13604TIP3    H162303   3.350   6.172   2.444  0.5373 -0.2652 -0.2904
13604TIP3    H262304   3.308   6.169   2.298 -1.4190 -0.7956  0.2541
13605TIP3   OH262305   5.263   0.912  13.436  0.1683 -0.6232  0.5330
13605TIP3    H162306   5.284   0.866  13.355  0.7943 -0.3143  0.5122
13605TIP3    H262307   5.299   1.000  13.424 -0.8839 -0.1606  0.6346
13606TIP3   OH262308   4.282   1.784   2.991  0.5911  0.3881 -0.1831
13606TIP3    H162309   4.244   1.766   3.077  1.5243  0.9707  0.3631
13606TIP3    H262310   4.343   1.712   2.976  0.9833  0.6903 -0.0259
13607TIP3   OH262311   5.417   1.658   3.902  0.0543 -0.0839  0.1033
13607TIP3    H162312   5.456   1.600   3.837 -0.4880  1.0670 -1.3052
13607TIP3    H262313   5.446   1.624   3.986  0.2432 -2.0187 -0.7032
13608TIP3   OH262314   4.328   6.115   1.218  0.0564 -0.2903  0.1940
13608TIP3    H162315   4.290   6.094   1.303  0.4760  0.7009  0.6367
13608TIP3    H262316   4.368   6.033   1.188 -0.3099 -0.7039  0.8364
13609TIP3   OH262317   4.063   5.623  15.018 -0.0910 -0.0047 -0.4298
13609TIP3    H162318   4.058   5.705  14.968  1.7694 -0.2593 -1.1179
13609TIP3    H262319   4.005   5.563  14.970 -1.0619  0.7265 -0.2167
13610TIP3   OH262320   4.745   3.254   2.457  0.0769  0.0155 -1.1161
13610TIP3    H162321   4.736   3.318   2.527  1.6528 -2.0203  1.1124
13610TIP3    H262322   4.666   3.200   2.463  0.6430 -0.7378 -0.2264
13611TIP3   OH262323   3.015   3.299   1.709  0.4903  0.2527  0.2457
13611TIP3    H162324   3.066   3.315   1.630 -0.6586 -0.3560 -0.6471
13611TIP3    H262325   2.960   3.224   1.688 -0.2517  0.4329  1.4269
13612TIP3   OH262326   4.226   1.566  16.542 -0.3710  0.2852  0.3768
13612TIP3    H162327   4.157   1.547  16.478  0.2706 -0.9470  0.0165
13612TIP3    H262328   4.215   1.659  16.562 -1.3657  0.3999 -0.5874
13613TIP3   OH262329   3.776   4.932   3.440  0.0030 -0.0440 -0.0487
13613TIP3    H162330   3.818   4.883   3.369  0.8676 -0.9422  1.0354
13613TIP3    H262331   3.710   4.872   3.475 -0.0476  0.1835  0.2500
13614TIP3   OH262332   6.084   0.380   5.471 -0.0372  0.1102  0.1802
13614TIP3    H162333   6.118   0.330   5.396  0.5508 -0.2804  0.6974
13614TIP3    H262334   6.163   0.409   5.518 -0.4049  0.0586  0.8374
13615TIP3   OH262335   4.096   5.618   1.120  0.2769 -0.0430 -0.0460
13615TIP3    H162336   4.077   5.616   1.214 -1.2973  0.4441 -0.3147
13615TIP3    H262337   4.106   5.711   1.099 -1.2181  0.0140 -0.6522
13616TIP3   OH262338   3.672   3.968  14.467  0.7267 -0.1587 -0.3631
13616TIP3    H162339   3.610   3.985  14.538  1.8433  2.1073  0.1660
13616TIP3    H262340   3.627   3.907  14.409 -1.0294 -0.4387  1.2250
13617TIP3   OH262341   1.660   3.377  14.297 -0.5512 -0.0042  0.1727
13617TIP3    H162342   1.713   3.307  14.260  1.4277  0.8833  1.1817
13617TIP3    H262343   1.682   3.454  14.244 -0.7021  0.4167  0.7065
13618TIP3   OH262344   2.024   1.666   0.174  0.2510  0.1252 -0.2978
13618TIP3    H162345   1.946   1.722   0.179  0.5188  0.4750 -0.1043
13618TIP3    H262346   2.040   1.658   0.080 -0.6326 -0.7981 -0.3945
13619TIP3   OH262347   2.691   3.979  16.591 -0.1182  0.0289  0.0851
13619TIP3    H162348   2.614   4.021  16.552 -0.7255 -1.5505 -0.5402
13619TIP3    H262349   2.655   3.902  16.636  1.1410 -1.0062 -0.6282
13620TIP3   OH262350   6.768   1.338   2.927 -0.0767  0.0875  0.4580
13620TIP3    H162351   6.743   1.424   2.961  0.2024  0.1000  0.6337
13620TIP3    H262352   6.748   1.277   2.998 -0.2780  0.0043  0.3324
13621TIP3   OH262353   4.710   3.293  13.229 -0.1145  0.4005  0.0655
13621TIP3    H162354   4.737   3.202  13.214 -0.3069  0.2133  0.8267
13621TIP3    H262355   4.671   3.320  13.146 -2.4357 -1.0552  0.6131
13622TIP3   OH262356   1.274   5.762  15.674 -0.0863  0.0277 -0.6981
13622TIP3    H162357   1.284   5.835  15.735 -2.2933  0.0085 -0.2488
13622TIP3    H262358   1.287   5.683  15.727 -3.1429 -0.0369  0.1387
13623TIP3   OH262359   5.189   4.808  16.637 -0.0278  0.2967  0.2580
13623TIP3    H162360   5.229   4.811  16.550  0.3969  0.7252  0.4663
13623TIP3    H262361   5.258   4.774  16.694 -0.3763 -0.1977  0.3921
13624TIP3   OH262362   5.819   1.823  12.330  0.0533 -0.5207 -0.1526
13624TIP3    H162363   5.903   1.866  12.346 -0.9273  1.3424  0.3803
13624TIP3    H262364   5.832   1.776  12.248  1.7639 -0.7260  0.1969
13625TIP3   OH262365   6.826   3.489   3.978  0.3315 -0.0967  0.0604
13625TIP3    H162366   6.898   3.547   3.954 -0.8621  0.4427 -2.5611
13625TIP3    H262367   6.855   3.402   3.951 -0.5598  0.3573 -2.7090
13626TIP3   OH262368   5.874   4.448  14.373  0.0104 -1.0742 -0.3012
13626TIP3    H162369   5.872   4.414  14.284  1.0416 -0.9075 -0.4081
13626TIP3    H262370   5.966   4.474  14.387 -0.4714  0.5284  0.1930
13627TIP3   OH262371   4.466   1.472   5.910 -0.6204  0.2380 -0.6316
13627TIP3    H162372   4.547   1.514   5.938 -0.5161  0.6108 -1.4579
13627TIP3    H262373   4.415   1.461   5.990  0.3216 -0.1732 -0.0773
13628TIP3   OH262374   2.364   0.698   0.234  0.2169  0.3440 -0.0040
13628TIP3    H162375   2.328   0.775   0.277 -1.1541  1.2585 -2.5670
13628TIP3    H262376   2.294   0.667   0.177  1.6681 -1.1614 -1.0843
13629TIP3   OH262377   3.741   1.193  12.988  0.1778 -0.0144  0.1370
13629TIP3    H162378   3.721   1.101  13.002  0.8121 -0.4287 -1.3856
13629TIP3    H262379   3.659   1.231  12.956  0.3422 -0.4792 -0.9061
13630TIP3   OH262380   0.480   2.214  17.049 -0.0592 -0.2442 -0.2622
13630TIP3    H162381   0.540   2.262  16.992  1.9697 -3.4342 -1.0368
13630TIP3    H262382   0.518   2.127  17.057 -2.0352 -0.9862  3.3200
13631TIP3   OH262383   1.407   1.073   4.064 -0.3423  0.2417 -0.2618
13631TIP3    H162384   1.494   1.035   4.073 -0.9528 -0.9783  0.8332
13631TIP3    H262385   1.347   1.002   4.087 -1.6597  0.9023 -1.4703
13632TIP3   OH262386   1.941   5.319  15.499  0.1937  0.3942  0.2807
13632TIP3    H162387   1.943   5.414  15.488  1.2643  0.4576  0.8877
13632TIP3    H262388   1.848   5.296  15.493 -0.0170  1.4000 -0.4464
13633TIP3   OH262389   1.287   6.534  16.838 -0.5162 -0.3098 -0.0104
13633TIP3    H162390   1.275   6.627  16.821 -1.0928 -0.5072 -0.7485
13633TIP3    H262391   1.266   6.491  16.754  0.8876 -1.0276 -0.0246
13634TIP3   OH262392   3.447   5.673  15.580  0.1694  0.2923 -0.5380
13634TIP3    H162393   3.387   5.605  15.611 -0.6612  1.8486  1.4352
13634TIP3    H262394   3.409   5.755  15.609  2.1741  1.4994 -1.0864
13635TIP3   OH262395   1.283   2.150  14.227 -0.1458  0.1689 -0.1631
13635TIP3    H162396   1.190   2.131  14.220 -0.0918  0.1003 -0.7175
13635TIP3    H262397   1.295   2.230  14.176 -0.5109  2.2528  2.7520
13636TIP3   OH262398   3.976   0.993   0.264 -0.4181  0.5635 -0.8964
13636TIP3    H162399   4.020   0.909   0.252 -1.2037 -0.0168  0.1491
13636TIP3    H262400   3.938   0.988   0.351 -0.8476  1.8450 -0.9914
13637TIP3   OH262401   1.904   4.281  13.126 -0.6683  0.4382  0.2967
13637TIP3    H162402   1.813   4.262  13.106 -0.2380 -2.4176  0.7143
13637TIP3    H262403   1.908   4.287  13.221 -0.7780  3.0660  0.2158
13638TIP3   OH262404   2.497   3.885   5.459  0.4907 -0.9264  0.5777
13638TIP3    H162405   2.423   3.825   5.471  0.0057 -0.4490  0.0422
13638TIP3    H262406   2.540   3.888   5.545 -1.8906  1.1280  1.8203
13639TIP3   OH262407   0.619   5.610  14.165  0.5891  0.0663 -0.1487
13639TIP3    H162408   0.693   5.663  14.135  1.3394 -0.8755 -0.0018
13639TIP3    H262409   0.563   5.672  14.212  2.4095  0.4219  1.7162
13640TIP3   OH262410   0.407   4.770  14.911  0.4327  0.2449 -0.3316
13640TIP3    H162411   0.357   4.773  14.993  1.6331  0.1833  0.4239
13640TIP3    H262412   0.359   4.707  14.856 -1.2069  1.3826 -0.2616
13641TIP3   OH262413   3.482   4.691   6.120 -0.9264  0.1020  0.1950
13641TIP3    H162414   3.410   4.708   6.059 -0.8075 -1.9276 -0.5905
13641TIP3    H262415   3.555   4.666   6.064  0.2418  1.4854  1.0247
13642TIP3   OH262416   3.676   6.397   3.686  0.4279  0.3191  0.2252
13642TIP3    H162417   3.711   6.486   3.684 -1.3027  1.0261 -1.4209
13642TIP3    H262418   3.590   6.406   3.728  0.8644 -0.8608  1.4572
13643TIP3   OH262419   0.699   6.379  12.620 -0.4962 -0.5026  0.4223
13643TIP3    H162420   0.778   6.429  12.643  0.2006 -0.3060 -2.0250
13643TIP3    H262421   0.730   6.289  12.609 -0.5952 -0.4475 -0.4188
13644TIP3   OH262422   6.781   6.046  16.225 -0.3334  0.8513 -0.9813
13644TIP3    H162423   6.838   5.969  16.224 -0.8201  0.3898  1.3672
13644TIP3    H262424   6.712   6.026  16.162 -0.1485 -0.4049 -0.8065
13645TIP3   OH262425   0.291   0.387  10.924  0.3053 -0.3191  0.4664
13645TIP3    H162426   0.347   0.465  10.912  0.1639 -0.5176 -2.1702
13645TIP3    H262427   0.221   0.417  10.981  0.6982  1.2759  0.1834
13646TIP3   OH262428   0.034   2.563  10.336 -0.0076  0.1051  0.4087
13646TIP3    H162429   0.096   2.630  10.364  1.4535 -0.2738 -1.6815
13646TIP3    H262430   0.059   2.543  10.246 -3.7473  0.5389 -0.9105
13647TIP3   OH262431   3.018   2.595  11.533 -0.4703 -0.6142  0.3932
13647TIP3    H162432   3.111   2.575  11.544 -0.1783  0.7338  0.6226
13647TIP3    H262433   3.016   2.658  11.461 -1.0531  0.3441  1.2235
13648TIP3   OH262434   4.348   1.016  13.325 -0.1442 -0.1720 -0.3038
13648TIP3    H162435   4.411   1.088  13.327  0.3116 -0.5588 -0.5027
13648TIP3    H262436   4.280   1.046  13.266  0.4654 -0.2357 -1.0581
13649TIP3   OH262437   3.739   1.364  10.919 -0.0764  0.2192 -0.3479
13649TIP3    H162438   3.654   1.359  10.962  0.2191 -0.2292  0.2041
13649TIP3    H262439   3.762   1.457  10.919 -1.1253  0.5098 -1.6398
13650TIP3   OH262440   2.006   3.148  10.790 -0.4584 -0.2790  0.1562
13650TIP3    H162441   2.081   3.207  10.775 -0.5488 -0.1498  0.2073
13650TIP3    H262442   2.043   3.060  10.784 -0.6416 -0.2669 -1.6641
13651TIP3   OH262443   3.914   4.587   2.094 -0.7024  0.1928  0.8029
13651TIP3    H162444   3.841   4.644   2.071  1.3635  1.6998 -2.9381
13651TIP3    H262445   3.901   4.508   2.040  1.0442  1.1258 -1.1430
13652TIP3   OH262446   6.060   3.527  14.635  0.4499  0.0766  0.1902
13652TIP3    H162447   6.126   3.580  14.680  1.5307  0.6354 -1.9400
13652TIP3    H262448   6.004   3.590  14.590  0.0717 -0.5002 -0.1708
13653TIP3   OH262449   5.814   4.756  14.552 -0.1108 -0.1035 -0.0607
13653TIP3    H162450   5.870   4.703  14.610  0.5255  0.5263 -0.0938
13653TIP3    H262451   5.872   4.782  14.480 -0.3994  0.6931 -0.0101
13654TIP3   OH262452   4.122   3.034  14.124  0.3463  0.4419  0.0846
13654TIP3    H162453   4.158   2.953  14.159  2.1206  0.5491 -1.3799
13654TIP3    H262454   4.085   3.078  14.200  1.7345 -0.5140  1.3710
13655TIP3   OH262455   3.156   5.541  11.201 -0.2999 -0.3942  0.2917
13655TIP3    H162456   3.213   5.538  11.124 -0.9805 -2.9165 -0.2050
13655TIP3    H262457   3.073   5.575  11.167 -0.9568 -2.5524 -0.4385
13656TIP3   OH262458   1.838   1.725  13.254 -0.0483 -0.3553  0.4349
13656TIP3    H162459   1.763   1.764  13.209  0.5486 -1.2838 -1.4621
13656TIP3    H262460   1.860   1.789  13.322  0.6109  2.4654 -2.2140
13657TIP3   OH262461   4.582   0.222  16.626 -0.2633  0.3674  0.6737
13657TIP3    H162462   4.533   0.243  16.706  0.2051  1.0624  0.7890
13657TIP3    H262463   4.650   0.289  16.622  1.0389 -0.8918  0.8370
13658TIP3   OH262464   1.079   5.712  15.422 -0.6046 -0.7000 -0.3689
13658TIP3    H162465   1.092   5.681  15.512 -0.5821 -2.2014 -0.8556
13658TIP3    H262466   1.109   5.639  15.367 -0.5427  0.2208 -1.6004
13659TIP3   OH262467   4.803   6.639  13.865 -0.0694 -0.2688  0.4803
13659TIP3    H162468   4.886   6.604  13.834  0.0932 -1.0448  1.7183
13659TIP3    H262469   4.827   6.717  13.916  0.1419 -1.6386  2.5777
13660TIP3   OH262470   1.978   6.460   3.346  0.2756 -0.1528  0.1411
13660TIP3    H162471   1.907   6.408   3.383  1.6749 -0.7853  2.1185
13660TIP3    H262472   2.049   6.397   3.333  0.2529  0.2980 -2.5889
13661TIP3   OH262473   1.129   4.660  11.299 -0.0771 -0.1339 -0.1932
13661TIP3    H162474   1.072   4.586  11.276  1.5105 -1.5571  0.1821
13661TIP3    H262475   1.218   4.624  11.291  0.7109  1.4271  1.1145
13662TIP3   OH262476   2.903   3.356   2.888 -0.6608 -0.1581  0.2869
13662TIP3    H162477   2.893   3.369   2.983 -0.3823  1.6567  0.1127
13662TIP3    H262478   2.817   3.381   2.852 -0.8179 -0.9989  0.0588
13663TIP3   OH262479   3.051   6.404   3.268  0.3109  0.0303  0.1016
13663TIP3    H162480   3.074   6.460   3.342 -0.0326 -0.9566  0.9753
13663TIP3    H262481   3.101   6.440   3.195 -0.1548  1.6922  0.5367
13664TIP3   OH262482   3.819   1.578   0.004  0.3667 -0.2449  0.3196
13664TIP3    H162483   3.897   1.627  -0.022  0.1592  0.6438  1.2788
13664TIP3    H262484   3.852   1.492   0.028  0.6733 -0.8072 -1.9173
13665TIP3   OH262485   4.877   2.758  16.528  0.1588  1.1509 -0.0520
13665TIP3    H162486   4.931   2.699  16.476  0.4241  1.0697  0.3135
13665TIP3    H262487   4.873   2.839  16.477  0.4338  1.0791 -0.1895
13666TIP3   OH262488   3.828   3.549   4.408 -0.3020 -0.0754  0.3564
13666TIP3    H162489   3.758   3.551   4.342  0.7155  1.1413 -0.7325
13666TIP3    H262490   3.864   3.460   4.401 -0.2275  0.0209 -0.7176
13667TIP3   OH262491   1.984   0.458   6.484  0.2641 -0.0674  0.1109
13667TIP3    H162492   2.060   0.399   6.488  0.1598 -0.2850 -0.8877
13667TIP3    H262493   1.914   0.404   6.448 -0.4400  0.0827  1.1863
13668TIP3   OH262494   2.333   2.489   4.065  0.1436 -0.3996  0.0144
13668TIP3    H162495   2.414   2.538   4.082  0.0820 -0.9163  2.1079
13668TIP3    H262496   2.286   2.491   4.149 -1.5088 -1.0564 -0.8467
13669TIP3   OH262497   6.107   5.661  15.220  0.5916 -0.0892 -0.2811
13669TIP3    H162498   6.166   5.592  15.250 -0.3920  0.3096  3.0491
13669TIP3    H262499   6.059   5.687  15.299 -0.1298  3.3945 -1.6624
13670TIP3   OH262500   0.197   4.171   2.773  0.5292  0.2432  0.1624
13670TIP3    H162501   0.127   4.172   2.838  0.3913  0.6121  0.0090
13670TIP3    H262502   0.236   4.258   2.778  0.5172  0.2750 -0.2535
13671TIP3   OH262503   1.353   4.712  13.823  0.6267 -0.2178  0.6869
13671TIP3    H162504   1.307   4.679  13.900  0.1459  0.9005  0.8907
13671TIP3    H262505   1.329   4.650  13.753 -2.1621  0.9056  0.5025
13672TIP3   OH262506   6.312   0.286   2.950 -0.0246 -0.0659 -0.3242
13672TIP3    H162507   6.219   0.273   2.930  0.0159  0.0575 -0.5980
13672TIP3    H262508   6.331   0.374   2.917  0.0349  0.1534  0.2913
13673TIP3   OH262509   6.237   2.679   0.015  0.8608 -0.1488  1.1380
13673TIP3    H162510   6.269   2.768   0.032 -1.2747  1.0400 -0.5040
13673TIP3    H262511   6.160   2.671   0.072 -0.5324  0.1523 -0.6052
13674TIP3   OH262512   5.195   5.512   1.313 -0.0775 -0.1114  0.1908
13674TIP3    H162513   5.261   5.511   1.382  0.1846  1.0788 -0.0244
13674TIP3    H262514   5.154   5.599   1.320  0.1430  0.1399 -1.3284
13675TIP3   OH262515   0.616   4.772  14.220 -0.2939 -0.0120  0.1278
13675TIP3    H162516   0.556   4.819  14.277 -1.0442  0.4450 -0.9912
13675TIP3    H262517   0.588   4.680  14.225 -1.2026  0.2158 -0.4847
13676TIP3   OH262518   6.454   3.737  14.685  0.2200  0.0705 -0.2383
13676TIP3    H162519   6.477   3.784  14.605 -0.2838  1.8839  0.6072
13676TIP3    H262520   6.514   3.771  14.751  1.4500 -2.2852 -0.0306
13677TIP3   OH262521   6.402   4.333  11.816  0.1453  0.7539 -0.0780
13677TIP3    H162522   6.463   4.363  11.748 -0.1913 -3.6751 -2.7499
13677TIP3    H262523   6.321   4.381  11.798  1.0875  2.2509 -0.4707
13678TIP3   OH262524   1.398   6.749  16.221 -0.5936 -0.3301 -0.6384
13678TIP3    H162525   1.371   6.724  16.310 -1.7470 -0.1291 -0.9088
13678TIP3    H262526   1.366   6.678  16.166 -0.5036 -0.1107 -0.9710
13679TIP3   OH262527   4.265   4.346  15.987 -0.1473 -0.3543 -0.5825
13679TIP3    H162528   4.189   4.331  15.931 -0.7204 -0.1277  0.1230
13679TIP3    H262529   4.337   4.303  15.941 -1.1489 -2.6882 -0.1288
13680TIP3   OH262530   5.167   4.624   4.951  0.0812 -0.3675 -0.0948
13680TIP3    H162531   5.138   4.714   4.932 -1.4697 -0.7005  0.5230
13680TIP3    H262532   5.208   4.629   5.037 -0.3279 -0.3038  0.0994
13681TIP3   OH262533   1.525   3.035  11.305 -0.4860  0.4258 -0.3799
13681TIP3    H162534   1.556   3.102  11.244  0.3488  0.3202 -0.0825
13681TIP3    H262535   1.440   3.066  11.335 -0.3495  1.0770 -0.6659
13682TIP3   OH262536   3.864   6.217  11.250  0.8085  0.0962 -0.3343
13682TIP3    H162537   3.904   6.266  11.322  1.9494  0.2324 -1.0391
13682TIP3    H262538   3.892   6.262  11.171  0.4232 -0.6558 -0.9149
13683TIP3   OH262539   5.491   6.440   4.942 -0.2789  0.1664  0.1604
13683TIP3    H162540   5.577   6.441   4.900 -0.7220  1.1243 -0.7696
13683TIP3    H262541   5.438   6.498   4.889 -1.0767  0.8636  1.6452
13684TIP3   OH262542   0.559   3.631  13.111  0.4220  0.3780 -0.0903
13684TIP3    H162543   0.542   3.724  13.097 -0.6201  0.1928 -0.1016
13684TIP3    H262544   0.518   3.613  13.196  0.1672 -0.1858 -0.3336
13685TIP3   OH262545   3.106   4.970  13.659 -0.0920  0.2514 -0.0311
13685TIP3    H162546   3.082   4.954  13.568 -0.8554  3.6541 -0.5402
13685TIP3    H262547   3.155   5.052  13.657  1.6538 -0.5954  2.4513
13686TIP3   OH262548   6.828   1.030  16.597 -0.0804  0.1012  0.0437
13686TIP3    H162549   6.742   1.001  16.629  0.3854 -1.5244 -0.0644
13686TIP3    H262550   6.867   1.075  16.672  0.5540 -2.7131  1.5386
13687TIP3   OH262551   3.579   1.852  15.466  0.2132  0.3754 -0.2685
13687TIP3    H162552   3.639   1.910  15.514 -0.3474  0.0543  0.8580
13687TIP3    H262553   3.495   1.898  15.468 -0.1829 -0.3441  0.4337
13688TIP3   OH262554   5.855   0.807  13.446 -0.4014 -0.1659 -0.8630
13688TIP3    H162555   5.868   0.783  13.355  0.5160  1.1143 -1.0932
13688TIP3    H262556   5.795   0.881  13.443  0.0039  0.1870 -0.4697
13689TIP3   OH262557   0.871   4.429   3.870 -0.2510  0.3626  0.1884
13689TIP3    H162558   0.903   4.519   3.872 -0.9019  0.5898  0.7036
13689TIP3    H262559   0.791   4.433   3.818 -0.7572  0.2501  0.9426
13690TIP3   OH262560   4.150   2.446   4.649 -0.2367 -0.1346  0.1930
13690TIP3    H162561   4.117   2.533   4.671 -0.4608 -0.7271  2.4593
13690TIP3    H262562   4.245   2.453   4.663 -0.3939 -0.5463  1.6069
13691TIP3   OH262563   0.691   3.262   2.675  0.2215 -0.0884  0.8879
13691TIP3    H162564   0.707   3.183   2.623  0.1371  0.0272  0.6831
13691TIP3    H262565   0.777   3.285   2.711  0.1428 -0.5825  1.3978
13692TIP3   OH262566   3.263   2.372   3.182 -0.0749  0.2608  0.4526
13692TIP3    H162567   3.177   2.338   3.207  0.5680 -0.1251  2.3085
13692TIP3    H262568   3.262   2.371   3.087 -0.8257 -3.2411  0.3491
13693TIP3   OH262569   5.849   1.735   3.419 -0.3276  0.8122  0.3516
13693TIP3    H162570   5.758   1.739   3.447 -1.0708 -0.2869 -1.7072
13693TIP3    H262571   5.849   1.672   3.347  2.0860  0.7277  0.3438
13694TIP3   OH262572   1.708   1.602  14.723 -0.4535 -0.0479  0.6832
13694TIP3    H162573   1.801   1.618  14.736  0.4667 -3.7424 -0.1688
13694TIP3    H262574   1.665   1.639  14.800  2.1234 -1.0640  2.7476
13695TIP3   OH262575   0.010   6.002   0.614  0.5983 -0.3753  0.3175
13695TIP3    H162576   0.062   6.033   0.539  0.3773  0.2035  0.3957
13695TIP3    H262577  -0.006   5.910   0.595  2.2452 -0.7526  0.6288
13696TIP3   OH262578   3.817   0.516  12.781  0.4509  0.0048 -0.3034
13696TIP3    H162579   3.817   0.570  12.860  0.4047 -0.6974  0.1794
13696TIP3    H262580   3.891   0.457  12.792  0.4486 -0.0904 -0.7900
13697TIP3   OH262581   5.651   6.336   5.525  0.7199  0.1887  0.1790
13697TIP3    H162582   5.737   6.329   5.565 -0.0659 -3.5230  1.6568
13697TIP3    H262583   5.664   6.310   5.434  1.2722  0.4727  0.1739
13698TIP3   OH262584   5.553   3.592   3.944 -0.0005  0.8016  0.3002
13698TIP3    H162585   5.622   3.557   3.888 -1.7119  0.1269 -1.4739
13698TIP3    H262586   5.514   3.515   3.984 -0.2705  1.1285  0.6742
13699TIP3   OH262587   6.105   4.938   1.796 -0.4803  0.1053  0.3978
13699TIP3    H162588   6.192   4.899   1.805 -0.4223  0.2958  0.6805
13699TIP3    H262589   6.117   5.008   1.731 -0.5069 -0.1134  0.1548
13700TIP3   OH262590   3.536   1.620   5.025 -0.4526 -0.0384 -0.1536
13700TIP3    H162591   3.472   1.688   5.004 -0.1228  0.1637 -0.5166
13700TIP3    H262592   3.494   1.538   5.000 -0.6499  0.0778 -0.1985
13701TIP3   OH262593   0.016   1.977  13.923 -0.5041 -0.4453 -0.0759
13701TIP3    H162594  -0.014   1.885  13.927  0.7534 -0.8419  0.5166
13701TIP3    H262595   0.067   1.981  13.842  0.8349 -0.7207  0.7299
13702TIP3   OH262596   3.410   5.203  14.685 -0.5784  0.6365 -0.0052
13702TIP3    H162597   3.486   5.237  14.733 -0.3995 -0.3571  0.4258
13702TIP3    H262598   3.335   5.241  14.730 -0.3540  2.3085 -0.9453
13703TIP3   OH262599   4.606   1.315  12.147 -0.3230 -0.1166 -0.1729
13703TIP3    H162600   4.584   1.335  12.238  0.0466 -0.3577 -0.0328
13703TIP3    H262601   4.599   1.220  12.140 -0.3035 -0.1041 -0.3843
13704TIP3   OH262602   3.854   4.435  11.958  0.1902  0.4281 -0.1357
13704TIP3    H162603   3.818   4.494  12.024 -2.3449 -0.6714 -0.4408
13704TIP3    H262604   3.787   4.428  11.891  1.2047 -1.2806 -1.0655
13705TIP3   OH262605   5.433   3.443   2.535 -0.5755  0.2916  0.5223
13705TIP3    H162606   5.364   3.481   2.590 -0.8080 -0.9354  1.1178
13705TIP3    H262607   5.455   3.360   2.578 -0.1940 -0.3251 -0.8074
13706TIP3   OH262608   0.287   6.420  12.433 -0.2167 -0.1438  0.8559
13706TIP3    H162609   0.344   6.471  12.376  0.0595 -0.5062  0.7996
13706TIP3    H262610   0.272   6.338  12.385 -1.2228  0.1518  0.6282
13707TIP3   OH262611   0.580   6.640   1.703 -0.0999 -0.0822  0.2594
13707TIP3    H162612   0.511   6.621   1.639 -0.7389  2.8141 -0.0422
13707TIP3    H262613   0.659   6.601   1.665 -1.3825 -3.2198  0.4659
13708TIP3   OH262614   5.467   3.750  15.758 -0.1582 -0.1031  0.0004
13708TIP3    H162615   5.421   3.829  15.727 -0.5963  0.4708  1.9767
13708TIP3    H262616   5.529   3.783  15.824 -0.2266 -1.3929  0.7284
13709TIP3   OH262617   1.464   3.018  13.061 -0.3966 -0.6116  0.0637
13709TIP3    H162618   1.449   2.924  13.045  1.5184 -0.7096 -1.7350
13709TIP3    H262619   1.542   3.020  13.116  0.5323 -0.1240 -1.2066
13710TIP3   OH262620   4.515   6.498   6.200 -0.2873  0.3465  0.0942
13710TIP3    H162621   4.421   6.484   6.200 -0.4269  1.1109 -1.3879
13710TIP3    H262622   4.527   6.588   6.230 -0.0754  0.4544 -0.3027
13711TIP3   OH262623   2.011   6.587  16.798 -0.1931 -0.0010 -0.3929
13711TIP3    H162624   1.951   6.652  16.762 -0.4712  0.6020  1.0648
13711TIP3    H262625   2.098   6.626  16.789 -0.1812 -0.1857 -1.0810
13712TIP3   OH262626   4.583   5.865  16.632 -0.2375  0.2386 -0.1872
13712TIP3    H162627   4.567   5.950  16.591  0.5375  0.4872  0.0227
13712TIP3    H262628   4.508   5.812  16.606 -0.1263  0.6144 -1.3099
13713TIP3   OH262629   2.835   6.724  14.814 -0.1146  0.3399 -0.2382
13713TIP3    H162630   2.766   6.658  14.807  1.1251 -1.0706  0.3137
13713TIP3    H262631   2.828   6.758  14.903 -0.2285  0.3778 -0.2607
13714TIP3   OH262632   4.731   2.031   3.048 -0.7373 -0.5965 -0.1709
13714TIP3    H162633   4.690   2.041   3.134 -0.6569 -0.9057 -0.0948
13714TIP3    H262634   4.662   1.990   2.994 -0.6250 -0.8604 -0.1176
13715TIP3   OH262635   0.310   0.800  15.249 -0.1069  0.1299 -0.8486
13715TIP3    H162636   0.380   0.737  15.235 -1.0291 -1.7381  2.1296
13715TIP3    H262637   0.343   0.858  15.317 -1.6854 -1.4145  1.3693
13716TIP3   OH262638   2.884   0.871   4.135  0.6704  0.1236 -0.0178
13716TIP3    H162639   2.845   0.947   4.094 -0.1624 -1.3402 -2.1047
13716TIP3    H262640   2.966   0.857   4.087  0.7417 -0.3766  0.2416
13717TIP3   OH262641   5.331   3.797   5.067 -0.5587 -0.0879  0.4184
13717TIP3    H162642   5.359   3.885   5.094 -0.7676 -0.2282  1.1279
13717TIP3    H262643   5.284   3.811   4.985 -1.6690  0.6469  1.1411
13718TIP3   OH262644   3.639   1.488   0.334  0.0130  0.7749  0.4889
13718TIP3    H162645   3.606   1.556   0.274  1.0731 -0.3664 -1.4866
13718TIP3    H262646   3.663   1.536   0.413 -1.7986  2.2991  0.2072
13719TIP3   OH262647   6.638   1.325   2.574 -0.1891  0.0266 -0.3170
13719TIP3    H162648   6.713   1.274   2.605 -0.8661 -0.8663 -0.1167
13719TIP3    H262649   6.676   1.391   2.517  1.0063  1.0283  1.5314
13720TIP3   OH262650   2.060   1.517  13.606  0.2904  0.2212 -0.1734
13720TIP3    H162651   2.098   1.454  13.544 -1.8132 -1.3864  0.0625
13720TIP3    H262652   2.134   1.545  13.660  1.3043 -2.2719 -0.1415
13721TIP3   OH262653   2.963   3.366  11.739  0.2230 -0.2565 -0.0426
13721TIP3    H162654   2.948   3.275  11.713 -2.1565  0.4505 -1.4228
13721TIP3    H262655   3.001   3.407  11.662  0.7449  0.0851  0.3863
13722TIP3   OH262656   1.945   4.221  14.292 -0.0194 -0.3571 -0.7735
13722TIP3    H162657   1.903   4.174  14.364  0.0330  0.0953 -0.4409
13722TIP3    H262658   2.037   4.227  14.317 -0.6084  3.4066  1.2107
13723TIP3   OH262659   6.796   3.375  11.571  0.3776 -0.3998 -0.3802
13723TIP3    H162660   6.776   3.319  11.495  3.3616 -0.1685 -1.4674
13723TIP3    H262661   6.864   3.327  11.618  1.9252  1.5779 -0.4977
13724TIP3   OH262662   5.707   1.390   2.673 -0.6294 -0.3508  0.1314
13724TIP3    H162663   5.761   1.367   2.748 -1.1036  0.4969  0.7448
13724TIP3    H262664   5.769   1.416   2.605 -0.1352 -2.1485 -0.1718
13725TIP3   OH262665   2.309   2.455   0.902 -0.4685  0.1957  0.4668
13725TIP3    H162666   2.244   2.396   0.864  0.3430 -1.0685  0.9807
13725TIP3    H262667   2.262   2.537   0.915 -1.8145 -0.5241  0.3472
13726TIP3   OH262668   2.812   2.606  12.312  0.1029  1.0211 -0.0894
13726TIP3    H162669   2.877   2.612  12.382  0.0930  1.0603 -0.0834
13726TIP3    H262670   2.863   2.599  12.232  0.1137  0.8428 -0.0676
13727TIP3   OH262671   3.349   4.769  16.623 -0.3818  0.1627  0.1015
13727TIP3    H162672   3.284   4.767  16.552 -0.6367 -0.4863  0.3450
13727TIP3    H262673   3.431   4.793  16.579 -0.7762  0.9646 -0.2092
13728TIP3   OH262674   6.087   6.073  17.110  0.2301  0.1660 -0.0777
13728TIP3    H162675   6.029   6.096  17.183 -0.6580  1.5505 -1.1736
13728TIP3    H262676   6.035   6.014  17.056  0.4938  0.0003 -0.1511
13729TIP3   OH262677   3.124   1.253  13.721  0.8914  0.2488  0.3861
13729TIP3    H162678   3.077   1.302  13.653  0.3454 -0.0255  0.5605
13729TIP3    H262679   3.069   1.177  13.739  0.2140  1.1156  2.2561
13730TIP3   OH262680   0.534   1.139  11.128  0.0318 -0.0744  0.4713
13730TIP3    H162681   0.567   1.081  11.059 -0.8153 -0.3799  0.3061
13730TIP3    H262682   0.576   1.107  11.208  0.1848 -0.4133  0.2607
13731TIP3   OH262683   0.616   4.794  13.197  0.3414 -0.4613  0.0787
13731TIP3    H162684   0.574   4.739  13.131  0.8151 -0.8320  0.0823
13731TIP3    H262685   0.674   4.851  13.146 -1.4696  1.3065 -0.1156
13732TIP3   OH262686   5.364   3.321   6.554  0.1233  0.3421 -0.2196
13732TIP3    H162687   5.426   3.326   6.482  0.2979 -1.6686 -0.2574
13732TIP3    H262688   5.278   3.332   6.513  0.3198  1.4530 -0.3854
13733TIP3   OH262689   0.301   1.611   5.532 -0.2691  0.0623  0.2157
13733TIP3    H162690   0.305   1.518   5.555  0.1034  0.0091 -0.0734
13733TIP3    H262691   0.214   1.639   5.563  0.3072  0.0591  1.9871
13734TIP3   OH262692   1.563   5.639   3.187 -0.3242  0.5012  0.3776
13734TIP3    H162693   1.486   5.670   3.140 -0.9530 -0.0512  1.0106
13734TIP3    H262694   1.577   5.550   3.154  0.9587  1.1132 -0.8197
13735TIP3   OH262695   2.497   4.308   3.778  0.1169  0.2143 -0.7520
13735TIP3    H162696   2.541   4.392   3.786  3.7388 -1.4715 -0.9910
13735TIP3    H262697   2.477   4.283   3.869  1.1672  0.3419 -0.4712
13736TIP3   OH262698   0.808   3.404  11.902 -0.1671  0.3668 -0.6432
13736TIP3    H162699   0.786   3.313  11.922  1.7751 -0.6294 -2.6652
13736TIP3    H262700   0.821   3.445  11.987  1.5589 -1.9558  0.2994
13737TIP3   OH262701   1.456   6.669   2.786 -0.2520 -0.4117 -0.1348
13737TIP3    H162702   1.385   6.634   2.733 -0.3799  0.7111 -0.7266
13737TIP3    H262703   1.507   6.593   2.812 -0.1959 -0.9851 -1.8498
13738TIP3   OH262704   4.002   1.604  15.442 -0.4261 -0.5188  0.1200
13738TIP3    H162705   3.917   1.599  15.398 -0.7318 -0.1253  0.6534
13738TIP3    H262706   3.981   1.631  15.532  0.3059  0.0808  0.1200
13739TIP3   OH262707   3.478   2.950  14.005 -0.6242 -0.3797  0.0769
13739TIP3    H162708   3.419   3.025  14.008 -1.9517 -1.3733  2.4144
13739TIP3    H262709   3.453   2.898  14.082  3.9085 -0.4772  1.7868
13740TIP3   OH262710   1.843   0.429  12.108  0.6745  0.4257  0.3432
13740TIP3    H162711   1.914   0.486  12.079 -0.6935  0.6082 -3.1157
13740TIP3    H262712   1.763   0.481  12.094 -0.3030 -0.6204  1.7968
13741TIP3   OH262713   6.820   3.613   0.076 -0.3550 -0.4391  0.3832
13741TIP3    H162714   6.820   3.707   0.058 -1.1796 -0.2833  1.0980
13741TIP3    H262715   6.758   3.577   0.014 -0.8665 -0.3442  0.8293
13742TIP3   OH262716   1.470   6.288  16.228 -0.0689 -0.0111 -0.6300
13742TIP3    H162717   1.429   6.219  16.281 -1.2320  1.6385  0.7506
13742TIP3    H262718   1.527   6.241  16.167 -0.9928 -2.1868  0.0745
13743TIP3   OH262719   4.046   5.106   5.537 -0.9474  0.1639  0.2131
13743TIP3    H162720   3.977   5.127   5.601  0.3099  0.9797  1.3661
13743TIP3    H262721   4.127   5.131   5.581  0.1555 -1.3939 -0.8591
13744TIP3   OH262722   4.680   3.401  16.511  0.6551 -0.1116  0.4303
13744TIP3    H162723   4.623   3.464  16.555 -1.1183 -0.9034 -0.6358
13744TIP3    H262724   4.741   3.373  16.579 -1.8437 -1.1516  2.3935
13745TIP3   OH262725   2.043   5.416  12.511 -0.5892 -0.2243  0.2799
13745TIP3    H162726   1.977   5.448  12.450 -0.6506  0.2769  0.6044
13745TIP3    H262727   2.118   5.393  12.456 -0.4120  0.8271  0.0692
13746TIP3   OH262728   2.911   4.368  12.055 -0.2546 -0.5049  0.0802
13746TIP3    H162729   2.855   4.360  11.978  0.2772 -0.3921 -0.3262
13746TIP3    H262730   2.876   4.442  12.103  0.3652  0.4407 -0.8767
13747TIP3   OH262731   3.858   4.832  14.216  0.2506 -0.3583  0.7023
13747TIP3    H162732   3.770   4.796  14.208  0.4366 -0.5446 -0.7849
13747TIP3    H262733   3.914   4.755  14.229  0.2827 -0.2996  0.9249
13748TIP3   OH262734   3.536   3.858   5.180 -0.5220 -0.4923  0.2995
13748TIP3    H162735   3.481   3.802   5.125 -0.4441 -0.7560  0.4863
13748TIP3    H262736   3.481   3.877   5.257 -1.7463  2.2104 -1.0868
13749TIP3   OH262737   5.816   1.964   4.005  0.1431  0.5139  0.0234
13749TIP3    H162738   5.842   2.003   4.088  0.4220  1.5516 -0.5438
13749TIP3    H262739   5.738   1.912   4.027  0.5393  0.3260  1.0295
13750TIP3   OH262740   0.963   6.171   3.403  0.6344  0.2544  0.5586
13750TIP3    H162741   0.940   6.083   3.373  0.2426  0.5065  0.1015
13750TIP3    H262742   1.023   6.204   3.336  1.8329 -0.1497  1.4079
13751TIP3   OH262743   6.747   2.975   4.258 -0.5336  0.4038  0.7347
13751TIP3    H162744   6.742   3.070   4.245 -1.8591  0.1850 -0.5997
13751TIP3    H262745   6.661   2.943   4.232 -0.3372 -1.1155  1.8290
13752TIP3   OH262746   5.039   1.887   6.264  0.1256 -0.0140 -0.3546
13752TIP3    H162747   5.128   1.919   6.250 -0.3603  1.1928 -0.8600
13752TIP3    H262748   5.013   1.850   6.180 -0.2150  0.6158 -0.5359
13753TIP3   OH262749   5.722   2.994   6.391 -0.9054 -0.1737  0.1724
13753TIP3    H162750   5.683   2.980   6.304  0.1331 -2.5335  0.0070
13753TIP3    H262751   5.652   3.035   6.441 -1.2718  2.0434 -1.9608
13754TIP3   OH262752   0.709   0.316   0.074 -0.5581 -0.7830 -0.1356
13754TIP3    H162753   0.619   0.333   0.048 -0.2942 -1.1938 -1.4135
13754TIP3    H262754   0.709   0.224   0.102 -0.9682 -0.1845  2.0553
13755TIP3   OH262755   3.263   4.591  13.460  0.1577 -0.2567  0.1022
13755TIP3    H162756   3.238   4.643  13.537  0.5725 -1.5854  1.1681
13755TIP3    H262757   3.325   4.648  13.413  0.8205  0.1420  1.3875
13756TIP3   OH262758   3.627   4.409  11.795  0.5294  0.1599  0.1908
13756TIP3    H162759   3.577   4.444  11.868 -1.4248  0.7562 -1.3508
13756TIP3    H262760   3.640   4.317  11.816 -3.5191 -0.7262 -0.4417
13757TIP3   OH262761   2.096   0.224  12.972 -0.9209 -0.0736 -0.1525
13757TIP3    H162762   2.175   0.176  12.948 -0.7551  0.2843 -0.3275
13757TIP3    H262763   2.122   0.279  13.046 -1.0778 -0.1647 -0.0297
13758TIP3   OH262764   3.399   6.666  17.141  0.2859  0.2136  0.0369
13758TIP3    H162765   3.483   6.623  17.128 -0.2126 -1.4798  1.8987
13758TIP3    H262766   3.353   6.654  17.058  0.1170 -3.1510  0.4806
13759TIP3   OH262767   3.002   6.034  12.831  0.5131  0.2931 -0.9261
13759TIP3    H162768   3.006   5.941  12.853 -0.9491  0.1027 -1.3443
13759TIP3    H262769   2.961   6.074  12.908  1.5395  0.6821 -0.5621
13760TIP3   OH262770   1.749   5.703   0.774  0.1473 -0.0595  0.5114
13760TIP3    H162771   1.772   5.681   0.864  1.8637  0.3101  0.2188
13760TIP3    H262772   1.800   5.782   0.755 -2.8846  1.9904  0.3126
13761TIP3   OH262773   6.676   5.764  14.969  0.2769  0.3527 -0.0375
13761TIP3    H162774   6.753   5.814  14.945 -0.0116 -0.2720 -2.4957
13761TIP3    H262775   6.608   5.794  14.909 -1.1093  0.0460  1.3009
13762TIP3   OH262776   1.435   2.899   1.855  0.1260 -0.1170 -0.0236
13762TIP3    H162777   1.442   2.945   1.939  0.7453 -1.5938  0.7682
13762TIP3    H262778   1.340   2.889   1.841  0.0177  0.0692  0.5448
13763TIP3   OH262779   2.378   5.913   0.633  0.0670 -0.6383 -0.0742
13763TIP3    H162780   2.296   5.865   0.645 -1.1406  1.2330 -0.4413
13763TIP3    H262781   2.411   5.883   0.548 -0.6148 -0.8661 -0.2684
13764TIP3   OH262782   3.403   1.645  12.862  0.3615 -0.2432 -0.3634
13764TIP3    H162783   3.461   1.720  12.853  0.5445 -0.4407 -0.8291
13764TIP3    H262784   3.366   1.654  12.950  1.2103 -0.1950  0.0005
13765TIP3   OH262785   3.634   4.518  16.236 -0.0090  0.1389 -0.5028
13765TIP3    H162786   3.684   4.510  16.318 -0.4174 -0.3288 -0.2936
13765TIP3    H262787   3.604   4.609  16.236 -0.9396 -0.1449  0.4272
13766TIP3   OH262788   3.790   4.699   3.296 -0.2709 -0.0618  0.3914
13766TIP3    H162789   3.748   4.696   3.210 -0.0250  1.7623  0.1717
13766TIP3    H262790   3.825   4.610   3.309  0.3813 -0.1775 -1.7536
13767TIP3   OH262791   5.940   1.329  13.011  0.1519  0.2873  0.0465
13767TIP3    H162792   5.971   1.332  12.920  0.2290 -0.1502  0.0572
13767TIP3    H262793   6.008   1.282  13.058 -0.2310 -0.1265  0.1920
13768TIP3   OH262794   5.970   2.751   2.217  0.0710 -0.4882  0.5798
13768TIP3    H162795   6.007   2.695   2.149 -0.3517  0.0762 -0.1331
13768TIP3    H262796   5.895   2.793   2.175  0.9720  1.3822  0.7565
13769TIP3   OH262797   6.335   0.260   2.346 -0.0862  0.1276  0.5415
13769TIP3    H162798   6.320   0.273   2.440 -0.5296 -0.8836  0.6238
13769TIP3    H262799   6.415   0.208   2.342  0.7722  1.4082  0.2820
13770TIP3   OH262800   0.795   4.261   5.550 -0.0533  0.2144 -0.2162
13770TIP3    H162801   0.838   4.244   5.467  0.0642 -1.3132  0.1111
13770TIP3    H262802   0.865   4.288   5.609  0.0960 -0.0796 -0.2577
13771TIP3   OH262803   6.163   6.314   0.035 -0.2010 -0.1293  0.2938
13771TIP3    H162804   6.251   6.276   0.039 -0.7319 -1.5742 -1.0535
13771TIP3    H262805   6.118   6.265  -0.033 -2.4486 -0.2224  1.7383
13772TIP3   OH262806   5.506   3.218  13.101  0.0489  0.3724  0.2053
13772TIP3    H162807   5.507   3.306  13.140  1.3510 -0.2053  1.5537
13772TIP3    H262808   5.508   3.234  13.007 -0.5190  1.7984  0.4116
13773TIP3   OH262809   2.580   2.043  11.545  0.2791  0.2042  0.5177
13773TIP3    H162810   2.606   2.131  11.572 -0.0714  0.2646  0.6727
13773TIP3    H262811   2.593   1.989  11.624  1.5587 -0.1176  0.1057
13774TIP3   OH262812   0.060   6.282   1.614  0.5937  0.2931  0.1644
13774TIP3    H162813   0.127   6.321   1.558  0.0656 -0.6731 -1.2108
13774TIP3    H262814   0.087   6.304   1.703  3.9697 -1.9109 -0.1467
13775TIP3   OH262815   2.839   6.787  11.909 -0.1966  0.2105 -0.1385
13775TIP3    H162816   2.754   6.815  11.876  0.0769  0.4203 -0.6902
13775TIP3    H262817   2.857   6.705  11.863 -0.9447 -0.8531  1.3914
13776TIP3   OH262818   1.221   2.776  16.948 -0.2303  0.1302 -0.0292
13776TIP3    H162819   1.291   2.823  16.993  1.2028 -1.4002 -0.5391
13776TIP3    H262820   1.224   2.808  16.858 -0.3987  0.3013  0.0273
13777TIP3   OH262821   1.488   1.225  16.100  0.1985  0.3128 -0.2254
13777TIP3    H162822   1.514   1.213  16.008 -1.0530 -1.7803 -0.3791
13777TIP3    H262823   1.571   1.230  16.148  0.8684  1.0100 -1.4204
13778TIP3   OH262824   0.706   4.539   3.090 -0.4957 -0.2241  0.0600
13778TIP3    H162825   0.646   4.515   3.160 -1.0864 -0.4513 -0.5100
13778TIP3    H262826   0.777   4.475   3.095 -2.1114 -2.2635 -1.5241
13779TIP3   OH262827   1.023   2.816  13.592  0.0334  0.1845 -0.2783
13779TIP3    H162828   1.066   2.731  13.584  1.4961  0.9966 -1.6022
13779TIP3    H262829   1.067   2.872  13.528 -1.0780  1.8766  0.3468
13780TIP3   OH262830   1.849   1.880  13.900 -0.5438  0.3621 -0.3729
13780TIP3    H162831   1.937   1.896  13.868  0.1415  0.3920  1.4061
13780TIP3    H262832   1.849   1.915  13.989 -2.6240  1.1716 -0.6343
13781TIP3   OH262833   3.381   5.582   2.519  0.4412  0.3934  0.0326
13781TIP3    H162834   3.314   5.643   2.490 -0.4162 -0.2619  0.5759
13781TIP3    H262835   3.336   5.498   2.526  1.7394 -0.5010 -1.3978
13782TIP3   OH262836   2.213   6.023   1.909  0.2929  0.1406  0.8104
13782TIP3    H162837   2.119   6.031   1.928 -0.0557 -1.1533 -0.2466
13782TIP3    H262838   2.224   6.069   1.826  0.5403  0.0503  0.7936
13783TIP3   OH262839   5.458   4.123   4.233 -0.0275 -0.6789  0.5262
13783TIP3    H162840   5.368   4.134   4.201 -0.0874  0.8753  1.1469
13783TIP3    H262841   5.513   4.133   4.155 -0.3734 -2.3504  0.0089
13784TIP3   OH262842   6.364   5.150   3.897  0.5630 -0.6392 -0.1612
13784TIP3    H162843   6.361   5.245   3.907  0.4325 -0.8385  2.9001
13784TIP3    H262844   6.454   5.127   3.918  0.2530 -1.2427  0.5795
13785TIP3   OH262845   2.374   4.952   5.335  0.0164 -0.0561 -0.1021
13785TIP3    H162846   2.295   4.929   5.384 -0.1386 -0.5754 -0.5924
13785TIP3    H262847   2.384   4.882   5.271  1.6779 -0.7555  0.8787
13786TIP3   OH262848   3.449   3.991  11.391  0.9982 -0.0625  0.4674
13786TIP3    H162849   3.401   3.985  11.474  0.5961 -0.8169  0.1810
13786TIP3    H262850   3.443   4.084  11.368 -1.3775 -0.3222 -0.1770
13787TIP3   OH262851   3.337   5.318   2.985 -0.3233 -0.1335 -0.5162
13787TIP3    H162852   3.324   5.320   3.080 -0.5243 -0.9691 -0.5134
13787TIP3    H262853   3.289   5.393   2.952 -1.5396 -0.7032 -0.0890
13788TIP3   OH262854   4.673   2.423   2.549 -0.2013  0.0463  0.5405
13788TIP3    H162855   4.608   2.493   2.557 -0.8498 -0.4165 -0.4378
13788TIP3    H262856   4.691   2.397   2.639 -0.2769  1.1716  0.8972
13789TIP3   OH262857   4.464   6.355  15.985  0.2242 -0.4990 -0.0541
13789TIP3    H162858   4.462   6.404  15.902  3.6471 -0.2429 -0.1282
13789TIP3    H262859   4.474   6.422  16.052 -1.9638 -0.7515  0.5963
13790TIP3   OH262860   2.290   0.416   2.561  0.0375  0.1818  0.3955
13790TIP3    H162861   2.230   0.425   2.635 -1.4469 -1.7358 -0.4802
13790TIP3    H262862   2.245   0.461   2.489  0.6986  0.6152  0.2435
13791TIP3   OH262863   4.377   2.645   3.906 -0.3052  0.3592 -0.0297
13791TIP3    H162864   4.303   2.645   3.967  0.8934  0.6342  1.4823
13791TIP3    H262865   4.424   2.727   3.925 -0.5377  1.0642 -2.1761
13792TIP3   OH262866   0.825   3.425  13.618  0.2156 -0.2427  0.1371
13792TIP3    H162867   0.907   3.409  13.572 -0.3633 -0.3768 -0.8924
13792TIP3    H262868   0.804   3.342  13.660  0.7742 -0.1064  0.6994
13793TIP3   OH262869   1.591   6.669   2.284 -0.7064 -0.1228  0.3725
13793TIP3    H162870   1.577   6.724   2.207  1.3993 -0.1136 -0.0781
13793TIP3    H262871   1.649   6.599   2.253 -1.0183 -0.9636  1.6120
13794TIP3   OH262872   0.159   4.810  11.140 -0.2732  0.4702 -0.5241
13794TIP3    H162873   0.179   4.748  11.070  0.3362 -0.4479  0.4143
13794TIP3    H262874   0.237   4.865  11.147 -0.8119  1.3689 -1.3518
13795TIP3   OH262875   0.202   0.357   4.270  0.4754  0.1459  0.5173
13795TIP3    H162876   0.112   0.324   4.272  0.7060 -0.4749  0.9270
13795TIP3    H262877   0.251   0.298   4.328  1.3489 -0.1404 -0.4794
13796TIP3   OH262878   2.407   1.019   3.753 -0.0354  0.6275 -0.3864
13796TIP3    H162879   2.391   1.111   3.729  1.6766  0.9832 -0.3290
13796TIP3    H262880   2.375   1.012   3.842  0.4312  1.3709 -0.1481
13797TIP3   OH262881   2.317   6.202  15.169 -0.6825 -0.2314 -0.0822
13797TIP3    H162882   2.223   6.204  15.150 -0.5276  1.3385 -0.8541
13797TIP3    H262883   2.356   6.170  15.088 -0.5291 -0.6577  0.1586
13798TIP3   OH262884   4.404   0.570   0.796  0.2160 -0.2975  0.0427
13798TIP3    H162885   4.363   0.515   0.728 -0.4381 -1.8757  1.6434
13798TIP3    H262886   4.434   0.508   0.862  3.6531  0.9270 -0.1618
13799TIP3   OH262887   1.693   5.749  13.198  0.2167 -0.3313  0.1526
13799TIP3    H162888   1.775   5.773  13.154 -0.0823  0.2621 -0.0897
13799TIP3    H262889   1.634   5.821  13.179 -0.7363 -1.2882 -0.6701
13800TIP3   OH262890   6.675   0.285  17.058 -0.1888  0.2384 -0.1506
13800TIP3    H162891   6.768   0.271  17.038  0.1470  1.7870  0.2293
13800TIP3    H262892   6.657   0.224  17.130  0.1336 -1.0913 -1.1417
13801TIP3   OH262893   0.029   3.041  16.446  0.5227 -0.3912  0.2500
13801TIP3    H162894   0.108   3.093  16.428  0.2251 -0.5009 -1.5178
13801TIP3    H262895   0.011   2.995  16.365 -1.5075 -0.2049  0.5412
13802TIP3   OH262896   6.439   2.944  14.597 -0.7268  0.2229  0.1006
13802TIP3    H162897   6.412   3.034  14.614  1.0975  0.8854 -0.2863
13802TIP3    H262898   6.510   2.952  14.532  0.6926 -1.3182  1.3605
13803TIP3   OH262899   6.656   0.560   0.472  0.1375  0.6873  0.1159
13803TIP3    H162900   6.626   0.526   0.556  0.2617 -0.1341 -0.1598
13803TIP3    H262901   6.735   0.510   0.452  0.3114  1.1246 -0.3197
13804TIP3   OH262902   2.425   1.442  16.806 -0.2671 -0.0442 -0.6281
13804TIP3    H162903   2.331   1.451  16.822 -0.4370 -1.9220 -0.3246
13804TIP3    H262904   2.455   1.531  16.790 -1.6777  0.9135  1.5248
13805TIP3   OH262905   3.080   0.197   4.632  0.6956  0.4047  0.0571
13805TIP3    H162906   3.090   0.172   4.724 -0.5006  1.1760  0.4192
13805TIP3    H262907   3.041   0.120   4.591 -0.5430  0.7254  0.6084
13806TIP3   OH262908   2.231   3.250  15.246  0.4249  0.1083  0.1663
13806TIP3    H162909   2.279   3.299  15.312  1.1131  0.1068 -0.3215
13806TIP3    H262910   2.220   3.163  15.285  0.2085  0.3128  0.5648
13807TIP3   OH262911   6.190   4.424   2.904  0.1404  1.1213  0.5312
13807TIP3    H162912   6.233   4.339   2.909 -1.4297  0.2595 -0.0328
13807TIP3    H262913   6.126   4.423   2.975  0.2986  1.9673  0.7035
13808TIP3   OH262914   6.802   4.244  13.873 -0.8347 -0.1252  0.4241
13808TIP3    H162915   6.776   4.261  13.964  2.4255 -1.9028  1.8540
13808TIP3    H262916   6.893   4.273  13.869 -0.9497  0.0735 -2.4102
13809TIP3   OH262917   3.844   1.262   6.379 -0.4068  0.2571 -0.3288
13809TIP3    H162918   3.857   1.196   6.311  0.3721 -0.1967  0.2402
13809TIP3    H262919   3.829   1.211   6.459  1.1691  0.7297  0.3056
13810TIP3   OH262920   2.497   3.988  15.023  0.0323 -0.3429  0.1637
13810TIP3    H162921   2.483   3.896  15.044  1.6084 -0.4142  1.1509
13810TIP3    H262922   2.506   3.991  14.928 -0.1172 -1.2000  0.1198
13811TIP3   OH262923   1.627   6.633   0.750  0.1429 -0.4250  0.3617
13811TIP3    H162924   1.691   6.610   0.683 -0.5459  0.8558 -0.7906
13811TIP3    H262925   1.558   6.567   0.741 -0.7126  0.6163 -1.3359
13812TIP3   OH262926   3.690   4.734   4.113 -0.2232  0.3905  0.9129
13812TIP3    H162927   3.694   4.755   4.020  1.1320  1.2665  1.1425
13812TIP3    H262928   3.778   4.703   4.134 -0.2444  1.1044  2.1048
13813TIP3   OH262929   0.874   1.346   5.129  0.8781 -0.0663 -0.5322
13813TIP3    H162930   0.954   1.351   5.180  1.4188 -1.0951 -1.2451
13813TIP3    H262931   0.833   1.432   5.140  1.1449 -0.1432  1.3183
13814TIP3   OH262932   6.361   6.402   3.319 -0.4296 -0.6117 -0.8869
13814TIP3    H162933   6.342   6.434   3.407 -0.4178  0.5844 -1.3135
13814TIP3    H262934   6.283   6.354   3.294 -1.2695  0.7727 -1.0076
13815TIP3   OH262935   0.357   2.173   0.350 -0.0695  0.4112 -0.2876
13815TIP3    H162936   0.321   2.166   0.438  1.6830 -0.3669  0.4055
13815TIP3    H262937   0.361   2.082   0.318 -5.0829  0.8081 -3.1556
13816TIP3   OH262938   4.759   2.395   5.383  0.1135  0.2185 -0.4892
13816TIP3    H162939   4.721   2.466   5.435 -0.1651  0.2819 -0.7749
13816TIP3    H262940   4.683   2.353   5.342  0.4488  1.5568 -2.6367
13817TIP3   OH262941   1.121   3.877   5.653  0.3712 -0.2102  0.4023
13817TIP3    H162942   1.199   3.930   5.668  0.4444  0.8605 -2.9666
13817TIP3    H262943   1.072   3.884   5.735  0.8000  4.4145  0.5360
13818TIP3   OH262944   6.266   3.638   4.157  0.1203  0.0796  0.6663
13818TIP3    H162945   6.198   3.693   4.120 -1.0626 -1.2818  0.7200
13818TIP3    H262946   6.340   3.646   4.096  0.0516  1.8410  0.7923
13819TIP3   OH262947   0.481   1.302  17.061 -0.4192  0.2654 -0.0500
13819TIP3    H162948   0.450   1.246  17.132 -0.3475 -1.2642 -1.1621
13819TIP3    H262949   0.565   1.336  17.093 -1.1025  0.8301  1.1838
13820TIP3   OH262950   3.167   4.165  10.791  0.1933 -0.2372 -0.1041
13820TIP3    H162951   3.187   4.084  10.744  0.7590  0.5588 -1.3127
13820TIP3    H262952   3.075   4.182  10.772 -0.0614 -0.8372  0.5589
13821TIP3   OH262953   0.463   4.183  16.766  0.4392  0.2919 -0.2666
13821TIP3    H162954   0.461   4.091  16.741  0.7543 -0.0586  0.9185
13821TIP3    H262955   0.554   4.198  16.792 -0.3720 -0.1986  3.3889
13822TIP3   OH262956   0.500   3.108  16.534 -0.3903 -0.1413  0.2759
13822TIP3    H162957   0.510   3.163  16.457 -1.5151 -0.1335  0.1178
13822TIP3    H262958   0.565   3.141  16.597 -1.4796  1.7996  0.4382
13823TIP3   OH262959   0.354   5.398  15.448 -0.4173  0.3380 -0.6506
13823TIP3    H162960   0.440   5.356  15.436 -0.3564  0.1955  0.1796
13823TIP3    H262961   0.361   5.481  15.401 -0.0744  0.0062 -1.1961
13824TIP3   OH262962   1.838   0.608   4.621  0.5305 -0.0929 -0.1134
13824TIP3    H162963   1.907   0.552   4.586  0.8014  0.2610 -0.1546
13824TIP3    H262964   1.779   0.623   4.547  0.3120 -0.5439 -0.0301
13825TIP3   OH262965   6.576   5.043  10.993  0.0511 -0.0194 -0.2708
13825TIP3    H162966   6.603   5.102  10.923 -0.9082  1.9210  0.9294
13825TIP3    H262967   6.655   5.027  11.043  0.2070  0.7231 -0.2747
13826TIP3   OH262968   3.282   1.551  16.139 -0.4189  0.3190  0.6076
13826TIP3    H162969   3.342   1.613  16.181 -1.8824  1.2731  1.3743
13826TIP3    H262970   3.236   1.509  16.211 -2.1271  1.1173  0.0327
13827TIP3   OH262971   1.437   3.937  16.734 -0.2918 -0.1428  0.3162
13827TIP3    H162972   1.454   3.850  16.697 -0.9814  0.4142 -1.3971
13827TIP3    H262973   1.358   3.968  16.688  0.6451  1.8967 -0.0313
13828TIP3   OH262974   0.633   5.349   5.476 -0.4338 -0.4394  0.6377
13828TIP3    H162975   0.653   5.329   5.385  0.8709  0.0618  0.7965
13828TIP3    H262976   0.667   5.437   5.489 -0.3666 -0.6080  1.6783
13829TIP3   OH262977   5.324   4.899  12.663  0.1814  0.0462 -0.1936
13829TIP3    H162978   5.403   4.850  12.685  1.9376  2.9377  0.3348
13829TIP3    H262979   5.345   4.944  12.582 -0.7806  1.1444  0.1346
13830TIP3   OH262980   6.751   0.991   4.822  0.3407  0.1916  0.5117
13830TIP3    H162981   6.734   0.897   4.816 -1.5865  0.5719 -0.9557
13830TIP3    H262982   6.745   1.010   4.915 -0.2653 -0.9840  0.7379
13831TIP3   OH262983   2.008   5.726  15.248 -0.2956  0.7393  0.0784
13831TIP3    H162984   2.004   5.643  15.199  1.2111  0.2661  0.7006
13831TIP3    H262985   2.056   5.785  15.190 -0.2334  0.7777  0.1694
13832TIP3   OH262986   0.615   4.039  17.114  0.5848  0.0890  0.1622
13832TIP3    H162987   0.594   3.953  17.076  0.2686  0.1054  0.2961
13832TIP3    H262988   0.531   4.071  17.148  1.0277 -0.3296  1.6967
13833TIP3   OH262989   1.930   5.860   0.195 -0.1605  0.2034  0.1575
13833TIP3    H162990   1.887   5.778   0.217  0.2455  0.0608  0.4400
13833TIP3    H262991   1.873   5.901   0.131 -0.1052 -0.5458 -0.3783
13834TIP3   OH262992   4.267   3.717  10.638  0.1023  0.0705 -0.1115
13834TIP3    H162993   4.223   3.727  10.723 -2.0127  0.7042 -1.2146
13834TIP3    H262994   4.220   3.646  10.595  1.0506 -0.1360 -0.8365
13835TIP3   OH262995   4.012   4.775  12.390  0.4297  0.3320  0.5003
13835TIP3    H162996   4.024   4.846  12.452  2.5782 -0.3362  0.9311
13835TIP3    H262997   3.979   4.702  12.442  1.1156  0.1241  0.6533
13836TIP3   OH262998   4.831   4.712   4.545  0.1569 -0.0619 -0.4647
13836TIP3    H162999   4.883   4.726   4.466  0.2656  1.4097 -0.1654
13836TIP3    H263000   4.740   4.709   4.515 -0.0439  2.9232 -0.4844
13837TIP3   OH263001   0.394   4.994   1.144 -0.2014  0.2152 -0.3033
13837TIP3    H163002   0.406   5.066   1.206  0.5687  0.1671 -0.3797
13837TIP3    H263003   0.445   5.021   1.067  1.7081 -1.2522  0.3832
13838TIP3   OH263004   0.419   3.099  15.271  0.2253 -0.7516 -0.7289
13838TIP3    H163005   0.425   3.113  15.176  0.3234  1.2610 -0.4750
13838TIP3    H263006   0.334   3.058  15.284 -1.6006  2.4719 -1.4379
13839TIP3   OH263007   1.067   6.056   5.059 -0.6878  0.6793  0.1942
13839TIP3    H163008   0.982   6.101   5.066 -1.0738 -0.0477  0.3766
13839TIP3    H263009   1.043   5.965   5.040  0.1160  0.9331 -2.3723
13840TIP3   OH263010   0.643   3.463  10.592  0.1324  0.0573 -0.2341
13840TIP3    H163011   0.665   3.439  10.502 -1.1654  0.3751 -0.6539
13840TIP3    H263012   0.553   3.434  10.604  0.2551  0.0893  0.9454
13841TIP3   OH263013   4.000   5.359  13.559 -0.1838  0.4380 -0.3971
13841TIP3    H163014   4.056   5.403  13.622 -0.6388  1.3627 -0.6062
13841TIP3    H263015   3.935   5.426  13.535 -1.5987 -0.7037  0.1187
13842TIP3   OH263016   1.535   5.844  17.128  0.1595  0.7766  0.3684
13842TIP3    H163017   1.441   5.845  17.143 -0.0740 -1.0750 -0.6627
13842TIP3    H263018   1.573   5.803  17.206 -0.0533  0.1361  0.1394
13843TIP3   OH263019   1.880   5.288   0.216  0.2020  0.5079 -0.0612
13843TIP3    H163020   1.934   5.344   0.271 -1.5057  2.2494 -0.0575
13843TIP3    H263021   1.846   5.220   0.275  1.5373 -0.0135  0.1319
13844TIP3   OH263022   1.564   0.978  15.762  0.4687  0.1518 -0.1396
13844TIP3    H163023   1.542   0.993  15.670 -1.7552 -1.6093  0.0104
13844TIP3    H263024   1.630   1.044  15.782  0.4616  1.0788 -2.7738
13845TIP3   OH263025   5.285   3.662   3.818 -0.7764 -0.0822 -0.0036
13845TIP3    H163026   5.329   3.586   3.855 -1.0227 -0.8978 -1.3162
13845TIP3    H263027   5.324   3.737   3.863  2.4788 -0.6943 -1.5293
13846TIP3   OH263028   2.830   1.221  12.900 -0.5901  0.1054 -0.5256
13846TIP3    H163029   2.735   1.220  12.913 -0.4281 -0.9569  0.7811
13846TIP3    H263030   2.864   1.268  12.975  0.0371 -1.5179  0.2591
13847TIP3   OH263031   5.457   2.771  14.538  0.0867 -0.4520  0.3479
13847TIP3    H163032   5.551   2.763  14.555  0.1479 -0.4165  0.0326
13847TIP3    H263033   5.450   2.770  14.443 -0.2575 -0.7010  0.3756
13848TIP3   OH263034   1.979   3.066   2.224  0.4683 -0.5661  0.2982
13848TIP3    H163035   1.949   3.069   2.133  0.8076 -0.9278  0.1695
13848TIP3    H263036   2.022   2.981   2.232 -2.0480 -1.8210  1.5930
13849TIP3   OH263037   3.576   4.955  14.235 -0.2455 -0.4000 -0.5809
13849TIP3    H163038   3.563   4.864  14.260 -3.6529  0.9486  3.8592
13849TIP3    H263039   3.638   4.990  14.299 -3.0142  1.3612  1.4166
13850TIP3   OH263040   4.157   1.708  11.041 -0.0792 -0.7407  0.6970
13850TIP3    H163041   4.175   1.763  10.964  0.5010 -1.7780  0.0699
13850TIP3    H263042   4.099   1.639  11.008 -1.8832  0.1863  1.7726
13851TIP3   OH263043   6.605   0.700  13.628 -0.1524  0.3393 -0.1096
13851TIP3    H163044   6.524   0.651  13.613  0.2447 -0.9261  1.5930
13851TIP3    H263045   6.655   0.688  13.547  0.6851 -3.6993  0.7666
13852TIP3   OH263046   5.948   0.699  16.913 -0.4818  0.2331 -0.2014
13852TIP3    H163047   6.041   0.693  16.936 -0.5806  0.0215  0.1684
13852TIP3    H263048   5.908   0.626  16.960 -1.5156  2.7034  3.1848
13853TIP3   OH263049   6.049   4.566  12.618  0.0086  0.3794  0.0745
13853TIP3    H163050   6.093   4.631  12.674 -2.2150  1.2935  0.8763
13853TIP3    H263051   6.094   4.483  12.638  1.5329  1.2856  0.5941
13854TIP3   OH263052   6.636   5.747  15.480  0.2058 -0.5479  0.0894
13854TIP3    H163053   6.559   5.755  15.423 -1.5733 -1.4806  2.1963
13854TIP3    H263054   6.632   5.824  15.537  0.8505 -0.5965  0.2091
13855TIP3   OH263055   6.196   3.338  16.681 -0.0520  0.0668 -0.2014
13855TIP3    H163056   6.210   3.317  16.773 -0.0244 -1.6300 -0.5607
13855TIP3    H263057   6.103   3.319  16.667  0.3038 -1.3006 -0.8877
13856TIP3   OH263058   3.365   6.295   3.181  0.5202  0.4252  0.0955
13856TIP3    H163059   3.327   6.370   3.136  1.2130  1.8225  1.7128
13856TIP3    H263060   3.438   6.268   3.125 -0.0704  0.5968 -0.7719
13857TIP3   OH263061   1.033   6.571   3.024  0.2587 -0.7692  0.5786
13857TIP3    H163062   0.947   6.529   3.016 -0.8216  1.3301  0.3809
13857TIP3    H263063   1.051   6.605   2.937  0.6764 -0.0710  0.9291
13858TIP3   OH263064   5.066   2.525  13.951 -0.0420  0.1097 -0.2691
13858TIP3    H163065   4.984   2.530  13.902 -0.1652  1.4990  0.0505
13858TIP3    H263066   5.113   2.605  13.929  0.6528 -0.0463  0.5730
13859TIP3   OH263067   2.005   1.205  13.717  0.2572 -0.1367  0.4468
13859TIP3    H163068   2.049   1.290  13.718  0.6077 -0.3117  1.8588
13859TIP3    H263069   1.982   1.191  13.625  1.8531  0.6212 -0.1058
13860TIP3   OH263070   2.275   2.744  14.694 -0.1849 -0.1221 -0.5100
13860TIP3    H163071   2.181   2.736  14.710  0.0154 -2.6402 -0.1594
13860TIP3    H263072   2.312   2.771  14.779 -0.4517 -0.6513 -0.2220
13861TIP3   OH263073   0.427   2.619  13.715 -0.1681  0.4131  0.6517
13861TIP3    H163074   0.394   2.559  13.783 -0.3629  2.4477  2.4498
13861TIP3    H263075   0.355   2.680  13.700 -0.0465  0.1554 -1.2992
13862TIP3   OH263076   1.700   2.277   5.098 -0.1510  0.4149 -0.2467
13862TIP3    H163077   1.679   2.183   5.094  0.4184  0.1766  1.5415
13862TIP3    H263078   1.795   2.280   5.102 -0.2091  0.9641  1.3036
13863TIP3   OH263079   3.567   2.976   3.676  0.5102 -0.2942  0.2068
13863TIP3    H163080   3.647   3.026   3.693  0.7294 -0.2001 -0.9964
13863TIP3    H263081   3.518   2.980   3.758  0.0093  2.8344 -0.1084
13864TIP3   OH263082   2.749   5.081   4.200  0.1711  0.1843 -0.1703
13864TIP3    H163083   2.752   5.109   4.292 -0.5310  0.5388 -0.2508
13864TIP3    H263084   2.795   5.150   4.153 -0.0096  0.3163 -0.1552
13865TIP3   OH263085   5.230   3.130  15.584 -0.5733 -0.0092 -0.2035
13865TIP3    H163086   5.148   3.178  15.594 -0.6007 -0.0938 -0.0148
13865TIP3    H263087   5.298   3.197  15.597 -0.6072  0.2543 -1.3133
13866TIP3   OH263088   3.897   5.943  16.825 -0.6729  0.2376  0.1530
13866TIP3    H163089   3.852   5.913  16.904 -2.1409 -0.6292 -0.9583
13866TIP3    H263090   3.964   6.003  16.857  0.2647 -1.7809  2.2370
13867TIP3   OH263091   3.445   6.720   4.630 -0.7284  0.7214  0.1127
13867TIP3    H163092   3.435   6.707   4.536  2.9941  0.3944 -0.3891
13867TIP3    H263093   3.406   6.806   4.646 -0.8146  1.1154 -1.8790
13868TIP3   OH263094   2.830   4.066   4.075  0.4163  0.5931 -0.0934
13868TIP3    H163095   2.824   4.097   3.985  1.6024  1.4756  0.1007
13868TIP3    H263096   2.747   4.093   4.116 -0.2912 -0.1572 -1.0031
13869TIP3   OH263097   4.728   0.119   2.638 -0.4925  0.2077  0.1888
13869TIP3    H163098   4.789   0.174   2.687 -0.9799  1.0451 -0.1017
13869TIP3    H263099   4.697   0.176   2.567 -2.6091  0.2707  1.0891
13870TIP3   OH263100   2.038   4.614  16.067  0.3322 -0.1310 -1.0616
13870TIP3    H163101   2.128   4.638  16.047  0.8313 -0.6738  0.4262
13870TIP3    H263102   2.018   4.542  16.008  0.9317 -0.1259 -1.2727
13871TIP3   OH263103   1.991   3.457   4.290 -0.1646  0.1225 -0.1706
13871TIP3    H163104   2.059   3.424   4.232 -0.7577  0.0473 -0.8383
13871TIP3    H263105   1.909   3.432   4.247 -0.6325  1.8037 -0.3297
13872TIP3   OH263106   0.748   4.089  12.472  0.4350  0.1114 -0.3303
13872TIP3    H163107   0.796   4.167  12.500  1.6306 -0.1420 -1.5537
13872TIP3    H263108   0.667   4.090  12.524  0.5789  1.9739 -0.0726
13873TIP3   OH263109   4.032   6.060  15.690  0.2082  0.0569  0.1753
13873TIP3    H163110   4.123   6.089  15.694  0.3166 -0.3591  2.7290
13873TIP3    H263111   3.982   6.139  15.669  0.9721  0.8785  1.3644
13874TIP3   OH263112   3.616   5.765   3.368  0.1568  0.0976  0.2879
13874TIP3    H163113   3.675   5.700   3.330  0.3014  1.6791 -2.4448
13874TIP3    H263114   3.659   5.790   3.450  1.7657 -0.9073 -0.1933
13875TIP3   OH263115   3.773   0.276  11.121 -0.3182  0.4468  0.0906
13875TIP3    H163116   3.790   0.364  11.154 -0.0317  0.2111  0.5836
13875TIP3    H263117   3.860   0.239  11.107 -0.3828 -0.5335  1.9908
13876TIP3   OH263118   3.278   3.711  14.749 -0.3737  0.3225  0.4879
13876TIP3    H163119   3.199   3.712  14.696 -0.9232  0.7278  1.3064
13876TIP3    H263120   3.300   3.618  14.757 -0.6120  0.2257  0.0314
13877TIP3   OH263121   3.773   6.397   2.108 -0.2887  0.0803 -0.4283
13877TIP3    H163122   3.865   6.393   2.083  0.0361 -2.4437  0.7898
13877TIP3    H263123   3.761   6.484   2.145  1.6620  0.3752 -0.4010
13878TIP3   OH263124   5.195   6.448  11.505 -0.0053  0.0333 -0.0318
13878TIP3    H163125   5.129   6.440  11.574 -0.4980 -0.4962 -0.5524
13878TIP3    H263126   5.198   6.361  11.466  1.9653 -0.3442  0.8390
13879TIP3   OH263127   1.357   4.195  14.246 -0.3036  0.6083  0.1275
13879TIP3    H163128   1.290   4.182  14.313 -2.1201  1.5063 -1.4354
13879TIP3    H263129   1.426   4.131  14.269 -0.8288  0.8742  2.7884
13880TIP3   OH263130   2.103   4.422   1.065 -0.2838 -0.2219 -0.7961
13880TIP3    H163131   2.103   4.477   0.987  1.2231  0.4551 -0.3575
13880TIP3    H263132   2.180   4.366   1.055 -0.3883 -0.5096 -0.0554
13881TIP3   OH263133   0.016   5.416  13.909  0.4123 -0.2316  0.5945
13881TIP3    H163134  -0.019   5.493  13.955  2.4423  1.9927 -1.3405
13881TIP3    H263135  -0.057   5.353  13.910 -0.8688  1.0997  3.4895
13882TIP3   OH263136   5.048   2.549   3.222 -0.0229 -0.0650 -0.7052
13882TIP3    H163137   4.987   2.620   3.241  0.4494  0.7852 -2.1996
13882TIP3    H263138   5.123   2.592   3.182  0.7758 -1.2987 -0.6006
13883TIP3   OH263139   3.814   3.560  12.054  0.1150  0.3085  0.2144
13883TIP3    H163140   3.845   3.523  12.136 -1.5506 -2.0794 -0.1098
13883TIP3    H263141   3.846   3.499  11.987  1.6653  2.3465 -0.9916
13884TIP3   OH263142   4.935   5.207   1.554  0.0873  0.0396  0.4741
13884TIP3    H163143   4.889   5.189   1.472  0.2741 -0.5711  0.4999
13884TIP3    H263144   5.027   5.210   1.531  0.1092  0.2971  0.5889
13885TIP3   OH263145   6.828   5.204  14.376 -0.2815  0.0670  0.6690
13885TIP3    H163146   6.910   5.160  14.351  1.8463  3.6677  0.6318
13885TIP3    H263147   6.846   5.238  14.464 -0.8937  2.6792 -0.1551
13886TIP3   OH263148   4.496   0.409   5.565 -0.1303 -0.0804  0.5591
13886TIP3    H163149   4.484   0.327   5.518  0.5593  0.1214  0.0264
13886TIP3    H263150   4.409   0.430   5.599 -0.4456 -0.6888  0.1343
13887TIP3   OH263151   4.882   0.412  12.838  0.2284 -0.4418 -0.2737
13887TIP3    H163152   4.854   0.329  12.801  0.0832 -0.7675  0.5507
13887TIP3    H263153   4.812   0.436  12.899  0.2993  0.2540 -0.4540
13888TIP3   OH263154   5.392   2.441  14.421 -0.6071 -0.2341  0.0343
13888TIP3    H163155   5.459   2.373  14.421 -0.7892 -0.4147  0.3820
13888TIP3    H263156   5.434   2.516  14.464 -0.0442  0.2424 -1.2974
13889TIP3   OH263157   2.010   1.260   5.822  0.1948  0.4224 -0.0923
13889TIP3    H163158   2.059   1.338   5.847 -1.4186  0.7772  2.2801
13889TIP3    H263159   1.952   1.290   5.752  2.1887  0.3460 -1.8799
13890TIP3   OH263160   2.490   5.585  14.223 -0.2895 -0.7297 -0.0208
13890TIP3    H163161   2.462   5.499  14.255 -0.4188 -0.1913  1.3683
13890TIP3    H263162   2.577   5.597  14.262 -0.3803 -0.1279 -0.0068
13891TIP3   OH263163   4.150   1.475   2.101 -0.1901  0.1060  0.4849
13891TIP3    H163164   4.227   1.514   2.142  0.0673 -1.5702  1.7448
13891TIP3    H263165   4.078   1.495   2.161 -0.1488 -0.8592  0.8770
13892TIP3   OH263166   1.021   1.005   4.245 -0.0413  0.4293  0.6386
13892TIP3    H163167   1.068   1.042   4.320 -0.1824  3.0604 -0.4801
13892TIP3    H263168   0.934   1.043   4.250 -0.6438 -0.8528  0.1585
13893TIP3   OH263169   3.022   0.380  16.666  0.3579 -0.3050 -0.7282
13893TIP3    H163170   3.043   0.330  16.744  0.6584  0.8254 -0.0739
13893TIP3    H263171   3.062   0.331  16.594  1.4279 -0.5243 -0.0001
13894TIP3   OH263172   5.568   4.040   6.154  0.3723  0.1543 -0.1185
13894TIP3    H163173   5.506   4.112   6.163  1.7772  1.2114  1.9984
13894TIP3    H263174   5.524   3.978   6.096 -1.7972  1.7126 -0.2904
13895TIP3   OH263175   0.316   0.320   5.246 -0.1788 -0.1522  0.3023
13895TIP3    H163176   0.344   0.348   5.333 -0.2801 -1.9546  0.9570
13895TIP3    H263177   0.277   0.234   5.260  1.5832 -1.3984 -1.7715
13896TIP3   OH263178   3.477   5.360  16.439  0.4088  0.7737 -0.3439
13896TIP3    H163179   3.545   5.419  16.406 -0.6575  1.5367 -1.2506
13896TIP3    H263180   3.429   5.411  16.504  0.7161  0.2187  0.3348
13897TIP3   OH263181   1.516   0.730  16.379 -0.8405  0.3532  0.3798
13897TIP3    H163182   1.602   0.699  16.351 -1.7578 -0.8152 -1.2917
13897TIP3    H263183   1.453   0.675  16.331 -2.5385  2.9869 -0.6677
13898TIP3   OH263184   4.017   3.721   5.642  0.4417 -0.2696 -0.2843
13898TIP3    H163185   4.016   3.662   5.718 -0.2385 -0.7095 -0.6164
13898TIP3    H263186   3.985   3.805   5.676  0.7373 -0.2918  0.0473
13899TIP3   OH263187   4.162   5.322   2.532 -0.3136 -0.9652 -0.9686
13899TIP3    H163188   4.138   5.232   2.555  0.0643 -1.2919 -1.8429
13899TIP3    H263189   4.160   5.324   2.437  0.5017 -0.2764 -0.9797
13900TIP3   OH263190   6.376   5.015   2.547 -0.4076  0.1740 -0.3485
13900TIP3    H163191   6.469   5.036   2.560  0.1838 -1.1068 -2.0936
13900TIP3    H263192   6.370   4.921   2.561 -2.0342  0.5935  2.4465
13901TIP3   OH263193   1.185   2.362  16.303  0.2942 -0.2037 -0.0981
13901TIP3    H163194   1.201   2.455  16.319  0.2879 -0.5691  2.6438
13901TIP3    H263195   1.093   2.349  16.326  0.7089 -1.1345  1.1546
13902TIP3   OH263196   6.411   6.502   2.380 -0.1524  0.0121  0.4590
13902TIP3    H163197   6.395   6.420   2.333 -0.0448  0.4860 -0.4254
13902TIP3    H263198   6.323   6.535   2.399 -0.2172  0.5166 -0.6667
13903TIP3   OH263199   0.422   5.954  14.116 -0.1575 -0.2094  0.2975
13903TIP3    H163200   0.413   5.893  14.189 -1.4663  0.5730  0.8324
13903TIP3    H263201   0.341   6.005  14.117  1.0561  1.8718  0.1788
13904TIP3   OH263202   1.733   5.711  14.195  0.5661  0.1206 -0.0355
13904TIP3    H163203   1.759   5.650  14.126 -0.6583  0.2345 -0.6094
13904TIP3    H263204   1.728   5.656  14.274 -2.7746 -1.1183 -0.9536
13905TIP3   OH263205   4.406   2.584  14.224 -1.0974  0.3128 -0.0462
13905TIP3    H163206   4.478   2.574  14.286 -0.2638  1.0431 -0.8778
13905TIP3    H263207   4.425   2.522  14.154  0.7392  2.9997 -2.0952
13906TIP3   OH263208   3.491   5.572   1.828  0.1623  0.0227 -0.1668
13906TIP3    H163209   3.530   5.628   1.761 -1.6623  0.8954 -0.5482
13906TIP3    H263210   3.416   5.621   1.861 -0.9126 -1.7727  0.2088
13907TIP3   OH263211   2.797   3.929   5.219 -0.5397 -0.1790  0.4261
13907TIP3    H163212   2.753   3.972   5.292 -1.9712  1.4508 -1.3274
13907TIP3    H263213   2.880   3.976   5.211 -0.8784  0.4082  0.2928
13908TIP3   OH263214   5.156   0.209  12.530 -0.0143 -0.0396 -0.2926
13908TIP3    H163215   5.115   0.286  12.491  0.7822  1.4705  1.6362
13908TIP3    H263216   5.085   0.146  12.541 -0.7450  0.4991 -1.6498
13909TIP3   OH263217   4.759   3.516  12.901 -0.5141 -0.6661 -0.8603
13909TIP3    H163218   4.781   3.510  12.809 -0.7662 -1.2144 -0.8855
13909TIP3    H263219   4.707   3.438  12.919 -2.2819  0.4716 -0.7591
13910TIP3   OH263220   1.760   2.979   4.989 -0.1636 -0.3374  0.1227
13910TIP3    H163221   1.810   2.932   4.922  0.1418 -1.4262  1.0810
13910TIP3    H263222   1.804   3.064   4.996 -0.5197  0.0070 -1.3978
13911TIP3   OH263223   1.367   5.258   0.256  0.0063  0.3872 -0.6970
13911TIP3    H163224   1.344   5.174   0.217 -0.2975 -0.4763  1.2647
13911TIP3    H263225   1.450   5.282   0.213  0.0561 -0.8515 -1.3379
13912TIP3   OH263226   2.289   4.053   4.235 -0.1455 -0.0717  0.1087
13912TIP3    H163227   2.209   4.090   4.271  0.0305  1.0136 -0.5663
13912TIP3    H263228   2.276   3.958   4.240 -0.3642  0.0290  2.4011
13913TIP3   OH263229   0.176   4.863  14.132  0.2866  0.0086 -0.0289
13913TIP3    H163230   0.175   4.817  14.216  1.0555  1.5635  0.8812
13913TIP3    H263231   0.084   4.867  14.106  0.0703 -0.7508  0.5785
13914TIP3   OH263232   6.048   0.722  14.779 -0.1665  0.4949 -0.2322
13914TIP3    H163233   6.124   0.750  14.729 -0.1301  0.3365 -0.2664
13914TIP3    H263234   6.079   0.649  14.832 -0.2395  0.5717 -0.0821
13915TIP3   OH263235   5.784   2.439  13.557  0.4808  0.6529 -0.6832
13915TIP3    H163236   5.700   2.479  13.533 -0.9980 -1.8375 -0.0715
13915TIP3    H263237   5.779   2.350  13.523  1.8204 -0.3330  1.4618
13916TIP3   OH263238   2.654   0.544   3.220  0.6084 -0.9806 -0.2344
13916TIP3    H163239   2.697   0.624   3.189  0.1995 -1.4092 -2.0205
13916TIP3    H263240   2.625   0.565   3.309 -3.4704  2.5860 -2.0283
13917TIP3   OH263241   4.927   5.616   1.125  0.7542 -0.4656 -0.1895
13917TIP3    H163242   4.985   5.543   1.147  0.7239 -0.1802  0.8932
13917TIP3    H263243   4.851   5.575   1.085  1.3227 -0.9150 -0.8246
13918TIP3   OH263244   2.989   2.791  14.817 -0.2597 -0.0428  0.1861
13918TIP3    H163245   2.933   2.857  14.776  0.4451  0.1804 -0.4493
13918TIP3    H263246   2.949   2.707  14.791 -0.2018  0.1101 -0.4244
13919TIP3   OH263247   3.437   4.122   5.631  0.0864  0.5487 -0.2443
13919TIP3    H163248   3.403   4.180   5.563 -0.7837  2.0040  1.3553
13919TIP3    H263249   3.450   4.179   5.706 -0.4926 -1.2878  1.3216
13920TIP3   OH263250   4.322   0.912  11.108  0.4356  0.4543  0.0462
13920TIP3    H163251   4.372   0.866  11.040  0.5504 -1.0916  1.1452
13920TIP3    H263252   4.337   1.005  11.089  2.4495  0.0446 -0.6125
13921TIP3   OH263253   4.203   6.109   3.218  0.5858  0.4843  0.5489
13921TIP3    H163254   4.271   6.108   3.151  0.8331  2.5513  0.7251
13921TIP3    H263255   4.122   6.126   3.170  0.5335  0.3898  0.6023
13922TIP3   OH263256   5.373   6.077   0.169  0.0269  0.6364  0.6487
13922TIP3    H163257   5.446   6.134   0.146  0.1804  0.7800  1.4528
13922TIP3    H263258   5.358   6.024   0.091  0.6998  0.9177  0.3224
13923TIP3   OH263259   5.941   6.042  11.455 -0.4716 -0.1912  0.2880
13923TIP3    H163260   5.933   6.109  11.387 -1.2774 -1.8616 -1.3459
13923TIP3    H263261   6.008   5.981  11.421  0.4437 -0.1246  1.8548
13924TIP3   OH263262   3.595   1.446  13.386  0.0620  0.4327  0.5260
13924TIP3    H163263   3.690   1.453  13.381  0.2119 -0.6041  1.5378
13924TIP3    H263264   3.565   1.468  13.298  1.2183  0.9822  0.2513
13925TIP3   OH263265   5.502   5.976   3.123 -0.3582 -0.3414 -0.2175
13925TIP3    H163266   5.475   5.939   3.038  0.2647 -1.1736 -0.0692
13925TIP3    H263267   5.446   5.932   3.187 -0.2416 -0.3515 -0.1230
13926TIP3   OH263268   3.469   0.941   5.486 -0.1380  0.1762 -0.0290
13926TIP3    H163269   3.457   0.962   5.578 -0.0650 -0.2753  0.0878
13926TIP3    H263270   3.381   0.946   5.449 -0.0841  0.9416 -0.0672
13927TIP3   OH263271   1.335   6.357   2.457  0.5608  0.0157  0.7047
13927TIP3    H163272   1.397   6.301   2.410  0.0521 -0.5302  0.6715
13927TIP3    H263273   1.258   6.360   2.400  0.9440  1.6042  0.1976
13928TIP3   OH263274   2.923   2.492  15.041 -0.2767 -1.0197  0.3171
13928TIP3    H163275   2.962   2.462  14.959  0.0318  0.4587 -0.1115
13928TIP3    H263276   2.861   2.423  15.065  0.0625 -1.7584 -0.8383
13929TIP3   OH263277   1.708   0.271  11.742 -0.8107  0.2414  0.7247
13929TIP3    H163278   1.623   0.294  11.704 -0.4424 -0.6009 -0.6688
13929TIP3    H263279   1.769   0.277  11.669  0.8569  3.1984  2.1500
13930TIP3   OH263280   1.244   1.823   2.581  0.3524  0.3176 -0.4640
13930TIP3    H163281   1.150   1.812   2.592  0.4390  1.5153  2.4305
13930TIP3    H263282   1.253   1.902   2.527 -0.2573 -0.7064 -2.1121
13931TIP3   OH263283   5.823   4.937  10.484 -0.0399 -0.2775  0.2096
13931TIP3    H163284   5.754   4.999  10.506  0.6265 -0.6469  4.0591
13931TIP3    H263285   5.779   4.867  10.436 -1.8069  0.7061  0.3260
13932TIP3   OH263286   3.855   5.718   3.509  0.4752 -0.5356  0.3377
13932TIP3    H163287   3.930   5.734   3.567 -0.0932 -0.5365  1.0849
13932TIP3    H263288   3.894   5.685   3.428  1.2749 -0.6447  0.7578
13933TIP3   OH263289   2.789   0.547  15.010  0.4475  0.0585  0.8014
13933TIP3    H163290   2.815   0.581  15.096  1.5312 -1.6756  1.2115
13933TIP3    H263291   2.810   0.454  15.013 -0.0724 -0.1791 -1.1367
13934TIP3   OH263292   0.433   3.965  11.096  0.4836 -0.2872 -0.4635
13934TIP3    H163293   0.462   3.998  11.012  3.6661  0.5996  0.8572
13934TIP3    H263294   0.506   3.913  11.129 -1.7879 -3.1626  0.5386
13935TIP3   OH263295   4.767   1.576  12.713 -0.3833  0.2011 -0.3271
13935TIP3    H163296   4.693   1.517  12.723  0.1929 -0.8236 -1.7129
13935TIP3    H263297   4.838   1.535  12.763  0.1393 -0.5636 -1.6352
13936TIP3   OH263298   5.212   0.632   4.128 -0.4838  0.2473 -0.0496
13936TIP3    H163299   5.142   0.621   4.192 -1.8784  2.4812 -1.0619
13936TIP3    H263300   5.267   0.701   4.163 -1.9761  2.4110 -1.6852
13937TIP3   OH263301   2.917   3.319   2.383 -0.5339 -0.0612  0.0579
13937TIP3    H163302   2.939   3.228   2.365 -3.0684 -0.8932  0.7728
13937TIP3    H263303   2.972   3.342   2.458  0.6726 -0.7042 -0.5836
13938TIP3   OH263304   5.482   1.008   5.312  0.0212  0.3222  0.4660
13938TIP3    H163305   5.424   0.988   5.386 -2.4279 -0.0454 -1.4047
13938TIP3    H263306   5.504   0.922   5.275  0.9438  0.5168  0.5388
13939TIP3   OH263307   3.157   6.260  12.062 -0.0130 -0.0994  0.3373
13939TIP3    H163308   3.070   6.223  12.044  0.4913 -0.9361 -0.5151
13939TIP3    H263309   3.175   6.315  11.986  0.2940 -0.1106  0.4008
13940TIP3   OH263310   6.341   2.131   1.092 -0.4867 -0.2125  0.3008
13940TIP3    H163311   6.351   2.087   1.008  1.5116  1.9646 -0.7408
13940TIP3    H263312   6.260   2.182   1.083 -1.2924 -1.4073  0.4755
13941TIP3   OH263313   4.440   1.165  11.066  0.7942 -0.0700 -0.0351
13941TIP3    H163314   4.425   1.242  11.121 -2.4378 -0.2249 -0.5149
13941TIP3    H263315   4.502   1.195  10.999 -0.4011  2.1798 -0.2437
13942TIP3   OH263316   5.938   4.373  17.136  0.5767  0.2190  0.0105
13942TIP3    H163317   5.995   4.319  17.082  1.1066  0.8235 -0.0579
13942TIP3    H263318   5.997   4.439  17.174 -0.0166  0.6385  0.2257
13943TIP3   OH263319   4.801   5.056   1.032 -0.3410 -0.9023 -0.6254
13943TIP3    H163320   4.815   5.063   0.937  1.8375  1.3594 -0.2558
13943TIP3    H263321   4.822   4.965   1.053 -1.6301 -1.6561 -2.3646
13944TIP3   OH263322   5.624   0.108  13.412 -0.4400  0.2425  0.9317
13944TIP3    H163323   5.696   0.172  13.417 -1.2905  1.1246  2.4078
13944TIP3    H263324   5.599   0.109  13.319 -1.1184  2.9018  1.0550
13945TIP3   OH263325   0.672   0.016   1.873 -0.6457 -0.2672  0.3039
13945TIP3    H163326   0.604   0.075   1.842 -0.9255 -0.9082 -0.3518
13945TIP3    H263327   0.660  -0.063   1.819  0.4574 -0.4746  0.3544
13946TIP3   OH263328   5.433   2.739  16.647  0.3695 -0.1192 -0.0997
13946TIP3    H163329   5.457   2.813  16.591  1.1532 -1.4646 -1.6418
13946TIP3    H263330   5.517   2.703  16.676  0.0909 -1.3199 -0.6814
13947TIP3   OH263331   0.350   0.171   1.134 -0.0447  0.6929  0.0806
13947TIP3    H163332   0.399   0.104   1.086  0.6559  1.0838  0.2348
13947TIP3    H263333   0.315   0.126   1.210 -0.4267  0.2708 -0.3372
13948TIP3   OH263334   4.157   4.814   3.891  0.5715 -0.2024  0.5423
13948TIP3    H163335   4.163   4.869   3.813  0.9124  0.9789  1.3776
13948TIP3    H263336   4.152   4.725   3.857  0.7873  0.2851 -0.8251
13949TIP3   OH263337   6.415   1.194   0.662  0.1886  0.0419  0.9209
13949TIP3    H163338   6.386   1.195   0.571 -1.2996  1.3219  1.3641
13949TIP3    H263339   6.488   1.132   0.664 -0.1143 -0.4184 -1.0197
13950TIP3   OH263340   4.093   5.651  12.106 -0.2991 -0.2883 -0.0871
13950TIP3    H163341   4.100   5.556  12.095 -1.7442 -0.4226 -0.0752
13950TIP3    H263342   4.166   5.674  12.163 -1.4575 -1.8166  2.1467
13951TIP3   OH263343   1.261   1.598   0.766  0.6061 -0.5312  0.1370
13951TIP3    H163344   1.260   1.643   0.682  1.2500  0.6934  0.7647
13951TIP3    H263345   1.259   1.505   0.743 -1.2783 -0.2398 -1.1777
13952TIP3   OH263346   6.169   3.238  13.626  0.4018  0.3673  0.4339
13952TIP3    H163347   6.201   3.268  13.541  1.1427  1.6756  1.1504
13952TIP3    H263348   6.242   3.252  13.686  0.5595 -2.2665  0.9849
13953TIP3   OH263349   2.812   4.005  11.435 -0.1720  0.1320  0.0340
13953TIP3    H163350   2.840   3.944  11.367  1.2933 -0.7838  1.3633
13953TIP3    H263351   2.879   4.073  11.436  0.4975 -0.5055  1.3104
13954TIP3   OH263352   1.435   5.861  15.475  0.2185 -0.1164  0.2619
13954TIP3    H163353   1.369   5.879  15.407 -0.6996  0.1698  1.1999
13954TIP3    H263354   1.383   5.841  15.553  1.2314  0.9539  1.2455
13955TIP3   OH263355   4.671   6.765   3.497 -0.1717  0.1678 -0.7965
13955TIP3    H163356   4.664   6.831   3.565  2.5368  0.7044 -0.9629
13955TIP3    H263357   4.684   6.683   3.544 -2.1507 -0.1008 -0.6324
13956TIP3   OH263358   4.210   4.497   1.934  0.3391  0.1744 -0.0720
13956TIP3    H163359   4.215   4.588   1.903 -1.5179  1.5415  3.0976
13956TIP3    H263360   4.301   4.469   1.941  0.9311  1.2877 -2.2311
13957TIP3   OH263361   3.704   5.758  15.712 -0.6314  0.2923  0.0389
13957TIP3    H163362   3.623   5.750  15.661 -0.4052 -1.5177 -0.1159
13957TIP3    H263363   3.730   5.850  15.703 -2.2847  0.7364 -0.4825
13958TIP3   OH263364   2.185   4.391   2.236  0.6185 -0.5454  0.2315
13958TIP3    H163365   2.127   4.412   2.163 -0.1616  0.2231  1.0514
13958TIP3    H263366   2.264   4.355   2.194  0.9384  1.5477 -1.1118
13959TIP3   OH263367   4.918   5.315  12.481  0.2415  0.2113 -0.1142
13959TIP3    H163368   4.957   5.388  12.529 -0.6242  0.7218 -0.1526
13959TIP3    H263369   4.880   5.355  12.403 -0.5536 -0.2120  0.0389
13960TIP3   OH263370   6.627   4.767  10.779  0.2668 -0.4246 -0.3547
13960TIP3    H163371   6.630   4.744  10.872 -0.1836 -1.2719 -0.5360
13960TIP3    H263372   6.652   4.859  10.776 -2.7776  0.5817  0.9713
13961TIP3   OH263373   2.979   3.722   0.783 -0.2317  0.1585  0.2485
13961TIP3    H163374   3.028   3.803   0.771  3.5151 -2.0911 -1.8125
13961TIP3    H263375   2.925   3.715   0.704 -0.5202  0.6257  0.4051
13962TIP3   OH263376   4.753   3.220  13.690  0.4529  0.7118  0.3077
13962TIP3    H163377   4.814   3.153  13.662  1.0073  1.8455 -1.3311
13962TIP3    H263378   4.788   3.301  13.653 -2.0380  1.3993 -0.7056
13963TIP3   OH263379   5.959   1.361  15.821  0.0739 -0.0375 -0.3367
13963TIP3    H163380   6.001   1.375  15.906 -1.8792  0.8096  0.5293
13963TIP3    H263381   6.024   1.392  15.758  1.4827 -0.4803  0.8132
13964TIP3   OH263382   2.695   6.056  10.598  0.4789 -0.8774  0.3101
13964TIP3    H163383   2.700   6.093  10.510 -2.3042 -0.6946  0.1372
13964TIP3    H263384   2.682   5.962  10.584 -3.3455 -0.4890  0.2580
13965TIP3   OH263385   1.310   4.521  16.569  0.1977  0.8145 -0.0735
13965TIP3    H163386   1.346   4.494  16.485  0.5663  0.2103  0.2652
13965TIP3    H263387   1.376   4.581  16.605  0.2143  0.7905 -0.0634
13966TIP3   OH263388   0.325   3.318  17.142  0.1987  0.2405 -0.3852
13966TIP3    H163389   0.295   3.377  17.073  0.1219 -0.8582 -1.3053
13966TIP3    H263390   0.374   3.375  17.201 -1.0931  1.4984 -0.4662
13967TIP3   OH263391   5.231   2.643  14.265  0.2187 -0.2371 -0.0416
13967TIP3    H163392   5.291   2.570  14.249  2.3358  1.2799  0.6120
13967TIP3    H263393   5.252   2.707  14.197  0.0899  0.7629  0.8329
13968TIP3   OH263394   5.360   6.397   1.347 -0.1706  0.1869 -0.1245
13968TIP3    H163395   5.381   6.476   1.397 -0.8983  0.5183 -0.3324
13968TIP3    H263396   5.272   6.373   1.375 -0.7719  0.6279 -1.5242
13969TIP3   OH263397   3.853   0.591   2.160 -0.1542  0.3390  0.1920
13969TIP3    H163398   3.898   0.673   2.181  0.7804 -0.7123  2.5979
13969TIP3    H263399   3.893   0.562   2.078  1.0950  1.1852  0.4741
13970TIP3   OH263400   0.086   1.741   3.251 -0.1419  0.4397 -0.2772
13970TIP3    H163401   0.072   1.804   3.321 -2.7049 -0.6766  0.3500
13970TIP3    H263402   0.008   1.747   3.197  0.2670 -1.0615 -1.1128
13971TIP3   OH263403   6.345   5.695   3.668  0.3271 -0.3658  0.0934
13971TIP3    H163404   6.385   5.778   3.642  1.6653 -0.7484  0.8388
13971TIP3    H263405   6.344   5.698   3.763 -0.5361 -0.7903  0.1035
13972TIP3   OH263406   2.545   1.563   6.036  0.5599 -0.1530 -0.1306
13972TIP3    H163407   2.616   1.544   5.974  0.1365  1.0787 -1.0187
13972TIP3    H263408   2.584   1.624   6.099  0.2917  0.5022 -0.6026
13973TIP3   OH263409   6.142   1.818   3.466  1.1303 -0.0589  0.2826
13973TIP3    H163410   6.049   1.801   3.456  1.4951 -1.2163 -1.8785
13973TIP3    H263411   6.156   1.902   3.423  1.5799 -1.7298 -3.2490
13974TIP3   OH263412   0.955   5.329   5.322  0.0102 -0.3211 -0.2957
13974TIP3    H163413   0.881   5.287   5.278  0.5613 -1.2954 -0.3074
13974TIP3    H263414   0.958   5.287   5.408  0.4873 -0.2201 -0.2608
13975TIP3   OH263415   2.775   2.559   1.701  0.3723 -0.4902  0.4296
13975TIP3    H163416   2.718   2.507   1.758 -0.4250  0.1571  0.2537
13975TIP3    H263417   2.730   2.559   1.617  1.7093 -1.7158 -0.3309
13976TIP3   OH263418   4.922   2.042   1.425 -0.1236 -0.5707 -0.5693
13976TIP3    H163419   4.890   1.963   1.381  0.9758 -0.3593 -1.8073
13976TIP3    H263420   4.958   2.096   1.355  2.6334 -0.6595  0.6557
13977TIP3   OH263421   1.461   4.409   4.861 -0.0903  0.2068  0.5988
13977TIP3    H163422   1.487   4.395   4.952  1.5655  3.1796  0.6973
13977TIP3    H263423   1.378   4.457   4.867  1.8459  3.8379  0.8120
13978TIP3   OH263424   5.280   4.629   4.486  0.0818  0.3224  0.1903
13978TIP3    H163425   5.236   4.589   4.411  0.0728 -0.0755  0.4100
13978TIP3    H263426   5.251   4.721   4.483  0.2235  0.3570 -0.3960
13979TIP3   OH263427   4.263   2.047  15.336  0.5768  0.3484  0.3015
13979TIP3    H163428   4.253   2.076  15.245 -1.7888 -0.1350  0.3304
13979TIP3    H263429   4.339   2.095  15.369 -0.1791  2.6641 -1.1030
13980TIP3   OH263430   5.332   3.866   4.015  0.1008  0.3144  0.2348
13980TIP3    H163431   5.424   3.852   4.037 -0.2050 -0.3738  1.1636
13980TIP3    H263432   5.329   3.955   3.980  1.3145 -0.1053 -1.0244
13981TIP3   OH263433   3.983   2.716   1.341  0.4945 -0.9974 -0.8845
13981TIP3    H163434   3.965   2.693   1.432  1.7803  0.5762 -0.1685
13981TIP3    H263435   4.060   2.665   1.318  0.9246 -0.4760 -0.6406
13982TIP3   OH263436   1.526   0.102  14.258 -0.0688  0.2430  0.1410
13982TIP3    H163437   1.537   0.030  14.321  0.1404  0.0759 -0.0834
13982TIP3    H263438   1.504   0.178  14.311 -3.8279 -0.6806  0.2098
13983TIP3   OH263439   0.331   5.338   4.093 -0.4460  0.0360 -0.2081
13983TIP3    H163440   0.322   5.251   4.056  0.5585 -0.7362  1.2466
13983TIP3    H263441   0.347   5.323   4.187 -0.9230  1.8032  0.1966
13984TIP3   OH263442   2.998   5.125   1.438 -0.5134  0.5562  0.1477
13984TIP3    H163443   2.929   5.104   1.501 -0.7300  0.4737 -0.1159
13984TIP3    H263444   2.952   5.145   1.357 -0.2030  0.0207 -0.1651
13985TIP3   OH263445   3.968   4.510  16.076  0.0668  0.3277 -0.2831
13985TIP3    H163446   3.902   4.541  16.137  1.1379 -0.3206  1.2943
13985TIP3    H263447   4.051   4.539  16.114  0.8534 -1.2861 -0.6700
13986TIP3   OH263448   3.091   1.360   5.073  0.0190 -0.1427 -0.4817
13986TIP3    H163449   3.168   1.408   5.043  0.6367 -1.7347 -1.6488
13986TIP3    H263450   3.017   1.416   5.051  0.7982  1.1948  0.1910
13987TIP3   OH263451   4.808   3.489  12.635  0.4389 -0.0093 -0.1149
13987TIP3    H163452   4.789   3.520  12.546 -2.2091 -0.2326  0.2873
13987TIP3    H263453   4.871   3.419  12.623  1.0959  0.7974 -1.6905
13988TIP3   OH263454   3.865   4.674  10.647 -0.7110  0.2753  0.5777
13988TIP3    H163455   3.908   4.604  10.597  0.2185 -0.1319  1.8941
13988TIP3    H263456   3.855   4.745  10.583 -0.1360 -0.4440 -0.3573
13989TIP3   OH263457   2.744   1.621  12.868  0.5103  0.0942 -0.1313
13989TIP3    H163458   2.747   1.580  12.954  1.5332 -2.0034 -1.0805
13989TIP3    H263459   2.680   1.570  12.819  0.3583  0.8976 -0.7955
13990TIP3   OH263460   6.406   3.123  16.724 -0.3682  0.4832  0.1073
13990TIP3    H163461   6.460   3.146  16.800  3.4094 -0.4699 -2.0210
13990TIP3    H263462   6.417   3.197  16.664  0.3319 -0.6083 -1.1797
13991TIP3   OH263463   2.041   6.097  15.350 -0.1569 -0.5294 -0.1014
13991TIP3    H163464   2.046   6.188  15.379 -1.2354 -0.8223  1.1003
13991TIP3    H263465   2.015   6.049  15.428  1.4298 -2.0395 -0.4488
13992TIP3   OH263466   3.233   2.199   3.779  0.6402 -0.2124  0.0820
13992TIP3    H163467   3.194   2.112   3.782  0.5412 -0.1582  0.4164
13992TIP3    H263468   3.255   2.219   3.870  3.3855 -1.1035 -0.2860
13993TIP3   OH263469   2.888   4.162  14.725  0.0162 -0.3314  0.1739
13993TIP3    H163470   2.865   4.205  14.808  1.5877 -1.1363  1.0835
13993TIP3    H263471   2.981   4.142  14.734 -0.5313 -3.7232 -0.2347
13994TIP3   OH263472   5.224   5.931  12.238  0.7120  0.3961  0.5873
13994TIP3    H163473   5.193   5.887  12.317 -0.1861 -1.9476 -0.9437
13994TIP3    H263474   5.317   5.910  12.234  0.8264  0.7815  1.1692
13995TIP3   OH263475   4.663   1.852  11.197 -0.1152  0.4119 -0.0868
13995TIP3    H163476   4.743   1.873  11.148 -0.2674 -0.3008 -0.6726
13995TIP3    H263477   4.614   1.934  11.198 -0.5211  0.2472 -1.9548
13996TIP3   OH263478   3.974   3.450  13.266 -0.2289  0.5428  0.7225
13996TIP3    H163479   3.915   3.403  13.325 -0.0881  0.1514  0.5515
13996TIP3    H263480   4.044   3.483  13.323 -0.3044  0.5093  0.8353
13997TIP3   OH263481   6.026   2.652   5.632 -0.4500 -0.1411  0.1974
13997TIP3    H163482   5.972   2.709   5.578  1.4488  0.6340 -0.9815
13997TIP3    H263483   6.027   2.693   5.718 -1.7849 -0.2447  0.2845
13998TIP3   OH263484   3.589   3.582   2.330  0.1488  0.6834 -0.4437
13998TIP3    H163485   3.519   3.542   2.278 -0.7496 -0.7177  1.6947
13998TIP3    H263486   3.660   3.518   2.328 -0.2585  0.1740  0.7875
13999TIP3   OH263487   1.872   3.964  15.012 -0.5022 -0.1455 -0.5235
13999TIP3    H163488   1.814   4.037  14.991 -0.8568 -0.3490 -0.2592
13999TIP3    H263489   1.914   3.989  15.094 -0.8752 -0.3782 -0.2545
14000TIP3   OH263490   1.896   2.328  16.058 -0.4362 -0.4794 -0.0080
14000TIP3    H163491   1.936   2.241  16.061  2.7294  0.8171  3.3624
14000TIP3    H263492   1.964   2.384  16.019  0.2278  1.3378  3.3584
14001TIP3   OH263493   3.130   6.515  15.716  0.2841  0.2998  0.2005
14001TIP3    H163494   3.149   6.606  15.693 -0.9484 -0.1687 -3.2306
14001TIP3    H263495   3.213   6.469  15.704  1.1507  0.9960  2.8359
14002TIP3   OH263496   3.206   5.351   0.078 -0.1088  0.1577 -0.2238
14002TIP3    H163497   3.162   5.271   0.106  0.4791 -0.2288 -0.3671
14002TIP3    H263498   3.144   5.394   0.019 -0.1885 -0.5139 -0.6435
14003TIP3   OH263499   2.997   3.174  10.383  0.3265  0.4008 -0.1227
14003TIP3    H163500   3.085   3.200  10.357 -0.1259  1.0615 -1.0651
14003TIP3    H263501   2.942   3.249  10.359 -0.4287  0.1783  0.8501
14004TIP3   OH263502   4.423   1.004   3.401 -0.3110  0.2841 -0.3046
14004TIP3    H163503   4.435   1.081   3.456 -1.2035 -0.9672  1.7686
14004TIP3    H263504   4.512   0.980   3.374  0.4693 -0.2412  2.4046
14005TIP3   OH263505   2.063   6.234   1.135 -0.1373  0.6537  0.0961
14005TIP3    H163506   1.968   6.227   1.149 -0.6837  0.5120 -2.8816
14005TIP3    H263507   2.082   6.165   1.071  2.0831  0.4417  0.9216
14006TIP3   OH263508   2.611   3.861   5.700 -0.0052  0.3800  0.2513
14006TIP3    H163509   2.593   3.770   5.725 -0.2168  0.1243 -0.7909
14006TIP3    H263510   2.703   3.874   5.725  0.1923 -0.2960 -0.0921
14007TIP3   OH263511   5.957   0.205  13.176  0.1277  0.1160 -0.5523
14007TIP3    H163512   6.020   0.173  13.241 -2.1397 -0.7562  1.3825
14007TIP3    H263513   5.946   0.297  13.197  1.9182  0.7162 -1.9967
14008TIP3   OH263514   3.301   1.455  11.667  0.4864  0.3897 -0.0845
14008TIP3    H163515   3.244   1.532  11.674 -0.4487 -0.3486  0.4888
14008TIP3    H263516   3.244   1.385  11.637  1.6417  0.2401 -2.1561
14009TIP3   OH263517   3.397   0.969  14.846 -0.0745  0.5740 -0.7704
14009TIP3    H163518   3.480   0.976  14.799 -1.6332  1.3224 -3.6198
14009TIP3    H263519   3.347   1.045  14.819 -2.6638 -1.1659 -1.2115
14010TIP3   OH263520   4.947   6.512   2.601 -0.4299  0.6011 -0.1387
14010TIP3    H163521   4.880   6.468   2.654 -1.0124 -0.1576 -1.4531
14010TIP3    H263522   4.899   6.577   2.551  0.2426  1.8980  0.8343
14011TIP3   OH263523   4.840   1.120  11.314 -0.2789  0.5750 -0.0759
14011TIP3    H163524   4.785   1.063  11.259  0.3203 -0.7212  0.6140
14011TIP3    H263525   4.788   1.133  11.393 -0.1264  0.3869  0.0575
14012TIP3   OH263526   3.743   2.313   0.917 -0.1831 -0.1886  0.2736
14012TIP3    H163527   3.685   2.262   0.860 -1.0604 -3.0668  3.4088
14012TIP3    H263528   3.831   2.284   0.894 -0.3004  0.5194 -1.1832
14013TIP3   OH263529   1.422   4.583   2.057 -0.4081 -0.3007  0.0960
14013TIP3    H163530   1.409   4.488   2.059 -0.3001 -0.3834 -1.6817
14013TIP3    H263531   1.373   4.613   1.981  3.1162  0.4122 -2.1486
14014TIP3   OH263532   2.124   4.234   2.463  0.5365  0.6099  0.1763
14014TIP3    H163533   2.131   4.302   2.396  0.2391  1.7770  1.2974
14014TIP3    H263534   2.039   4.250   2.505  0.2482 -0.7456  0.1612
14015TIP3   OH263535   3.967   1.243  15.440  0.1516 -0.3552 -0.2272
14015TIP3    H163536   3.961   1.244  15.536 -0.1238  2.2425 -0.1949
14015TIP3    H263537   4.006   1.328  15.418 -1.1700 -0.2692 -2.4786
14016TIP3   OH263538   0.691   3.899  11.292  0.4267  0.1728  0.5883
14016TIP3    H163539   0.763   3.950  11.329  0.9268  0.7536 -1.1057
14016TIP3    H263540   0.732   3.817  11.262  0.5125  0.6792 -0.7679
14017TIP3   OH263541   1.678   3.759   4.595 -0.0041 -0.4175  0.5893
14017TIP3    H163542   1.586   3.749   4.619  0.1129 -1.3351  0.6903
14017TIP3    H263543   1.686   3.851   4.567 -1.3069 -0.7199 -0.9266
14018TIP3   OH263544   5.862   2.531  16.991 -0.2594  0.2915  0.4415
14018TIP3    H163545   5.951   2.531  16.954 -0.4028  0.1112  0.0946
14018TIP3    H263546   5.805   2.525  16.915 -0.6025  1.4791  0.5890
14019TIP3   OH263547   5.522   1.631  16.587  0.0896 -0.1418 -0.2101
14019TIP3    H163548   5.583   1.673  16.526  1.2727 -0.9016  0.4095
14019TIP3    H263549   5.573   1.562  16.628 -1.1106 -0.5910  0.5820
14020TIP3   OH263550   3.904   1.404  11.962  0.0976  0.2388 -0.1470
14020TIP3    H163551   3.995   1.375  11.960 -0.0428 -0.3400  1.0606
14020TIP3    H263552   3.865   1.366  11.883  0.1486 -2.1665  0.9264
14021TIP3   OH263553   2.910   2.225  11.341 -0.4851  0.0754 -0.1555
14021TIP3    H163554   2.831   2.175  11.321 -1.7683  1.9643 -0.0635
14021TIP3    H263555   2.939   2.259  11.256  0.6850 -1.1788 -0.2928
14022TIP3   OH263556   4.607   6.417  10.715 -0.2774 -0.0036  0.1504
14022TIP3    H163557   4.637   6.332  10.683  2.1430  0.4330  1.0002
14022TIP3    H263558   4.627   6.478  10.645 -1.3426 -0.0178 -0.1741
14023TIP3   OH263559   2.801   5.119   1.645 -0.1634  0.0305 -0.9335
14023TIP3    H163560   2.736   5.074   1.698  0.8404 -0.4175 -0.0329
14023TIP3    H263561   2.834   5.189   1.701 -1.4713  1.7567 -2.1987
14024TIP3   OH263562   4.154   2.345   4.382  0.1486  0.6955  0.3652
14024TIP3    H163563   4.241   2.354   4.343  0.3849  1.1176  0.9617
14024TIP3    H263564   4.158   2.400   4.461 -0.0724 -0.6867  1.3699
14025TIP3   OH263565   6.206   6.005  10.802  0.1577 -0.0822 -0.3535
14025TIP3    H163566   6.219   5.916  10.769 -1.4587 -0.3654 -0.3052
14025TIP3    H263567   6.111   6.018  10.800  0.4339  2.4540 -2.4902
14026TIP3   OH263568   2.980   2.915   0.581 -0.1729 -0.1917 -0.1121
14026TIP3    H163569   3.040   2.953   0.517  0.6290 -0.9188  0.1961
14026TIP3    H263570   2.974   2.980   0.651 -1.0059  0.5840 -0.8581
14027TIP3   OH263571   3.961   3.550   2.949  0.0269 -0.1999  0.4835
14027TIP3    H163572   3.971   3.637   2.911 -1.6436 -1.3785 -3.0926
14027TIP3    H263573   4.047   3.509   2.940  0.6635  0.8116  1.6607
14028TIP3   OH263574   3.903   2.332  13.269 -0.5864  0.0096  0.4010
14028TIP3    H163575   3.843   2.331  13.344 -0.0011 -0.1618  0.8661
14028TIP3    H263576   3.965   2.402  13.288  0.0010 -0.5148  0.4202
14029TIP3   OH263577   0.326   4.247   0.949  0.1050 -0.0591 -0.1233
14029TIP3    H163578   0.413   4.268   0.982  0.6204  0.9453 -1.9369
14029TIP3    H263579   0.266   4.285   1.013  1.0061 -0.0165  0.7125
14030TIP3   OH263580   2.830   1.612   0.672 -0.7404 -0.1718 -0.5514
14030TIP3    H163581   2.837   1.684   0.735 -0.4951 -1.9995  1.6602
14030TIP3    H263582   2.795   1.653   0.593  1.5254  2.7740 -0.2241
14031TIP3   OH263583   4.197   4.104  16.931  0.4422  0.0628 -0.1270
14031TIP3    H163584   4.103   4.105  16.914  0.2720  1.6300  0.6795
14031TIP3    H263585   4.238   4.087  16.846 -0.5388  0.6672 -0.7320
14032TIP3   OH263586   1.866   4.337   6.154  0.1375 -0.2075  0.0393
14032TIP3    H163587   1.884   4.344   6.247 -0.6397 -2.3827  0.4029
14032TIP3    H263588   1.774   4.361   6.145  0.0694 -0.5095 -0.0893
14033TIP3   OH263589   2.857   3.782   1.519  0.1937 -0.3336  0.3356
14033TIP3    H163590   2.942   3.779   1.476  1.0058  0.0903  1.8533
14033TIP3    H263591   2.804   3.840   1.465  1.7556  1.6820  0.8664
14034TIP3   OH263592   3.631   1.936  10.853  0.5308 -1.0836  0.3289
14034TIP3    H163593   3.720   1.902  10.844  0.3620 -1.6762  0.7939
14034TIP3    H263594   3.634   2.023  10.813  1.5198 -0.7739  1.0176
14035TIP3   OH263595   5.509   5.231  11.974 -0.3483  0.3354 -0.3307
14035TIP3    H163596   5.460   5.312  11.983  1.2280  1.4002 -1.0112
14035TIP3    H263597   5.584   5.254  11.921  0.4541 -1.4428 -0.0321
14036TIP3   OH263598   5.945   0.514   0.907  0.1751 -0.0466 -0.2135
14036TIP3    H163599   5.933   0.445   0.973  0.2866 -1.5404 -1.6757
14036TIP3    H263600   5.884   0.491   0.837  0.1053  1.4558 -0.6741
14037TIP3   OH263601   2.108   5.155   0.047 -0.5321 -0.0895 -0.3848
14037TIP3    H163602   2.183   5.203   0.081 -0.3755 -2.4145  3.0093
14037TIP3    H263603   2.033   5.213   0.062  0.0702  0.5227  0.3013
14038TIP3   OH263604   5.754   3.984  10.421  0.0810 -0.6581 -0.0085
14038TIP3    H163605   5.665   3.993  10.387  0.3104  0.8521 -0.2797
14038TIP3    H263606   5.797   3.923  10.361 -1.2411 -2.9290  1.1738
14039TIP3   OH263607   5.585   2.936   3.309 -0.7510 -0.0617  0.0555
14039TIP3    H163608   5.551   2.995   3.242 -3.0701  2.0618  2.8064
14039TIP3    H263609   5.680   2.952   3.309 -0.7061  0.1036 -2.3878
14040TIP3   OH263610   4.567   3.828  10.476  0.0466 -0.3587 -0.2120
14040TIP3    H163611   4.567   3.903  10.534  1.6994  1.8310 -2.8122
14040TIP3    H263612   4.659   3.811  10.457 -0.3146 -2.6871 -0.1945
14041TIP3   OH263613   4.913   3.868   3.610 -0.1449  0.0484  0.1886
14041TIP3    H163614   4.977   3.892   3.676  1.4197 -0.2199 -1.1496
14041TIP3    H263615   4.913   3.941   3.548 -1.8504  0.4672  0.6379
14042TIP3   OH263616   1.742   0.443  16.890  0.0752 -0.8839  0.2400
14042TIP3    H163617   1.776   0.453  16.979  0.9015  1.5814 -0.2792
14042TIP3    H263618   1.653   0.409  16.902 -0.9236  2.0507  2.2316
14043TIP3   OH263619   5.976   1.996   0.108 -0.1582 -0.0477 -0.3858
14043TIP3    H163620   5.897   2.045   0.134 -0.1754  0.1928 -0.8743
14043TIP3    H263621   6.045   2.063   0.104  0.3558 -0.4493  1.2105
14044TIP3   OH263622   1.315   3.198  14.125 -0.2741  0.2904 -0.3853
14044TIP3    H163623   1.304   3.231  14.036 -0.5169  0.8935 -0.1349
14044TIP3    H263624   1.318   3.277  14.180  2.2758  0.0685 -0.1013
14045TIP3   OH263625   6.207   5.001   3.485  0.2675  0.1042  0.8040
14045TIP3    H163626   6.298   4.971   3.493  0.6803  1.0419 -0.1440
14045TIP3    H263627   6.207   5.087   3.527 -0.4903 -0.4044  1.9055
14046TIP3   OH263628   3.214   0.819   6.222 -0.2669 -0.4706 -0.3352
14046TIP3    H163629   3.258   0.734   6.219  1.3735  0.3542 -0.9345
14046TIP3    H263630   3.200   0.835   6.315  1.0773 -0.6178 -0.0796
14047TIP3   OH263631   5.050   5.785  11.377  0.2299  0.0293  0.2747
14047TIP3    H163632   5.127   5.748  11.332  0.4493 -0.6036  1.1590
14047TIP3    H263633   5.016   5.850  11.315  1.3768  0.2064 -0.2066
14048TIP3   OH263634   6.513   0.633  12.001  0.0938  0.1952 -0.0059
14048TIP3    H163635   6.531   0.721  11.969 -1.1525  0.0965 -1.0382
14048TIP3    H263636   6.418   0.624  11.996  0.0787 -0.7159  1.4263
14049TIP3   OH263637   1.654   2.128   0.081 -0.1990  0.5061  1.0390
14049TIP3    H163638   1.572   2.150   0.037  0.2514  3.0358  1.3417
14049TIP3    H263639   1.626   2.087   0.164 -1.0743 -1.0296  0.0358
14050TIP3   OH263640   0.215   5.924  13.161  0.8257  0.0982 -0.1287
14050TIP3    H163641   0.146   5.940  13.097  1.5034 -1.1443 -1.2239
14050TIP3    H263642   0.198   5.986  13.232  0.7857  2.4351 -2.0842
14051TIP3   OH263643   3.662   1.425   1.361  0.1089 -0.6409  1.0144
14051TIP3    H163644   3.711   1.400   1.282 -0.3160 -3.3205  1.4877
14051TIP3    H263645   3.579   1.458   1.328  0.0060 -1.5499  0.3078
14052TIP3   OH263646   6.779   0.759  16.821  0.3398  0.6532 -0.0072
14052TIP3    H163647   6.791   0.804  16.737  0.2666  0.6325 -0.0301
14052TIP3    H263648   6.716   0.814  16.868  0.8009  0.9586  0.2550
14053TIP3   OH263649   1.354   4.528  11.809 -0.6024  0.0188 -0.3114
14053TIP3    H163650   1.264   4.537  11.840 -0.1390  1.5385  0.6970
14053TIP3    H263651   1.393   4.462  11.866 -0.9665 -0.4075 -0.5452
14054TIP3   OH263652   0.892   0.604   3.172  0.4157 -0.3988 -0.2984
14054TIP3    H163653   0.940   0.594   3.090  0.8697  1.7818 -0.3720
14054TIP3    H263654   0.806   0.565   3.155  0.0976  1.0022 -2.2227
14055TIP3   OH263655   3.381   3.635  16.116 -0.2739 -0.3155 -0.1858
14055TIP3    H163656   3.435   3.714  16.118 -0.0401 -0.4679  1.2498
14055TIP3    H263657   3.445   3.563  16.116 -0.4746 -0.4964  0.1762
14056TIP3   OH263658   5.722   5.671  12.658  0.7558 -0.0925  0.1398
14056TIP3    H163659   5.699   5.692  12.567  0.2116 -1.5230 -0.0708
14056TIP3    H263660   5.791   5.606  12.650  1.9014  1.0028  0.7815
14057TIP3   OH263661   1.412   4.628  11.576  0.0995  0.1760  0.0850
14057TIP3    H163662   1.454   4.557  11.528  0.3272  0.3999 -0.0498
14057TIP3    H263663   1.423   4.604  11.668  0.5988  0.2737  0.0532
14058TIP3   OH263664   4.372   1.592   5.022  0.1304  0.3607  0.5528
14058TIP3    H163665   4.333   1.572   5.107 -0.0366  1.1951  0.6880
14058TIP3    H263666   4.421   1.513   4.998 -0.6506 -0.2490  0.9483
14059TIP3   OH263667   1.430   1.198   5.117 -0.1490 -0.8230 -0.1759
14059TIP3    H163668   1.340   1.202   5.148 -0.2841 -1.5617 -0.4458
14059TIP3    H263669   1.441   1.108   5.086  0.6671 -0.7299 -0.1877
14060TIP3   OH263670   3.125   5.059  14.474  0.0495 -0.0081  0.1120
14060TIP3    H163671   3.099   5.028  14.561  0.0355 -1.0607 -0.2480
14060TIP3    H263672   3.043   5.085  14.432 -0.0239 -0.1278  0.1810
14061TIP3   OH263673   6.367   6.776   1.651  0.0253  0.2164  0.2444
14061TIP3    H163674   6.376   6.777   1.747  0.8534 -0.5188  0.1830
14061TIP3    H263675   6.277   6.748   1.636  0.5466 -1.9343  0.8153
14062TIP3   OH263676   4.879   6.500   0.203 -0.5670  0.2737  0.3240
14062TIP3    H163677   4.856   6.581   0.156 -0.3342  1.3216  1.9396
14062TIP3    H263678   4.794   6.463   0.228 -0.6478  1.0973  1.3123
14063TIP3   OH263679   3.446   3.046   0.348 -0.4702  0.2202 -0.2744
14063TIP3    H163680   3.480   2.962   0.316 -0.3054 -0.4973  1.6246
14063TIP3    H263681   3.385   3.075   0.280  0.2854 -0.9012 -1.4701
14064TIP3   OH263682   3.028   0.143  12.439  0.0569  0.3618  0.3460
14064TIP3    H163683   3.006   0.121  12.529  1.3271 -0.5961  0.4567
14064TIP3    H263684   3.120   0.116  12.429 -0.4682 -0.9848 -1.6348
14065TIP3   OH263685   4.036   5.474   4.604 -0.0526 -1.0952  0.2313
14065TIP3    H163686   4.036   5.458   4.698  2.1723 -0.8472  0.3157
14065TIP3    H263687   4.125   5.455   4.576 -0.4388 -0.3079 -1.6849
14066TIP3   OH263688   6.339   4.836  16.294 -0.1948 -0.0347  0.0350
14066TIP3    H163689   6.243   4.831  16.298 -0.6268  4.1386 -0.4322
14066TIP3    H263690   6.365   4.856  16.384  0.3996 -2.1405  0.3610
14067TIP3   OH263691   1.511   4.346  12.567  0.0075 -0.1566  0.2966
14067TIP3    H163692   1.498   4.439  12.586  1.4495 -0.2448  1.9611
14067TIP3    H263693   1.495   4.338  12.473  0.6246  1.9336 -0.0328
14068TIP3   OH263694   1.346   1.721   4.270  0.5373  0.2558  0.2819
14068TIP3    H163695   1.340   1.681   4.357  2.9410 -1.2185 -0.1462
14068TIP3    H263696   1.348   1.647   4.209  1.4774  1.1432 -0.8206
14069TIP3   OH263697   3.646   0.298   2.018  0.2280  0.5556  0.2333
14069TIP3    H163698   3.725   0.256   2.054  0.4029  0.4113 -0.3109
14069TIP3    H263699   3.635   0.258   1.932 -1.0383 -0.1762  0.7123
14070TIP3   OH263700   5.700   5.853   1.095  0.3319 -0.7006  0.1083
14070TIP3    H163701   5.646   5.778   1.119  0.3455 -0.8105 -0.2015
14070TIP3    H263702   5.642   5.928   1.106 -0.1439 -0.8856 -0.9994
14071TIP3   OH263703   1.234   3.695   0.839 -0.3234 -0.2597  0.1894
14071TIP3    H163704   1.175   3.671   0.911 -0.1079 -1.0174  0.1170
14071TIP3    H263705   1.289   3.618   0.826  1.1430  0.6547  0.6871
14072TIP3   OH263706   2.890   5.403  14.531  0.1886 -0.5133 -0.0219
14072TIP3    H163707   2.929   5.410  14.619  1.2041 -0.6848 -0.4407
14072TIP3    H263708   2.893   5.492  14.497 -2.9205  0.1903  1.1778
14073TIP3   OH263709   2.106   5.697   1.632  0.1022 -0.0710  0.2741
14073TIP3    H163710   2.056   5.779   1.640 -0.0155 -0.2486  1.5757
14073TIP3    H263711   2.197   5.726   1.624 -0.1193  0.2333 -1.4078
14074TIP3   OH263712   2.612   3.769   4.636 -0.1503 -0.2851  1.1216
14074TIP3    H163713   2.668   3.711   4.584  1.4578  2.3467 -0.3071
14074TIP3    H263714   2.668   3.802   4.705  0.3240  2.6532 -0.5257
14075TIP3   OH263715   5.385   4.491  16.997 -0.1515  0.2984  0.4248
14075TIP3    H163716   5.299   4.524  17.025 -0.2914 -0.6720  1.1959
14075TIP3    H263717   5.382   4.397  17.016  0.4932 -0.0472 -1.0439
14076TIP3   OH263718   4.411   1.885   1.644  0.1033  0.1892 -0.6498
14076TIP3    H163719   4.459   1.938   1.581  1.1128 -0.1502 -0.1846
14076TIP3    H263720   4.458   1.898   1.727 -0.3995 -0.4182 -0.2601
14077TIP3   OH263721   3.218   3.593   0.860  0.2420 -0.2039 -0.2912
14077TIP3    H163722   3.255   3.548   0.784  0.5093  1.0803 -0.9471
14077TIP3    H263723   3.127   3.611   0.835  0.9263  2.3214 -1.3718
14078TIP3   OH263724   5.950   3.852  15.183  0.1964 -0.0124 -0.0159
14078TIP3    H163725   6.009   3.926  15.171 -0.6159  0.5532 -0.6793
14078TIP3    H263726   5.921   3.830  15.094 -1.3337  0.3628  0.3624
14079TIP3   OH263727   0.130   5.131   4.529  0.2037 -0.0779  0.0541
14079TIP3    H163728   0.201   5.071   4.504  0.8430  0.5853  0.2481
14079TIP3    H263729   0.108   5.106   4.619 -0.0035 -0.4578 -0.0957
14080TIP3   OH263730   2.887   4.367   2.249  0.4355 -0.2760 -0.4533
14080TIP3    H163731   2.966   4.403   2.208  0.6017  0.4455  0.4629
14080TIP3    H263732   2.906   4.274   2.261  1.8794  0.2189  1.3912
14081TIP3   OH263733   2.517   4.027   0.858  0.0881 -0.3811 -0.6563
14081TIP3    H163734   2.558   4.046   0.774  1.1898  0.4946  0.0423
14081TIP3    H263735   2.567   3.954   0.893  1.2700  0.8231  0.2924
14082TIP3   OH263736   6.515   2.679  12.734 -0.5185  0.1081 -0.4474
14082TIP3    H163737   6.547   2.636  12.654  0.6148 -0.3948  0.2652
14082TIP3    H263738   6.560   2.634  12.805 -2.0477  0.0754  0.5384
14083TIP3   OH263739   6.567   1.441  15.215  0.0439 -0.3146 -0.1651
14083TIP3    H163740   6.543   1.385  15.141  0.1910  0.5011 -0.8461
14083TIP3    H263741   6.592   1.524  15.175 -1.9402  0.8684  0.9241
14084TIP3   OH263742   1.850   2.234  15.267  0.4797  0.5459  0.2978
14084TIP3    H163743   1.766   2.274  15.248 -0.1214 -0.3929  0.8982
14084TIP3    H263744   1.895   2.297  15.323 -0.2669  0.5710  0.8701
14085TIP3   OH263745   1.396   3.978  14.833 -0.3024  0.1216 -0.5158
14085TIP3    H163746   1.315   3.933  14.807 -1.0702  1.8399 -1.2654
14085TIP3    H263747   1.379   4.070  14.814  2.2386  0.4203 -1.7224
14086TIP3   OH263748   1.704   1.409  11.603 -0.0001 -0.0033  0.0952
14086TIP3    H163749   1.659   1.493  11.606 -0.9262 -0.4564 -0.6247
14086TIP3    H263750   1.724   1.390  11.695  2.4304  2.1090  0.1229
14087TIP3   OH263751   1.401   6.659  12.523  0.4789  0.6721  0.6081
14087TIP3    H163752   1.446   6.574  12.525 -0.0706  0.3612 -0.2058
14087TIP3    H263753   1.318   6.642  12.479 -0.3738  1.2892  1.8847
14088TIP3   OH263754   5.622   1.617   0.045 -0.4525  0.2105  0.4277
14088TIP3    H163755   5.614   1.576  -0.041  0.5036  0.0464  0.4038
14088TIP3    H263756   5.554   1.684   0.047 -0.0251  0.7049 -0.7325
14089TIP3   OH263757   3.415   0.665   2.634 -0.1424 -0.4439 -0.0668
14089TIP3    H163758   3.505   0.693   2.649 -0.4887 -0.0533  1.4218
14089TIP3    H263759   3.419   0.570   2.635  0.2695 -0.4301 -0.1583
14090TIP3   OH263760   5.606   1.404  12.159  0.2385  0.0981  0.1235
14090TIP3    H163761   5.606   1.490  12.200  0.1783  1.1614 -2.0127
14090TIP3    H263762   5.514   1.378  12.158  0.4142 -0.8268  2.3169
14091TIP3   OH263763   0.637   5.665   3.020  0.2629 -0.2815 -0.7386
14091TIP3    H163764   0.661   5.598   3.084  1.5913  0.3150 -0.5610
14091TIP3    H263765   0.718   5.714   3.006 -0.3772  0.5309 -1.7715
14092TIP3   OH263766   3.923   0.896   5.136 -0.3898  0.3497  0.2434
14092TIP3    H163767   3.998   0.941   5.097 -0.7091 -0.3033 -1.1906
14092TIP3    H263768   3.941   0.897   5.230  0.2054  2.3486  0.1524
14093TIP3   OH263769   4.702   5.812  11.226 -0.3716 -0.4222  0.2158
14093TIP3    H163770   4.702   5.801  11.131  0.0675 -0.3884  0.2092
14093TIP3    H263771   4.743   5.732  11.259  0.8704  0.2158  0.2892
14094TIP3   OH263772   5.466   5.519  14.298 -0.1020 -0.5046  0.0360
14094TIP3    H163773   5.522   5.536  14.222  0.6290 -0.0394  0.6585
14094TIP3    H263774   5.487   5.430  14.325  1.1684  0.0287  0.9131
14095TIP3   OH263775   3.968   2.213  11.903  0.1871  0.6168  0.0538
14095TIP3    H163776   3.957   2.197  11.810  1.1683  0.6572 -0.0742
14095TIP3    H263777   3.909   2.150  11.945  0.2998  0.0834 -0.5716
14096TIP3   OH263778   1.096   4.430  11.959  0.0822 -0.7160  0.7835
14096TIP3    H163779   1.147   4.370  11.904  1.5228  0.8419  0.3206
14096TIP3    H263780   1.011   4.436  11.916 -0.2536 -2.7000  1.0775
14097TIP3   OH263781   4.280   0.094  14.146 -0.3437  0.3203 -0.0232
14097TIP3    H163782   4.293   0.188  14.163 -1.1739  0.6893 -1.2810
14097TIP3    H263783   4.365   0.062  14.117 -0.2173  0.8463 -0.2440
14098TIP3   OH263784   6.181   0.692   1.836 -0.6705 -0.1899  0.2741
14098TIP3    H163785   6.186   0.617   1.777 -2.8619 -0.8407  0.8567
14098TIP3    H263786   6.159   0.766   1.779 -1.9736 -0.6667  0.1259
14099TIP3   OH263787   4.755   6.372  14.246 -0.2828  0.6451 -0.1610
14099TIP3    H163788   4.729   6.301  14.188 -1.4906  0.2123  0.8547
14099TIP3    H263789   4.817   6.424  14.195 -1.6050  0.5331 -1.9815
14100TIP3   OH263790   4.330   3.726   5.621  0.1615  0.1058  0.3170
14100TIP3    H163791   4.272   3.653   5.643 -2.0255  2.0144  1.3069
14100TIP3    H263792   4.380   3.743   5.701  2.6653 -1.8464 -0.6704
14101TIP3   OH263793   5.006   1.691  11.674  0.1044  0.4258  0.2501
14101TIP3    H163794   4.919   1.653  11.689  0.8296 -0.3751  3.0301
14101TIP3    H263795   4.993   1.786  11.682 -0.3760  0.2576  1.9324
14102TIP3   OH263796   2.042   4.357  16.271  0.2743  0.1967 -0.4134
14102TIP3    H163797   1.961   4.351  16.220  0.7709  0.7026 -1.2903
14102TIP3    H263798   2.034   4.439  16.320  0.3981  0.4289 -0.7734
14103TIP3   OH263799   2.657   4.158  11.613 -0.3681 -0.1548 -0.2266
14103TIP3    H163800   2.687   4.108  11.538  0.5135  0.0026  0.0054
14103TIP3    H263801   2.586   4.107  11.650  1.0872 -1.7153  0.5394
14104TIP3   OH263802   6.375   2.076  13.377  0.0553  0.2588 -0.3076
14104TIP3    H163803   6.440   2.090  13.446 -1.0989  0.3681  0.7952
14104TIP3    H263804   6.354   1.983  13.383 -0.4809  0.3928 -0.1228
14105TIP3   OH263805   5.422   0.999  13.825 -0.2096  0.0977 -0.0845
14105TIP3    H163806   5.418   0.976  13.918 -0.8527  1.1837  0.1773
14105TIP3    H263807   5.338   0.973  13.790 -0.8262  1.6637  0.1493
14106TIP3   OH263808   4.270   5.129   4.444  0.3036 -0.3827  0.2248
14106TIP3    H163809   4.205   5.097   4.381 -0.8794  1.8188  0.2266
14106TIP3    H263810   4.258   5.224   4.445 -0.3062 -0.3238  4.3409
14107TIP3   OH263811   4.461   2.671   0.947 -0.0329  0.0075 -0.4010
14107TIP3    H163812   4.515   2.592   0.940  0.9403  0.3895  2.0132
14107TIP3    H263813   4.380   2.649   0.901 -0.6950 -3.2393  2.0476
14108TIP3   OH263814   5.011   1.317  14.474 -0.4102 -0.6136  0.0201
14108TIP3    H163815   4.944   1.298  14.408 -0.4623 -0.9237  0.1583
14108TIP3    H263816   4.962   1.345  14.551 -0.2921  0.9654 -0.4613
14109TIP3   OH263817   2.258   5.257  16.466  0.5381  0.1148  0.0377
14109TIP3    H163818   2.167   5.283  16.455  0.6715 -0.0450 -1.7366
14109TIP3    H263819   2.268   5.242  16.560 -1.3971 -0.3646  0.2059
14110TIP3   OH263820   6.596   5.745  11.394  0.2458  0.1563 -0.6088
14110TIP3    H163821   6.549   5.810  11.341 -0.6514  0.0611  0.0580
14110TIP3    H263822   6.534   5.719  11.461  1.0373 -0.4643 -0.0992
14111TIP3   OH263823   5.071   0.873  15.968 -0.2213 -0.1568 -0.1854
14111TIP3    H163824   5.010   0.800  15.961  0.6864 -0.7986 -4.7964
14111TIP3    H263825   5.030   0.943  15.917  1.2253  0.6919 -0.2388
14112TIP3   OH263826   0.111   6.007   1.252  0.0676  0.0585  0.2827
14112TIP3    H163827   0.091   6.099   1.236  2.2619  0.2070 -2.3760
14112TIP3    H263828   0.147   6.005   1.340  0.0721  1.7690  0.3553
14113TIP3   OH263829   4.080   0.873   1.767  0.0974 -0.3715 -0.2062
14113TIP3    H163830   3.985   0.869   1.761  0.2023 -2.4364 -1.4754
14113TIP3    H263831   4.102   0.961   1.737 -1.4419  0.4682  1.0294
14114TIP3   OH263832   3.868   1.137   3.650 -0.6565 -0.3513 -0.2023
14114TIP3    H163833   3.837   1.176   3.733 -0.5853 -0.6148 -0.0521
14114TIP3    H263834   3.870   1.043   3.667 -0.9300 -0.4313 -0.6031
14115TIP3   OH263835   2.842   2.235   5.338  0.2671  0.1345  0.1519
14115TIP3    H163836   2.770   2.173   5.352  1.9517 -1.4506  2.4579
14115TIP3    H263837   2.843   2.289   5.417  0.1322  1.7847 -0.9313
14116TIP3   OH263838   5.950   3.600  12.012 -0.6218  0.3433  0.0996
14116TIP3    H163839   5.969   3.665  12.080  1.8857  1.4150 -1.4928
14116TIP3    H263840   5.919   3.524  12.061  0.7747  1.1543  2.4232
14117TIP3   OH263841   2.693   1.869   4.901  0.1648 -0.5937 -0.2860
14117TIP3    H163842   2.621   1.930   4.921  0.2062 -0.0701 -1.6678
14117TIP3    H263843   2.650   1.785   4.886 -0.0374 -0.5655  0.1196
14118TIP3   OH263844   2.910   0.509  13.120 -0.4901 -0.7095 -0.1219
14118TIP3    H163845   2.917   0.562  13.040 -0.2194  0.0482  0.3933
14118TIP3    H263846   2.820   0.478  13.120 -1.0040  0.7012  0.1430
14119TIP3   OH263847   5.920   5.229  12.475 -0.2216  0.3508 -0.3437
14119TIP3    H163848   5.830   5.250  12.451 -1.0174 -2.1369  0.1948
14119TIP3    H263849   5.913   5.154  12.533  2.1746  0.6509  0.4632
14120TIP3   OH263850   5.500   0.494   4.619 -0.0466 -0.3539 -0.0412
14120TIP3    H163851   5.569   0.456   4.672 -0.4795 -2.4655 -0.9190
14120TIP3    H263852   5.426   0.435   4.630 -1.2128  0.9928 -0.3872
14121TIP3   OH263853   0.470   2.767   0.927  0.0209  0.1782 -0.1373
14121TIP3    H163854   0.483   2.861   0.918  0.1110  0.3954  1.8373
14121TIP3    H263855   0.489   2.749   1.019 -0.4103 -1.7054 -0.3794
14122TIP3   OH263856   2.506   3.817  14.537  0.4676 -0.3798  0.0693
14122TIP3    H163857   2.425   3.793  14.583  0.2258  1.0707  0.4457
14122TIP3    H263858   2.517   3.748  14.471 -1.4199 -0.3040 -0.4059
14123TIP3   OH263859   1.598   2.031   0.922  0.6313  0.1036  0.3442
14123TIP3    H163860   1.550   2.071   0.995  0.9634 -2.0225  1.8232
14123TIP3    H263861   1.539   1.962   0.890  0.6518  0.7642 -1.1857
14124TIP3   OH263862   6.826   4.199   5.645 -0.2705 -0.1375 -0.4290
14124TIP3    H163863   6.871   4.189   5.561  0.9456 -0.7907  0.2883
14124TIP3    H263864   6.779   4.117   5.657  0.6611 -0.5950  0.1627
14125TIP3   OH263865   4.111   0.002  14.866 -0.2186  0.1339 -0.3351
14125TIP3    H163866   4.148   0.044  14.788  0.0393 -1.9060 -1.3698
14125TIP3    H263867   4.187  -0.034  14.911 -0.4143  0.9323  0.6677
14126TIP3   OH263868   5.004   1.341   1.701  0.4584 -0.2891 -0.4966
14126TIP3    H163869   5.084   1.291   1.684  1.0749  0.1695  0.9347
14126TIP3    H263870   4.952   1.285   1.758 -1.1594 -1.3999 -2.8645
14127TIP3   OH263871   6.082   6.309   5.348 -0.1564 -0.3775 -0.3979
14127TIP3    H163872   6.176   6.299   5.329  0.0781  1.0720 -0.1056
14127TIP3    H263873   6.048   6.358   5.274 -0.3388  0.5368  0.2746
14128TIP3   OH263874   2.811   1.958   6.424 -0.0164  0.3629 -0.0439
14128TIP3    H163875   2.887   1.952   6.482 -1.1848  2.9893  1.9987
14128TIP3    H263876   2.836   2.023   6.359 -0.6054  1.5860  0.9122
14129TIP3   OH263877   2.208   0.222   0.922  0.1941  0.3174 -0.0616
14129TIP3    H163878   2.219   0.127   0.915 -1.2673  0.1861 -0.8134
14129TIP3    H263879   2.232   0.241   1.013  0.9937 -0.6918 -0.0407
14130TIP3   OH263880   5.531   0.279  12.527 -0.0628 -0.3443  0.4463
14130TIP3    H163881   5.516   0.203  12.470 -0.6779 -1.4398  1.9838
14130TIP3    H263882   5.587   0.246  12.596 -1.0407  0.3633  1.6184
14131TIP3   OH263883   6.200   2.980   0.832 -0.0261  0.3629 -0.2399
14131TIP3    H163884   6.207   2.895   0.876 -0.8660  0.9409  1.0991
14131TIP3    H263885   6.207   2.960   0.739 -0.7037 -1.2364  0.0191
14132TIP3   OH263886   2.569   4.056   4.958  0.6649  0.2794 -0.2528
14132TIP3    H163887   2.581   4.072   5.052  2.0527 -0.3940 -0.2831
14132TIP3    H263888   2.572   3.961   4.950  0.4660  0.3329 -0.9771
14133TIP3   OH263889   2.954   5.664   4.010  0.1884 -0.1416 -0.4407
14133TIP3    H163890   2.935   5.576   3.979 -0.7374 -0.1235  0.0388
14133TIP3    H263891   3.029   5.692   3.958 -1.2467 -0.1134 -2.6700
14134TIP3   OH263892   3.364   1.555   2.911  0.9406 -0.4993 -0.7225
14134TIP3    H163893   3.273   1.564   2.883  0.4424  0.0247  0.9654
14134TIP3    H263894   3.358   1.525   3.001  2.3200  2.7449  0.5967
14135TIP3   OH263895   0.086   0.718  13.566  0.0304 -1.5644 -0.4094
14135TIP3    H163896   0.052   0.791  13.618  0.4319 -2.5609  1.3536
14135TIP3    H263897   0.175   0.745  13.543  0.7237 -2.0526  1.5132
14136TIP3   OH263898   5.906   3.175  15.633 -0.5882 -0.5672 -0.6350
14136TIP3    H163899   5.913   3.183  15.728  0.7328 -2.6879 -0.5013
14136TIP3    H263900   5.943   3.257  15.599  0.7181 -0.5799  0.6700
14137TIP3   OH263901   4.143   6.343   4.584 -0.1249 -0.5672  0.3890
14137TIP3    H163902   4.154   6.365   4.492  1.0261 -1.4582  0.2806
14137TIP3    H263903   4.152   6.248   4.587 -0.8311 -0.6207  1.3422
14138TIP3   OH263904   0.702   5.956  16.817 -0.1964  0.3659  0.5022
14138TIP3    H163905   0.715   5.978  16.910 -0.6997  0.3865  0.5702
14138TIP3    H263906   0.773   5.895  16.797  0.4809  1.0800  0.6448
14139TIP3   OH263907   4.619   4.221  12.377  0.2173  0.0766  0.1631
14139TIP3    H163908   4.564   4.193  12.304  0.1037 -0.9377  0.6251
14139TIP3    H263909   4.556   4.258  12.440  0.1654 -0.2875  0.3235
14140TIP3   OH263910   5.466   0.950  11.805 -0.0074  0.7636 -0.1404
14140TIP3    H163911   5.465   0.859  11.775  0.9911  0.4865  0.5938
14140TIP3    H263912   5.499   0.944  11.895  1.8239  2.0038 -0.6751
14141TIP3   OH263913   5.509   2.619  13.009  0.1701 -0.0430  0.7737
14141TIP3    H163914   5.487   2.709  12.986  0.2820  0.3335  2.0637
14141TIP3    H263915   5.603   2.611  12.988 -0.0983 -0.2313 -0.4129
14142TIP3   OH263916   1.260   5.245   6.280 -0.0757  0.3618 -0.3750
14142TIP3    H163917   1.237   5.162   6.238  3.2974 -1.2673  0.6458
14142TIP3    H263918   1.195   5.307   6.247 -0.7427 -1.8970 -3.8366
14143TIP3   OH263919   0.069   3.638  15.460 -0.1319  0.1265 -0.8282
14143TIP3    H163920   0.045   3.710  15.518 -0.7544  0.4463 -1.4748
14143TIP3    H263921  -0.001   3.574  15.470  1.3118 -1.2841  1.1577
14144TIP3   OH263922   3.093   4.311   5.825 -0.5635  0.1394 -0.0123
14144TIP3    H163923   3.151   4.333   5.898 -0.6134 -0.7430  0.2978
14144TIP3    H263924   3.147   4.258   5.766 -0.6803  0.4013 -0.3618
14145TIP3   OH263925   4.711   4.522   1.693 -0.3712 -0.1442  0.4964
14145TIP3    H163926   4.776   4.572   1.743  0.7085 -0.3541 -0.6366
14145TIP3    H263927   4.737   4.431   1.705  1.3090 -0.1138 -2.1877
14146TIP3   OH263928   4.336   0.480   0.172 -0.7185 -0.0609 -0.5135
14146TIP3    H163929   4.279   0.484   0.095 -0.1164 -0.7720 -1.0077
14146TIP3    H263930   4.335   0.569   0.207  0.2961  0.7179 -2.3123
14147TIP3   OH263931   3.610   3.383   5.796 -0.0549 -0.1547 -0.3990
14147TIP3    H163932   3.705   3.377   5.785 -0.0129 -0.9020  0.2772
14147TIP3    H263933   3.580   3.292   5.799 -0.4762  0.0009  1.8665
14148TIP3   OH263934   1.237   1.945  16.447  0.2354 -0.0230 -0.1029
14148TIP3    H163935   1.264   2.029  16.483 -0.2735 -0.5238  1.5546
14148TIP3    H263936   1.307   1.885  16.472  0.6333 -0.1016 -1.3400
14149TIP3   OH263937   0.167   4.196  12.203  0.4965  0.1325  0.0510
14149TIP3    H163938   0.077   4.186  12.174  1.1655 -0.4942 -1.9678
14149TIP3    H263939   0.196   4.107  12.221  0.5660  0.3812  1.2865
14150TIP3   OH263940   6.533   5.103   6.031 -0.8430  0.7427  0.3529
14150TIP3    H163941   6.601   5.064   5.976 -1.1871  1.0138 -0.2676
14150TIP3    H263942   6.459   5.118   5.972 -1.0640  1.4393  0.7894
14151TIP3   OH263943   6.374   5.648  15.787  0.2902 -0.2019  0.1975
14151TIP3    H163944   6.410   5.734  15.767  0.5013 -0.7018 -1.8022
14151TIP3    H263945   6.282   5.653  15.762  0.1665 -0.3905  0.6057
14152TIP3   OH263946   6.537   6.418  15.152 -0.0218  0.6730 -0.2811
14152TIP3    H163947   6.558   6.470  15.074 -0.3846 -0.3789 -1.0960
14152TIP3    H263948   6.558   6.328  15.128 -0.3066  0.3034  0.7820
14153TIP3   OH263949   5.351   5.051  12.086 -0.1966  0.6248  0.8473
14153TIP3    H163950   5.399   5.119  12.039  0.5196  0.1272  0.8290
14153TIP3    H263951   5.281   5.025  12.027  1.4737 -0.9338 -0.5785
14154TIP3   OH263952   5.581   3.517  14.331 -0.5425 -0.2364  0.0190
14154TIP3    H163953   5.491   3.533  14.303 -0.0476  1.1126 -0.9186
14154TIP3    H263954   5.606   3.436  14.288 -1.0580 -0.1993 -0.3493
14155TIP3   OH263955   4.983   5.235   4.441 -0.3454 -0.2902 -0.3315
14155TIP3    H163956   4.966   5.324   4.411 -0.6159 -0.3979 -0.5000
14155TIP3    H263957   5.051   5.244   4.508 -0.5015  0.0572 -0.2225
14156TIP3   OH263958   6.494   6.067  12.759  0.2342  0.2894 -0.7384
14156TIP3    H163959   6.526   6.121  12.688  1.2707  1.4407  0.5567
14156TIP3    H263960   6.564   6.068  12.824 -0.1693 -1.7361 -0.1885
14157TIP3   OH263961   3.196   0.803  14.909 -0.8719 -0.1839 -0.1609
14157TIP3    H163962   3.257   0.858  14.860  0.0436 -0.9865  0.0429
14157TIP3    H263963   3.245   0.776  14.987 -0.7918 -2.3515 -0.8960
14158TIP3   OH263964   1.699   0.828  11.797  0.0556  0.4147 -0.1369
14158TIP3    H163965   1.753   0.778  11.859 -0.9758  1.8271  2.0372
14158TIP3    H263966   1.760   0.886  11.753  0.7467 -0.2685 -0.0999
14159TIP3   OH263967   6.606   2.112  16.734 -0.3156 -0.3339  0.1623
14159TIP3    H163968   6.623   2.115  16.640  0.4184  0.8268  0.3107
14159TIP3    H263969   6.593   2.019  16.753  0.7399 -0.7217 -0.8736
14160TIP3   OH263970   0.941   1.215  16.858 -0.2720  0.1418  0.1113
14160TIP3    H163971   0.949   1.228  16.953  0.5134  0.4125  0.0184
14160TIP3    H263972   0.912   1.125  16.848 -1.0835  0.3368  0.6337
14161TIP3   OH263973   0.701   4.589  11.274 -0.0824 -0.3006 -0.3322
14161TIP3    H163974   0.682   4.681  11.291  1.1543  0.0405 -0.6843
14161TIP3    H263975   0.708   4.550  11.361 -1.4982 -0.2752 -0.1860
14162TIP3   OH263976   1.925   5.772  11.269  0.4933  0.0526 -0.0463
14162TIP3    H163977   2.001   5.812  11.310  0.9911 -0.0540 -0.8501
14162TIP3    H263978   1.945   5.678  11.268  1.2941  0.2013 -2.1062
14163TIP3   OH263979   6.406   6.018   1.702 -0.0132  0.1643  0.4225
14163TIP3    H163980   6.440   5.955   1.638  0.3521  0.2579  0.5214
14163TIP3    H263981   6.449   6.101   1.679  0.3991  0.1201  1.0079
14164TIP3   OH263982   2.975   5.592   5.442 -0.4213  0.3357 -0.1705
14164TIP3    H163983   2.974   5.649   5.520  0.5065 -3.3207  2.8103
14164TIP3    H263984   2.889   5.550   5.442  0.2171 -1.0322  0.0640
14165TIP3   OH263985   0.216   4.951   3.327 -0.0791 -0.0251  0.4135
14165TIP3    H163986   0.138   5.006   3.321  0.4897  0.6479 -1.3206
14165TIP3    H263987   0.264   4.967   3.246 -0.2036 -3.5898 -0.5636
14166TIP3   OH263988   6.798   5.307   0.327  0.9633 -0.3528  0.6750
14166TIP3    H163989   6.713   5.350   0.314  0.3063 -0.7175  3.2427
14166TIP3    H263990   6.862   5.377   0.316  0.1444  0.5117  1.2996
14167TIP3   OH263991   5.603   2.209  12.353 -0.3177 -0.0833  0.0430
14167TIP3    H163992   5.538   2.197  12.283 -0.0134 -1.4737 -0.0258
14167TIP3    H263993   5.647   2.291  12.331 -1.5091  0.4770 -0.3456
14168TIP3   OH263994   0.307   6.814  13.938  0.3866 -0.1106 -0.3739
14168TIP3    H163995   0.265   6.734  13.906 -1.2398  0.5699 -0.0110
14168TIP3    H263996   0.318   6.800  14.032  4.3059 -1.7161 -0.8510
14169TIP3   OH263997   0.968   3.681   4.482  0.1739 -0.2376  0.2882
14169TIP3    H163998   0.892   3.665   4.426  0.5132  0.4313 -0.3689
14169TIP3    H263999   0.941   3.753   4.539  0.1200 -0.3767  0.4406
14170TIP3   OH264000   6.794   4.625  15.445  0.0946  0.0060 -0.7061
14170TIP3    H164001   6.847   4.550  15.470 -0.5253  0.0073  0.7222
14170TIP3    H264002   6.820   4.644  15.355  2.4407 -0.0579 -0.1258
14171TIP3   OH264003   1.336   0.219   2.990  0.6001  0.0665  0.5446
14171TIP3    H164004   1.334   0.162   2.913 -0.8216  2.1405 -1.0637
14171TIP3    H264005   1.429   0.221   3.015  0.9355 -1.5362 -0.3849
14172TIP3   OH264006   1.718   1.952  15.134 -0.0926  0.3761  0.1154
14172TIP3    H164007   1.789   1.982  15.192 -0.8549  1.5661  0.4718
14172TIP3    H264008   1.728   2.006  15.055  1.2475 -1.5772 -1.1321
14173TIP3   OH264009   5.540   4.841  10.656  0.2959 -0.1309  0.4593
14173TIP3    H164010   5.616   4.783  10.652  0.1854 -0.5690  2.9638
14173TIP3    H264011   5.491   4.822  10.576  0.8831 -2.6435  0.6044
14174TIP3   OH264012   1.564   3.329   1.034 -0.3731  0.5242 -0.0815
14174TIP3    H164013   1.610   3.406   1.000 -2.2762  1.1836 -1.3177
14174TIP3    H264014   1.495   3.312   0.969 -1.6694 -0.5878  1.5171
14175TIP3   OH264015   0.878   6.416  11.379  0.0790 -0.6062  0.1719
14175TIP3    H164016   0.954   6.372  11.340  1.0220  1.6969 -0.7446
14175TIP3    H264017   0.909   6.449  11.463 -0.7658 -2.0226  1.0779
14176TIP3   OH264018   2.070   0.060   0.589  0.0625  0.0877  0.2374
14176TIP3    H164019   2.058   0.004   0.512 -2.6547  2.5068 -1.3465
14176TIP3    H264020   2.024   0.015   0.660  0.2931 -0.9535 -0.2673
14177TIP3   OH264021   5.640   0.910   5.924 -0.0825 -0.5657 -0.0127
14177TIP3    H164022   5.695   0.969   5.975 -1.2285  0.4038  0.1278
14177TIP3    H264023   5.553   0.949   5.927 -0.3192 -0.7787 -2.2262
14178TIP3   OH264024   4.247   0.867  14.397 -0.0149  0.0267 -0.3100
14178TIP3    H164025   4.168   0.914  14.369 -0.2148 -0.2233 -0.1734
14178TIP3    H264026   4.309   0.880  14.326 -0.6001 -0.7962 -1.0024
14179TIP3   OH264027   5.842   4.579   1.293 -0.1664  0.2339 -0.4677
14179TIP3    H164028   5.842   4.612   1.383 -2.5877 -0.8920  0.0420
14179TIP3    H264029   5.903   4.506   1.294  1.5576  1.6006 -0.3890
14180TIP3   OH264030   5.363   0.790  14.755 -0.4848  0.4413  0.4089
14180TIP3    H164031   5.346   0.875  14.714 -1.4853  0.8238  1.5800
14180TIP3    H264032   5.312   0.728  14.703  1.1617  0.3432 -1.1745
14181TIP3   OH264033   4.541   1.716   0.429  0.0682 -0.2421  0.1938
14181TIP3    H164034   4.619   1.760   0.395  1.1233  0.4702  3.2290
14181TIP3    H264035   4.573   1.636   0.469 -0.2303  1.1380  3.5505
14182TIP3   OH264036   5.370   3.575   4.847  0.5421 -0.4424  0.2012
14182TIP3    H164037   5.398   3.557   4.757  1.9561 -0.6250  0.6527
14182TIP3    H264038   5.312   3.651   4.840 -1.0705 -1.7203 -1.0916
14183TIP3   OH264039   3.986   6.087   4.432  0.3792  0.2221 -0.1804
14183TIP3    H164040   3.937   6.057   4.355 -0.4613  0.0365  0.4030
14183TIP3    H264041   4.075   6.102   4.401  0.0402  0.1798 -1.1918
14184TIP3   OH264042   5.420   0.423  11.819  0.6524 -0.5006 -1.0769
14184TIP3    H164043   5.478   0.390  11.888  0.1300  0.4633 -0.1419
14184TIP3    H264044   5.446   0.514  11.807 -0.7526  0.0028 -0.5173
14185TIP3   OH264045   3.648   2.244   2.108 -0.3313 -0.5958  0.1486
14185TIP3    H164046   3.737   2.214   2.088 -0.7548 -1.4365 -0.5158
14185TIP3    H264047   3.598   2.164   2.123 -0.9145 -0.1212  0.8600
14186TIP3   OH264048   2.442   5.735  13.996 -0.4433  0.1739 -0.1042
14186TIP3    H164049   2.460   5.675  14.069 -0.1758 -1.4921 -1.4841
14186TIP3    H264050   2.404   5.813  14.038  0.1299 -0.5306  1.8446
14187TIP3   OH264051   5.352   3.941  12.517  0.2259 -0.4041 -1.1555
14187TIP3    H164052   5.404   4.019  12.536  0.1780 -0.5580 -0.3552
14187TIP3    H264053   5.263   3.974  12.504  0.1240 -0.3568 -0.4009
14188TIP3   OH264054   5.711   5.326  11.819 -0.1248  0.1841  0.0798
14188TIP3    H164055   5.690   5.416  11.842  0.7139 -0.0263  1.8519
14188TIP3    H264056   5.796   5.332  11.775 -0.7587  0.3756 -1.1676
14189TIP3   OH264057   6.690   2.678  10.597 -0.1434 -0.0349  0.2903
14189TIP3    H164058   6.753   2.745  10.571  0.5311 -0.8327 -0.1778
14189TIP3    H264059   6.608   2.726  10.611  0.6246  1.0684  1.2251
14190TIP3   OH264060   1.654   4.921   5.380 -0.0318 -0.3920  0.6247
14190TIP3    H164061   1.668   4.836   5.339 -0.1238 -0.9256  1.6688
14190TIP3    H264062   1.564   4.944   5.356  0.4531  0.0988 -0.8395
14191TIP3   OH264063   3.727   6.224  16.870  0.4536  0.8297 -0.2282
14191TIP3    H164064   3.780   6.235  16.948  2.1151  0.3441 -1.2485
14191TIP3    H264065   3.760   6.290  16.809  1.1396 -0.6358 -1.5145
14192TIP3   OH264066   5.797   0.128   5.586  0.6087 -0.5561 -0.1719
14192TIP3    H164067   5.845   0.143   5.667  0.4357 -1.3920  0.0889
14192TIP3    H264068   5.769   0.037   5.591  0.2667 -0.5019 -0.9973
14193TIP3   OH264069   2.283   3.968  11.587 -0.1962 -0.9212  0.3533
14193TIP3    H164070   2.201   3.972  11.538  0.3765  1.2928 -0.5665
14193TIP3    H264071   2.350   3.947  11.521  0.1324 -1.6148  0.8919
14194TIP3   OH264072   6.225   2.770  12.483  0.2790  0.2027  0.3973
14194TIP3    H164073   6.153   2.826  12.454  0.1881  0.6412  1.4017
14194TIP3    H264074   6.192   2.681  12.471  0.3479  0.3545 -1.0252
14195TIP3   OH264075   0.489   1.120   5.563 -0.2965  0.2927 -0.0706
14195TIP3    H164076   0.503   1.025   5.564 -0.4812  0.2161 -1.5696
14195TIP3    H264077   0.529   1.151   5.644  0.2309 -1.0025  0.1963
14196TIP3   OH264078   0.161   2.558   0.680  0.2835 -0.2178 -0.3113
14196TIP3    H164079   0.181   2.490   0.615  0.3804 -0.4081 -0.0858
14196TIP3    H264080   0.225   2.544   0.749 -0.8470 -1.1021  0.6136
14197TIP3   OH264081   6.660   4.783  15.843  0.0471 -0.1189 -0.0771
14197TIP3    H164082   6.586   4.737  15.802 -0.1224 -0.0839  0.1835
14197TIP3    H264083   6.641   4.780  15.937  0.5243 -0.3565  0.0129
14198TIP3   OH264084   3.447   3.984   1.543  0.4994 -0.9069  0.1886
14198TIP3    H164085   3.424   3.937   1.624  2.7405 -2.5635 -0.0380
14198TIP3    H264086   3.387   3.949   1.477 -0.1202 -0.8890  0.7256
14199TIP3   OH264087   2.386   2.548   1.272 -0.4235 -0.2283 -0.2456
14199TIP3    H164088   2.478   2.575   1.268 -0.3518 -0.4710 -0.2395
14199TIP3    H264089   2.386   2.456   1.245 -0.5485 -0.4873  0.6005
14200TIP3   OH264090   6.622   2.985  14.386 -0.1775  0.5039 -0.1537
14200TIP3    H164091   6.594   3.039  14.312  0.1650 -0.4718 -1.0086
14200TIP3    H264092   6.714   2.966  14.369 -0.1862 -0.0159  0.3536
14201TIP3   OH264093   3.346   0.671  12.018 -0.5583 -0.0868  0.4527
14201TIP3    H164094   3.425   0.702  12.061 -1.0204 -0.4291  1.6094
14201TIP3    H264095   3.274   0.713  12.066 -1.0812  1.0197 -1.2121
14202TIP3   OH264096   5.987   2.859  16.923  0.2605  0.5380  0.4660
14202TIP3    H164097   6.065   2.825  16.967 -0.1309 -0.6368  0.2901
14202TIP3    H264098   5.989   2.820  16.836  0.4959  2.0476 -0.2350
14203TIP3   OH264099   0.874   3.453   2.297 -0.7348 -0.7726  0.0601
14203TIP3    H164100   0.897   3.484   2.210 -2.5489  3.0594  0.7306
14203TIP3    H264101   0.821   3.375   2.281 -0.3718 -0.6289 -2.1843
14204TIP3   OH264102   5.323   1.665  10.746  0.0007  0.1418  0.5160
14204TIP3    H164103   5.354   1.593  10.691  0.0356 -0.1199  0.8735
14204TIP3    H264104   5.282   1.726  10.685  3.0386  1.5445 -0.3202
14205TIP3   OH264105   4.073   3.213   2.569  0.1723  0.2216 -0.2941
14205TIP3    H164106   3.987   3.212   2.525  0.0134 -0.6025  0.0219
14205TIP3    H264107   4.073   3.134   2.623  0.7211  0.7607  0.5141
14206TIP3   OH264108   4.363   0.405   5.032 -1.0669 -0.3632 -0.3469
14206TIP3    H164109   4.420   0.453   4.972 -0.6083 -1.0131 -0.4536
14206TIP3    H264110   4.421   0.340   5.072 -1.2828  0.3048  1.0951
14207TIP3   OH264111   4.069   1.125   2.516 -0.4686 -0.1565 -0.0518
14207TIP3    H164112   4.139   1.185   2.543 -0.3499 -0.4925  0.4015
14207TIP3    H264113   4.076   1.121   2.420 -0.3983  0.4534 -0.0729
14208TIP3   OH264114   6.148   4.694  12.982  0.4454  1.1047  0.0269
14208TIP3    H164115   6.142   4.789  12.972 -0.2066  1.1041  0.3560
14208TIP3    H264116   6.059   4.663  12.967  0.2498  0.7263  1.7481
14209TIP3   OH264117   2.294   3.470  14.824  0.2177  0.1561 -0.4725
14209TIP3    H164118   2.371   3.414  14.812  0.5619  0.4865  0.1323
14209TIP3    H264119   2.245   3.462  14.742  0.6402 -0.4493 -0.6712
14210TIP3   OH264120   3.981   0.318  10.822 -0.3125 -0.5274  0.7702
14210TIP3    H164121   4.070   0.351  10.811 -1.1356  1.1028 -1.6320
14210TIP3    H264122   3.986   0.262  10.900  3.1521 -1.8426 -0.2123
14211TIP3   OH264123   3.560   5.970  16.844 -0.8177 -0.0239 -0.6300
14211TIP3    H164124   3.499   5.988  16.773 -2.3156  0.0888  0.6344
14211TIP3    H264125   3.627   6.039  16.837 -1.6180  0.7067 -1.1905
14212TIP3   OH264126   5.164   4.652  13.225 -0.5193  0.1234 -0.6031
14212TIP3    H164127   5.091   4.590  13.230  0.2652 -0.8383 -0.8235
14212TIP3    H264128   5.143   4.707  13.149 -0.1483 -1.3183 -1.8064
14213TIP3   OH264129   6.394   0.004  14.070  0.3271 -0.2747  0.1335
14213TIP3    H164130   6.400   0.098  14.052 -1.0036 -0.1066  0.5097
14213TIP3    H264131   6.480  -0.030  14.044  1.5655  1.3403  1.8257
14214TIP3   OH264132   2.961   4.803   5.658  0.8216 -0.1053 -0.1278
14214TIP3    H164133   2.923   4.838   5.739 -1.8580 -1.3720 -0.7175
14214TIP3    H264134   2.991   4.715   5.681  0.8969 -0.1296 -0.3155
14215TIP3   OH264135   0.635   1.294   1.520  0.1869  0.5026  0.4973
14215TIP3    H164136   0.673   1.346   1.449  1.4674 -1.8782 -0.6788
14215TIP3    H264137   0.706   1.284   1.584  0.6804 -1.4305 -0.2758
14216TIP3   OH264138   1.990   1.658  14.773 -0.0701  0.1492 -0.3260
14216TIP3    H164139   2.031   1.634  14.689 -2.1702  0.2102 -1.4322
14216TIP3    H264140   2.040   1.734  14.802 -0.4308  1.3132 -2.5073
14217TIP3   OH264141   6.638   0.120   0.161  0.0931  0.6623  0.0560
14217TIP3    H164142   6.549   0.089   0.175 -0.0133  0.0456 -1.7426
14217TIP3    H264143   6.673   0.063   0.092  1.2088  2.0842 -0.6122
14218TIP3   OH264144   5.067   3.332  15.678 -0.0048  0.1354 -0.6680
14218TIP3    H164145   5.120   3.405  15.710 -0.5140  0.5216 -0.6931
14218TIP3    H264146   4.981   3.371  15.659 -0.9615 -0.8329  1.3093
14219TIP3   OH264147   3.370   3.219  13.990  0.2513 -0.0775  0.4440
14219TIP3    H164148   3.280   3.247  13.976 -0.1541 -1.3905  0.2066
14219TIP3    H264149   3.419   3.299  14.005 -1.3110  0.5691  2.6144
14220TIP3   OH264150   1.828   6.010  14.644 -0.0489 -0.0083  0.1803
14220TIP3    H164151   1.797   6.059  14.721  0.8694 -1.5373  1.6061
14220TIP3    H264152   1.801   6.063  14.569  1.4378  3.0197  1.6140
14221TIP3   OH264153   4.840   4.231   1.158 -0.3654  0.2368 -0.2336
14221TIP3    H164154   4.909   4.271   1.211 -0.3124 -1.2729  0.9189
14221TIP3    H264155   4.854   4.266   1.070  2.3426 -0.5094 -0.1975
14222TIP3   OH264156   6.503   2.310   2.226  0.0760 -0.4551  0.4211
14222TIP3    H164157   6.509   2.389   2.280  1.6528 -0.3735  0.1923
14222TIP3    H264158   6.594   2.286   2.209 -0.3585 -0.5359 -2.1327
14223TIP3   OH264159   1.014   4.759   6.012 -0.3766 -1.2445 -0.3175
14223TIP3    H164160   1.001   4.665   6.025  0.9060 -1.3416  0.3905
14223TIP3    H264161   1.106   4.767   5.985 -0.5057 -0.2002 -0.4888
14224TIP3   OH264162   2.383   3.052   3.966  0.0263 -0.2497  0.5263
14224TIP3    H164163   2.418   3.141   3.970 -0.5536 -0.0040  0.1666
14224TIP3    H264164   2.330   3.043   4.045  0.0148 -0.2488  0.5186
14225TIP3   OH264165   4.207   1.921  14.296 -0.2310 -0.0015 -0.0885
14225TIP3    H164166   4.197   1.842  14.243  0.6511 -0.3243  0.2126
14225TIP3    H264167   4.249   1.891  14.376 -1.4472  0.5037  0.7535
14226TIP3   OH264168   0.778   3.164  12.240 -0.6643 -0.4089  0.5521
14226TIP3    H164169   0.763   3.240  12.295 -0.7250 -0.2578  0.3297
14226TIP3    H264170   0.860   3.126  12.272  1.2621  1.6973 -1.4644
14227TIP3   OH264171   4.466   3.685  16.264  0.5858  0.4503  0.1089
14227TIP3    H164172   4.487   3.751  16.198  0.6220 -0.2779 -0.6286
14227TIP3    H264173   4.550   3.646  16.287  0.4894  0.1812  0.0110
14228TIP3   OH264174   0.303   3.306  11.329 -0.4313 -0.2740  0.2379
14228TIP3    H164175   0.288   3.254  11.250 -0.1403 -0.8514  0.5551
14228TIP3    H264176   0.237   3.376  11.325  0.2939  0.3670 -1.0599
14229TIP3   OH264177   3.464   1.577  12.384 -1.0429 -0.1813 -0.4132
14229TIP3    H164178   3.517   1.598  12.307 -0.1465  1.5488  0.6193
14229TIP3    H264179   3.466   1.657  12.437 -0.8210 -1.6364  1.8847
14230TIP3   OH264180   3.791   0.184   2.248  0.4176 -0.0801 -0.3535
14230TIP3    H164181   3.816   0.273   2.226  0.9420 -0.3360 -0.8184
14230TIP3    H264182   3.815   0.174   2.340 -1.6879  0.9642  0.3685
14231TIP3   OH264183   1.462   3.167   9.953  0.1608  0.1975 -0.1764
14231TIP3    H164184   1.408   3.123  10.019  0.1584  0.8675  0.2818
14231TIP3    H264185   1.502   3.096   9.903 -1.0778 -0.3098 -0.4798
14232TIP3   OH264186   4.632   6.396   0.276 -0.9470  0.2410  0.8995
14232TIP3    H164187   4.653   6.326   0.338 -2.2880  0.6787  1.9047
14232TIP3    H264188   4.564   6.447   0.320 -3.0152 -0.2264 -1.4965
14233TIP3   OH264189   0.428   1.681  12.367  0.1311  0.3695 -0.1030
14233TIP3    H164190   0.466   1.684  12.455 -0.6677 -0.7903  0.2936
14233TIP3    H264191   0.393   1.592  12.359  1.6025 -0.0973 -2.1933
14234TIP3   OH264192   2.074   5.553   5.108 -0.2815 -0.5856  0.4954
14234TIP3    H164193   2.054   5.610   5.182  1.3171  1.2660 -0.4133
14234TIP3    H264194   2.145   5.497   5.139  0.4663  0.2664  0.3664
14235TIP3   OH264195   2.989   3.228   0.172  0.0481  0.0147 -0.0652
14235TIP3    H164196   2.968   3.157   0.233  0.4692  0.6466  0.8334
14235TIP3    H264197   2.919   3.226   0.107 -1.5588  0.6332  1.5739
14236TIP3   OH264198   1.302   6.168   1.172 -0.5562  0.6110  0.4460
14236TIP3    H164199   1.266   6.230   1.109 -0.1894  0.7567  0.3796
14236TIP3    H264200   1.270   6.082   1.142 -0.6287  0.7118  0.2346
14237TIP3   OH264201   4.945   2.589  12.189 -0.3882  0.1737 -0.9017
14237TIP3    H164202   4.898   2.510  12.215  0.4113  0.7769  3.0150
14237TIP3    H264203   4.877   2.654  12.174 -1.0824  0.4481  2.5328
14238TIP3   OH264204   2.007   2.825  11.727  0.0711 -0.0562  0.6470
14238TIP3    H164205   1.971   2.880  11.797 -0.9055 -0.6577  0.6168
14238TIP3    H264206   2.091   2.794  11.763 -0.2772 -0.1166  1.4318
14239TIP3   OH264207   0.893   2.670   3.236  0.3357  0.1147 -0.3133
14239TIP3    H164208   0.832   2.737   3.265  1.0855  1.5276 -1.8294
14239TIP3    H264209   0.923   2.701   3.151  1.1665 -1.8702 -0.7875
14240TIP3   OH264210   4.836   0.201   2.207 -0.1936 -0.5557  0.4787
14240TIP3    H164211   4.869   0.274   2.155 -0.4786 -0.7522  0.0027
14240TIP3    H264212   4.820   0.237   2.294  2.5817 -0.7764  1.1688
14241TIP3   OH264213   4.630   2.118  16.972  0.0028  0.1669  0.4238
14241TIP3    H164214   4.643   2.200  17.020 -2.3556  0.8896 -0.0528
14241TIP3    H264215   4.651   2.139  16.881 -1.1733  0.4201  0.2046
14242TIP3   OH264216   1.982   2.303   5.108 -0.0902 -0.4401 -0.4370
14242TIP3    H164217   2.052   2.270   5.051 -0.1695 -1.0052 -0.2131
14242TIP3    H264218   2.021   2.308   5.195  0.3191  1.3394 -0.6907
14243TIP3   OH264219   1.859   3.388   2.770  0.9931 -0.4683  0.6455
14243TIP3    H164220   1.889   3.406   2.681 -1.0311 -0.0185 -0.0043
14243TIP3    H264221   1.804   3.310   2.761  0.6654 -0.3447  1.4929
14244TIP3   OH264222   3.516   1.388  13.891  0.2032  0.5141  0.2338
14244TIP3    H164223   3.423   1.407  13.877  0.1799  0.8496  0.8055
14244TIP3    H264224   3.518   1.340  13.974  0.4436 -0.4278 -0.2972
14245TIP3   OH264225   6.099   2.925  11.692  0.3319  0.1106 -0.8235
14245TIP3    H164226   6.092   2.998  11.630  0.6961  0.5695 -0.3336
14245TIP3    H264227   6.180   2.942  11.739  0.7193 -0.9306 -1.0965
14246TIP3   OH264228   2.290   4.026   2.165  0.5725  0.0439 -0.5226
14246TIP3    H164229   2.240   3.994   2.090 -0.5263 -0.7438  0.5111
14246TIP3    H264230   2.264   3.969   2.237  0.4232  1.7427  0.8300
14247TIP3   OH264231   3.415   1.609  10.995 -0.1718 -0.4728  0.0583
14247TIP3    H164232   3.371   1.609  10.910 -0.1923 -0.9908  0.0641
14247TIP3    H264233   3.469   1.530  10.993  2.7025  1.3418 -0.9478
14248TIP3   OH264234   4.282   3.166   6.214  0.1076  0.0557 -0.0337
14248TIP3    H164235   4.323   3.228   6.154 -0.5956 -0.7378 -1.3734
14248TIP3    H264236   4.257   3.091   6.160 -2.4248  0.1737  0.8130
14249TIP3   OH264237   0.780   2.650   0.587 -0.3351  0.4704  0.0951
14249TIP3    H164238   0.825   2.668   0.669 -0.9638  2.3721  0.0752
14249TIP3    H264239   0.687   2.666   0.606 -0.8356 -1.6277 -0.3257
14250TIP3   OH264240   6.350   1.128  15.619  0.7003 -0.0812  0.1069
14250TIP3    H164241   6.350   1.079  15.538  0.0444  0.4555 -0.2352
14250TIP3    H264242   6.286   1.199  15.604  0.5778  0.0315  1.0741
14251TIP3   OH264243   1.514   3.651   0.053 -0.1927 -0.0810 -0.3352
14251TIP3    H164244   1.544   3.651  -0.038  0.3949 -0.7136 -0.1448
14251TIP3    H264245   1.545   3.568   0.090  1.3091  1.0120  1.0008
14252TIP3   OH264246   3.263   1.354  11.348  0.6311  0.1458  0.0855
14252TIP3    H164247   3.326   1.417  11.383  0.9867 -1.3115  2.2763
14252TIP3    H264248   3.210   1.329  11.424  0.0632 -1.6637 -0.8535
14253TIP3   OH264249   0.451   6.584  13.747  0.5677  0.1662 -0.1527
14253TIP3    H164250   0.363   6.602  13.714  0.4441  0.7512  0.4908
14253TIP3    H264251   0.507   6.645  13.700  0.4893  0.5048  0.1938
14254TIP3   OH264252   0.887   3.462  16.577 -0.2391  0.2418  0.7798
14254TIP3    H164253   0.828   3.525  16.618 -0.3755  1.2297 -0.8476
14254TIP3    H264254   0.969   3.509  16.566  0.0547 -0.2823  0.6919
14255TIP3   OH264255   2.425   3.306   2.955 -0.3165 -0.2246 -0.3643
14255TIP3    H164256   2.363   3.267   2.893 -0.4508 -1.5203  0.5279
14255TIP3    H264257   2.468   3.231   2.996  2.7988  0.6261 -1.8102
14256TIP3   OH264258   4.600   3.396   4.735 -0.1107 -0.3340 -0.1146
14256TIP3    H164259   4.581   3.453   4.810  0.1578 -1.6474  0.9981
14256TIP3    H264260   4.690   3.417   4.711 -0.6530  1.1201 -1.0542
14257TIP3   OH264261   5.998   0.637   3.324 -0.0366 -0.1973  0.2774
14257TIP3    H164262   5.951   0.615   3.243 -1.4451  1.1864  0.6695
14257TIP3    H264263   6.049   0.714   3.301  0.0126 -0.1463  0.5610
14258TIP3   OH264264   2.001   2.702  14.776  0.6109 -0.2470 -0.4977
14258TIP3    H164265   2.044   2.633  14.826 -0.3268 -0.8504 -0.5016
14258TIP3    H264266   1.943   2.744  14.839  2.0220  1.3441 -0.1835
14259TIP3   OH264267   1.652   6.390   2.142 -0.7536 -0.5083  0.0080
14259TIP3    H164268   1.738   6.420   2.172 -1.2547  1.5566 -0.4896
14259TIP3    H264269   1.665   6.370   2.049 -0.4844 -1.6251  0.2757
14260TIP3   OH264270   2.062   5.427  15.014 -0.0557 -0.1389 -0.4750
14260TIP3    H164271   2.003   5.440  14.940 -0.0859 -0.1013 -0.4443
14260TIP3    H264272   2.127   5.497  15.005 -0.8895  0.7730  0.3617
14261TIP3   OH264273   5.014   2.771   1.779  0.3474  0.7921 -0.3454
14261TIP3    H164274   4.995   2.837   1.846 -0.5174  0.4938 -0.2874
14261TIP3    H264275   5.068   2.706   1.824 -0.5460  0.3962  0.1815
14262TIP3   OH264276   4.047   0.365  14.259 -0.0502 -0.2749 -0.4502
14262TIP3    H164277   4.110   0.437  14.262 -0.3703 -0.0118  1.1221
14262TIP3    H264278   3.980   0.393  14.196  1.2682 -0.4750 -1.9898
14263TIP3   OH264279   4.931   0.322  12.331  0.0513 -0.4058 -0.3896
14263TIP3    H164280   4.959   0.252  12.271  0.4914 -0.2126 -0.4138
14263TIP3    H264281   4.836   0.327  12.319  0.3816  1.5565 -3.2143
14264TIP3   OH264282   3.613   4.699  14.194 -0.0976 -0.2117  0.3911
14264TIP3    H164283   3.594   4.681  14.102 -3.3770  1.0520  0.7082
14264TIP3    H264284   3.614   4.613  14.236 -0.6296 -0.6624 -0.5021
14265TIP3   OH264285   6.606   3.270   2.164 -0.4070 -0.2680 -0.0669
14265TIP3    H164286   6.579   3.194   2.215  0.7096 -0.0291  0.9346
14265TIP3    H264287   6.687   3.299   2.206 -0.9389  1.6242 -0.2663
14266TIP3   OH264288   4.328   1.523  16.218  0.4547  0.4033 -0.0243
14266TIP3    H164289   4.385   1.523  16.295  1.0319  0.3436 -0.4513
14266TIP3    H264290   4.375   1.472  16.153 -1.0389 -1.4926  0.3019
14267TIP3   OH264291   0.887   0.655  13.432 -0.0828 -0.0691 -0.2201
14267TIP3    H164292   0.802   0.697  13.416  1.5353  3.8999  0.5701
14267TIP3    H264293   0.942   0.684  13.359  0.7451 -2.5243 -0.6846
14268TIP3   OH264294   0.532   0.322  10.696  0.3992  0.0981  0.3384
14268TIP3    H164295   0.458   0.279  10.652  1.5310 -1.4846 -0.1169
14268TIP3    H264296   0.562   0.388  10.633 -0.2297  0.3422  0.2809
14269TIP3   OH264297   4.383   3.365  14.738 -0.1437 -0.1034 -0.8171
14269TIP3    H164298   4.353   3.451  14.706 -1.2867 -0.0499  0.3342
14269TIP3    H264299   4.353   3.361  14.828  1.1417 -1.1515 -0.4100
14270TIP3   OH264300   4.416   0.201  12.711 -0.3209 -0.0001  0.4336
14270TIP3    H164301   4.494   0.149  12.731 -0.8124 -0.7039  0.5619
14270TIP3    H264302   4.385   0.167  12.628 -0.1420  0.7146  0.0627
14271TIP3   OH264303   1.925   4.114   0.847  0.5734  0.1852  0.3422
14271TIP3    H164304   1.838   4.149   0.867  0.5810  1.2786 -1.3393
14271TIP3    H264305   1.980   4.191   0.836  1.6116 -0.4827  0.7122
14272TIP3   OH264306   0.205   1.571   4.699  0.3027  0.7097  0.4326
14272TIP3    H164307   0.203   1.488   4.746  1.3442  0.3385 -0.1357
14272TIP3    H264308   0.159   1.633   4.756  0.3060 -0.0505  1.2758
14273TIP3   OH264309   1.661   5.164  11.572  0.1543 -0.3634  0.2116
14273TIP3    H164310   1.588   5.122  11.616 -1.3852  0.9886 -0.9340
14273TIP3    H264311   1.629   5.181  11.483  1.6354  0.7987 -0.1425
14274TIP3   OH264312   6.820   5.402   1.520 -0.3728  0.4838  0.5027
14274TIP3    H164313   6.856   5.451   1.446 -1.5843 -0.9871 -1.1536
14274TIP3    H264314   6.745   5.454   1.549  1.2079  2.0223  1.9937
14275TIP3   OH264315   6.256   1.563   3.754 -0.2469 -0.3874 -0.3347
14275TIP3    H164316   6.215   1.516   3.681 -3.5325 -0.2543  1.2232
14275TIP3    H264317   6.274   1.495   3.819 -0.6690 -0.0999  0.0905
14276TIP3   OH264318   0.666   2.276   4.197 -0.5361 -0.0330 -0.1255
14276TIP3    H164319   0.610   2.266   4.121  0.4847 -0.3415 -0.8679
14276TIP3    H264320   0.619   2.337   4.255 -0.7555  1.2142 -1.5652
14277TIP3   OH264321   0.024   4.649   0.414  0.1304  0.2331  0.0496
14277TIP3    H164322   0.053   4.671   0.326 -0.6430 -1.5885 -0.7161
14277TIP3    H264323  -0.018   4.564   0.405 -1.3068  0.6644  1.9166
14278TIP3   OH264324   2.839   5.255  11.139 -0.1283  1.0016 -0.0045
14278TIP3    H164325   2.839   5.337  11.189 -1.5931  0.3151  1.2163
14278TIP3    H264326   2.748   5.224  11.144  0.1725 -0.1810 -1.3038
14279TIP3   OH264327   5.051   2.098   4.183 -0.0494  0.0587  0.6987
14279TIP3    H164328   4.961   2.119   4.209 -0.5095 -0.8915 -0.0253
14279TIP3    H264329   5.088   2.181   4.154 -0.6287  0.4958  1.1770
14280TIP3   OH264330   1.526   4.860  11.587 -0.6326  0.0980  0.3078
14280TIP3    H164331   1.482   4.778  11.563 -1.4414 -0.1564  2.4119
14280TIP3    H264332   1.593   4.833  11.650 -1.4850  1.0979  1.7043
14281TIP3   OH264333   1.158   3.855   3.850  0.1448  0.1380  0.4768
14281TIP3    H164334   1.218   3.859   3.776 -0.9077  0.1540 -0.3990
14281TIP3    H264335   1.207   3.894   3.923  1.2408  0.0110 -0.1642
14282TIP3   OH264336   4.193   1.414   3.421 -0.2464 -0.5505 -0.0163
14282TIP3    H164337   4.160   1.334   3.462 -0.7669 -0.9072 -1.0787
14282TIP3    H264338   4.157   1.411   3.332  1.0526  0.0411 -0.5864
14283TIP3   OH264339   6.042   4.731  15.300  0.3953  0.3232 -0.0490
14283TIP3    H164340   5.984   4.764  15.368 -1.2763 -2.7622  0.2389
14283TIP3    H264341   6.117   4.694  15.347  0.3019  0.1453 -0.0375
14284TIP3   OH264342   2.151   5.263   5.435  0.2521 -0.8681 -0.2067
14284TIP3    H164343   2.066   5.283   5.475 -0.5353 -2.2817 -1.0711
14284TIP3    H264344   2.199   5.216   5.503  0.7614  0.7543  0.6174
14285TIP3   OH264345   4.971   5.135  12.670 -0.3770 -0.0326  0.1188
14285TIP3    H164346   4.901   5.071  12.655  0.1239 -0.7822  0.8821
14285TIP3    H264347   4.972   5.188  12.591 -1.8814  0.0552  0.1281
14286TIP3   OH264348   1.864   2.523   6.029 -0.8701 -0.2525 -0.7183
14286TIP3    H164349   1.915   2.602   6.010 -1.6484  0.6733  0.8668
14286TIP3    H264350   1.781   2.537   5.984 -1.2950  0.2073  0.1862
14287TIP3   OH264351   6.396   1.371   1.036  0.5557  0.2652 -0.3142
14287TIP3    H164352   6.319   1.411   0.995  1.9751 -0.0547 -3.6237
14287TIP3    H264353   6.419   1.430   1.107 -1.8217  1.1795 -0.2174
14288TIP3   OH264354   2.552   6.733  16.437  0.3879  0.3005 -0.5338
14288TIP3    H164355   2.575   6.814  16.391  0.3709  0.4696 -0.2501
14288TIP3    H264356   2.459   6.721  16.419 -0.4117  2.0264  1.9193
14289TIP3   OH264357   0.683   3.657  16.540  0.7205 -0.5748 -0.5396
14289TIP3    H164358   0.722   3.716  16.605  2.0868 -1.2452 -0.7163
14289TIP3    H264359   0.666   3.712  16.464 -0.3323  0.0945  0.1666
14290TIP3   OH264360   6.010   1.163   4.511 -0.0651 -0.3370 -0.7126
14290TIP3    H164361   6.060   1.184   4.432 -0.1201 -1.4746 -1.0712
14290TIP3    H264362   6.076   1.147   4.578 -0.0073  0.1837 -0.6424
14291TIP3   OH264363   4.385   5.729   0.134  0.4449  0.5473  0.2145
14291TIP3    H164364   4.353   5.646   0.097 -0.0498  1.2698 -1.0289
14291TIP3    H264365   4.393   5.711   0.228  1.7180 -1.3381 -0.1885
14292TIP3   OH264366   5.745   6.105  13.914  0.6377  0.0634  0.0265
14292TIP3    H164367   5.818   6.058  13.872 -0.0177 -0.8842 -0.0756
14292TIP3    H264368   5.689   6.132  13.841  0.2003 -0.3836  0.1966
14293TIP3   OH264369   1.276   4.366   0.061 -1.0371 -0.1178  0.0546
14293TIP3    H164370   1.312   4.292   0.011 -0.8674  0.1243 -0.1834
14293TIP3    H264371   1.352   4.401   0.108 -0.2885  2.1548 -2.5970
14294TIP3   OH264372   4.353   6.098  11.246 -0.1657 -0.2944 -0.4859
14294TIP3    H164373   4.293   6.107  11.172  0.2508 -1.7220 -1.0448
14294TIP3    H264374   4.412   6.172  11.238 -0.6631  0.0502 -1.0721
14295TIP3   OH264375   2.453   5.047   2.041  0.2263 -0.3209  0.3108
14295TIP3    H164376   2.371   5.089   2.017  0.3770 -0.5017 -0.5562
14295TIP3    H264377   2.493   5.107   2.104  0.2453  0.6338 -0.5840
14296TIP3   OH264378   2.959   0.252  16.224 -0.1691 -0.3515 -0.2137
14296TIP3    H164379   2.892   0.201  16.267 -0.8420  1.7550  1.4299
14296TIP3    H264380   2.949   0.232  16.131 -0.6840 -2.7339  0.2887
14297TIP3   OH264381   6.488   0.980  16.282  0.3117 -0.1018 -0.0475
14297TIP3    H164382   6.399   0.998  16.252  0.0084 -2.3383 -0.7243
14297TIP3    H264383   6.479   0.904  16.340  1.5553  0.9183  1.5687
14298TIP3   OH264384   2.554   1.260   2.485 -0.6036 -0.3598  0.5395
14298TIP3    H164385   2.544   1.355   2.481  1.8748 -0.0517 -0.1003
14298TIP3    H264386   2.592   1.244   2.572  1.2530 -0.4329 -0.2334
14299TIP3   OH264387   5.109   4.746  15.212 -0.5505 -0.0935 -0.4550
14299TIP3    H164388   5.075   4.835  15.201 -0.3124  0.2443  1.2845
14299TIP3    H264389   5.193   4.746  15.167 -0.0897  0.8723  0.3767
14300TIP3   OH264390   6.542   4.671  15.100 -0.1211  0.4716 -0.1828
14300TIP3    H164391   6.448   4.687  15.098 -0.2390 -0.1896 -0.1359
14300TIP3    H264392   6.573   4.718  15.178 -0.4501  0.4877 -0.0624
14301TIP3   OH264393   0.710   4.492   1.334 -0.1671  0.4824  0.1154
14301TIP3    H164394   0.727   4.498   1.428 -0.9860  1.8202  0.2076
14301TIP3    H264395   0.624   4.450   1.328 -0.1938  0.5578 -0.0333
14302TIP3   OH264396   6.263   0.261   1.623  0.1272  0.3361 -0.1324
14302TIP3    H164397   6.270   0.192   1.558 -0.5071 -0.9209  1.0799
14302TIP3    H264398   6.351   0.270   1.659  0.2878  0.4250 -0.5480
14303TIP3   OH264399   5.416   3.082  14.333 -0.3495  0.0961  0.1109
14303TIP3    H164400   5.387   3.170  14.357 -0.5069  0.3234 -0.8946
14303TIP3    H264401   5.455   3.048  14.414  0.4215  1.3699  0.3120
14304TIP3   OH264402   1.990   3.100   3.083  0.4863  0.5182 -0.0662
14304TIP3    H164403   2.028   3.104   3.171  0.7827  1.2409 -0.2198
14304TIP3    H264404   2.059   3.061   3.029  1.2081  2.2415 -0.4335
14305TIP3   OH264405   0.267   4.052   6.077 -0.4564  0.3341 -0.5842
14305TIP3    H164406   0.206   3.983   6.102  1.1179 -0.3903  1.5492
14305TIP3    H264407   0.352   4.022   6.108  0.7061  2.1667 -1.7558
14306TIP3   OH264408   5.135   2.401   1.642 -0.4562  0.3951 -0.1615
14306TIP3    H164409   5.061   2.358   1.600  0.4225  0.6426 -2.0602
14306TIP3    H264410   5.148   2.482   1.593  1.0516  0.3752  0.1458
14307TIP3   OH264411   5.117   1.550  16.459  0.3215  0.6700  0.2920
14307TIP3    H164412   5.110   1.509  16.373 -1.6284  0.9704  0.2688
14307TIP3    H264413   5.176   1.624  16.445 -1.1466  1.6285 -1.1892
14308TIP3   OH264414   5.125   3.295   3.165  0.4143 -0.1954  0.5838
14308TIP3    H164415   5.175   3.314   3.085  2.2191 -2.2054  1.1484
14308TIP3    H264416   5.039   3.268   3.133  0.3448  1.2106 -0.5331
14309TIP3   OH264417   0.358   6.624   2.766  0.2233 -0.3373  0.5922
14309TIP3    H164418   0.421   6.690   2.736  1.5481 -1.5685  0.5425
14309TIP3    H264419   0.306   6.669   2.832  0.1813  1.1381 -0.4059
14310TIP3   OH264420   3.568   0.612   3.415  0.6638 -0.1456  0.2673
14310TIP3    H164421   3.539   0.650   3.332  1.1204 -0.4377 -0.0326
14310TIP3    H264422   3.487   0.595   3.463  0.3618 -0.5051 -0.3576
14311TIP3   OH264423   5.970   4.091  13.622  0.6188 -0.2504  0.6604
14311TIP3    H164424   6.021   4.172  13.619 -0.5209  0.4973  0.8432
14311TIP3    H264425   6.035   4.022  13.616  1.5009  0.6454 -2.9439
14312TIP3   OH264426   3.850   3.506  14.583 -0.6854  0.1474 -0.8925
14312TIP3    H164427   3.919   3.450  14.619 -0.4180  0.6257 -0.6564
14312TIP3    H264428   3.838   3.475  14.494  0.6707  0.8170 -1.3327
14313TIP3   OH264429   0.587   4.209  15.531 -0.3947 -0.0633  0.1781
14313TIP3    H164430   0.588   4.293  15.486 -1.6427 -0.2087 -0.1652
14313TIP3    H264431   0.666   4.164  15.499 -0.0303  0.7467 -0.0774
14314TIP3   OH264432   6.523   4.330  14.273  0.1018  0.0357 -0.3252
14314TIP3    H164433   6.520   4.403  14.335  1.2061 -1.4793  1.6235
14314TIP3    H264434   6.435   4.293  14.274  0.3987 -0.7227  1.3787
14315TIP3   OH264435   4.287   1.129  17.053  0.6361 -0.4492 -0.5193
14315TIP3    H164436   4.354   1.096  17.113 -0.4097  0.4905  1.2328
14315TIP3    H264437   4.205   1.093  17.085  0.1684 -1.0033 -2.2149
14316TIP3   OH264438   0.064   0.524   5.686 -0.2579  0.1060 -0.1973
14316TIP3    H164439   0.002   0.521   5.758  1.2194 -1.2896  1.1045
14316TIP3    H264440   0.150   0.520   5.729  0.6798  0.0175 -2.0007
14317TIP3   OH264441   3.767   3.261  14.023  0.5970 -0.8500  0.1611
14317TIP3    H164442   3.697   3.322  14.001  0.5503 -0.8404  0.3394
14317TIP3    H264443   3.844   3.316  14.038  1.0472 -0.9472 -1.5675
14318TIP3   OH264444   5.833   3.716  11.486 -0.5936  0.1116 -0.0782
14318TIP3    H164445   5.784   3.732  11.405  2.4723  2.4148 -1.7051
14318TIP3    H264446   5.856   3.804  11.517  1.2351 -0.8081  1.3525
14319TIP3   OH264447   0.917   6.649   5.867  0.2983 -0.2227  0.3270
14319TIP3    H164448   0.928   6.584   5.936 -1.6318  0.0054  0.9039
14319TIP3    H264449   0.983   6.626   5.802  1.1900 -1.3373  1.5628
14320TIP3   OH264450   0.159   0.297   3.588 -0.0466  0.1951  0.4384
14320TIP3    H164451   0.253   0.312   3.587 -0.1317  0.7414  0.0953
14320TIP3    H264452   0.146   0.219   3.533  0.4042 -1.2361  2.2504
14321TIP3   OH264453   3.253   0.055   2.318 -0.4593  0.1275 -1.0097
14321TIP3    H164454   3.266   0.072   2.225  0.0281  1.3514 -0.7420
14321TIP3    H264455   3.173   0.103   2.341 -0.5917 -0.1872 -0.7930
14322TIP3   OH264456   3.739   3.814   0.126 -0.2925  0.0537 -0.7394
14322TIP3    H164457   3.711   3.723   0.134  1.6784 -0.5478 -0.2056
14322TIP3    H264458   3.759   3.841   0.215 -0.2491  0.8185 -0.9719
14323TIP3   OH264459   1.276   2.042   0.283 -0.3264  0.8787  0.0627
14323TIP3    H164460   1.205   2.054   0.346  0.2745  2.7454  0.4371
14323TIP3    H264461   1.349   2.091   0.319  0.5984  0.4778 -1.2036
14324TIP3   OH264462   5.290   1.422   4.662 -0.0536 -0.6553  0.4455
14324TIP3    H164463   5.385   1.423   4.649 -0.1513 -0.1932 -0.3400
14324TIP3    H264464   5.260   1.347   4.609 -0.0965 -0.9931  0.9457
14325TIP3   OH264465   5.512   5.194   0.812  0.0843  0.2132  0.6544
14325TIP3    H164466   5.490   5.191   0.906 -0.9092  0.1265  0.4315
14325TIP3    H264467   5.575   5.123   0.801  0.5415  0.5015  1.3423
14326TIP3   OH264468   6.635   5.406   4.100  0.0810  0.6215  0.4172
14326TIP3    H164469   6.617   5.484   4.152  1.3449 -0.0928  2.0269
14326TIP3    H264470   6.727   5.386   4.117 -0.0343 -0.8482 -0.4711
14327TIP3   OH264471   6.763   1.929  15.627  0.2990 -0.0666 -0.0774
14327TIP3    H164472   6.857   1.945  15.617  0.2257  0.2408 -0.3056
14327TIP3    H264473   6.722   1.997  15.573 -0.0392 -0.6333 -0.5504
14328TIP3   OH264474   4.547   4.574  14.950 -0.0061  0.7860  0.3071
14328TIP3    H164475   4.604   4.645  14.920  0.5378 -0.4758 -1.8897
14328TIP3    H264476   4.596   4.494  14.932 -2.2264 -0.3410 -1.2700
14329TIP3   OH264477   2.802   4.203  14.384 -0.7397  0.0168 -0.4721
14329TIP3    H164478   2.861   4.278  14.378 -1.6403  0.8197  0.3165
14329TIP3    H264479   2.854   4.133  14.423 -0.5708  1.0150  1.1469
14330TIP3   OH264480   0.051   5.276  12.433 -0.6925 -0.0906  0.3674
14330TIP3    H164481  -0.037   5.310  12.445 -0.6261  0.9650 -1.8187
14330TIP3    H264482   0.045   5.215  12.359  0.2592 -0.6927  0.7544
14331TIP3   OH264483   4.576   6.201   3.920  0.0499 -0.0851  0.0226
14331TIP3    H164484   4.627   6.147   3.980  0.4666  1.5482  1.2083
14331TIP3    H264485   4.583   6.156   3.835  0.8576 -1.5380  0.8219
14332TIP3   OH264486   6.146   5.426  13.660  0.0280  0.1299  0.8850
14332TIP3    H164487   6.168   5.372  13.585 -0.7803 -0.8871  1.3505
14332TIP3    H264488   6.085   5.492  13.626  1.3524  1.0553  0.2249
14333TIP3   OH264489   6.305   1.129   1.910  0.1917  0.1322 -0.9666
14333TIP3    H164490   6.397   1.153   1.900  0.3260 -0.5336 -1.4371
14333TIP3    H264491   6.308   1.036   1.935 -0.3516  0.0842 -1.0813
14334TIP3   OH264492   3.852   1.193   2.699  0.2886  0.3778 -0.2089
14334TIP3    H164493   3.816   1.119   2.749 -0.3837  1.8117  1.5422
14334TIP3    H264494   3.921   1.154   2.646 -0.9493 -1.7434 -0.3973
14335TIP3   OH264495   4.766   4.294  11.078 -0.1896 -0.1902 -0.0866
14335TIP3    H164496   4.791   4.236  11.006  1.3850 -0.4171  0.5856
14335TIP3    H264497   4.673   4.276  11.093 -0.4789 -0.3168 -1.8703
14336TIP3   OH264498   6.632   6.624   3.893  0.1267  0.0975 -0.1777
14336TIP3    H164499   6.700   6.593   3.952  0.3930  2.0044  0.5995
14336TIP3    H264500   6.589   6.695   3.941 -3.3719 -1.8482 -0.0565
14337TIP3   OH264501   0.550   4.292  13.440  0.2825 -0.6621 -0.3516
14337TIP3    H164502   0.537   4.349  13.364 -1.0933 -1.2952 -0.6249
14337TIP3    H264503   0.613   4.339  13.494 -1.1902  1.4145 -0.2844
14338TIP3   OH264504   3.947   4.710   3.611  0.2704  0.1569  0.0242
14338TIP3    H164505   3.920   4.731   3.521  0.5445 -0.0716 -0.1150
14338TIP3    H264506   4.037   4.678   3.601  1.2850  2.5475  0.6558
14339TIP3   OH264507   3.655   4.795   2.147 -0.7174  0.3941  0.0979
14339TIP3    H164508   3.623   4.872   2.100  2.4995  2.0736  0.4306
14339TIP3    H264509   3.720   4.829   2.208  2.3985 -2.7238 -1.1605
14340TIP3   OH264510   2.414   3.546  16.342 -1.1305  0.6139 -0.1951
14340TIP3    H164511   2.447   3.633  16.322 -2.2419  0.3148 -4.3489
14340TIP3    H264512   2.492   3.490  16.342 -0.5369  1.3981  1.4150
14341TIP3   OH264513   4.287   2.355  12.453  0.4257 -0.2836 -0.1968
14341TIP3    H164514   4.254   2.441  12.477  0.6520  0.1086 -1.2053
14341TIP3    H264515   4.212   2.312  12.411  1.1503  0.6636 -2.6241
14342TIP3   OH264516   4.874   6.817   5.991  0.0812  0.3879 -0.1454
14342TIP3    H164517   4.882   6.736   6.040  2.2049  1.0495  0.7373
14342TIP3    H264518   4.930   6.879   6.038 -0.9639  2.1927 -1.1601
14343TIP3   OH264519   0.902   0.456  12.358 -0.0010 -0.5777 -0.1631
14343TIP3    H164520   0.834   0.410  12.408  0.4040 -0.7607  0.2274
14343TIP3    H264521   0.981   0.405  12.374  0.4354  0.1898  0.1833
14344TIP3   OH264522   0.916   5.571  11.982  0.0670 -0.2384 -0.0870
14344TIP3    H164523   0.988   5.599  11.925  1.0277 -1.9642  0.2020
14344TIP3    H264524   0.909   5.640  12.048  0.5548  0.6030 -0.8940
14345TIP3   OH264525   4.370   4.041   1.098 -0.4093 -0.0751 -0.7321
14345TIP3    H164526   4.381   3.950   1.126 -0.5977  0.1747  0.1717
14345TIP3    H264527   4.391   4.040   1.005  0.6253 -0.8564 -0.5071
14346TIP3   OH264528   1.613   3.105  11.821 -0.6590 -0.7219 -0.2606
14346TIP3    H164529   1.679   3.146  11.766 -0.9093 -0.2497 -0.2191
14346TIP3    H264530   1.550   3.175  11.839 -0.5717 -0.8681  0.6339
14347TIP3   OH264531   4.229   2.113   1.867 -0.2032  0.0468 -0.1464
14347TIP3    H164532   4.179   2.062   1.803 -0.9219 -0.0596  0.4748
14347TIP3    H264533   4.309   2.063   1.881  0.0706  0.1994 -1.1352
14348TIP3   OH264534   1.351   4.319   2.071 -0.4736  0.0688 -0.3985
14348TIP3    H164535   1.292   4.303   2.145 -2.1720  0.5744 -1.5977
14348TIP3    H264536   1.310   4.274   1.997  0.6246  0.4951 -1.2929
14349TIP3   OH264537   4.406   0.980   5.741 -0.7590 -0.4249  0.0011
14349TIP3    H164538   4.451   0.996   5.824 -0.2020 -1.2084 -0.1392
14349TIP3    H264539   4.334   1.043   5.740 -0.1795  0.2560  0.6283
14350TIP3   OH264540   0.137   0.375   2.061  0.2153  0.1982  0.2712
14350TIP3    H164541   0.089   0.458   2.060 -1.1094 -0.5503  0.0086
14350TIP3    H264542   0.229   0.401   2.052 -0.2371  1.5814 -0.7713
14351TIP3   OH264543   1.323   0.931   5.237  0.2565 -0.6271  0.2282
14351TIP3    H164544   1.323   0.857   5.297 -1.2932 -2.8558 -2.2944
14351TIP3    H264545   1.254   0.911   5.174  0.4794  2.4879 -1.2176
14352TIP3   OH264546   5.615   6.349   0.155 -0.5053  0.5567 -0.0926
14352TIP3    H164547   5.708   6.364   0.173 -0.3892 -0.2372 -0.0144
14352TIP3    H264548   5.573   6.355   0.240 -0.5948  1.3068 -0.1752
14353TIP3   OH264549   4.789   4.695   3.709 -0.2407 -0.1168 -0.0445
14353TIP3    H164550   4.727   4.746   3.761 -0.1723 -2.1794  2.2680
14353TIP3    H264551   4.734   4.650   3.645 -0.5063  1.4440 -0.9616
14354TIP3   OH264552   3.592   5.730  12.053  0.1149 -0.2399  0.2320
14354TIP3    H164553   3.529   5.672  12.010  0.5642 -0.0087 -0.7500
14354TIP3    H264554   3.670   5.725  11.999  0.7164  0.0147  1.0624
14355TIP3   OH264555   5.894   2.394   5.318 -0.3354  0.2702 -0.2299
14355TIP3    H164556   5.878   2.360   5.406 -0.0486  2.2739  0.6651
14355TIP3    H264557   5.989   2.395   5.310 -0.3598  0.1966 -0.5239
14356TIP3   OH264558   1.563   2.738   0.821  0.0872 -0.3831  0.3186
14356TIP3    H164559   1.628   2.801   0.788  0.6246 -1.2912 -0.4010
14356TIP3    H264560   1.538   2.772   0.906  1.9240 -0.2958  0.8681
14357TIP3   OH264561   2.464   3.350   2.513 -0.1981 -0.1493 -0.3470
14357TIP3    H164562   2.555   3.373   2.491  0.4625 -0.3963  1.8561
14357TIP3    H264563   2.434   3.424   2.566 -0.8365 -0.6776  0.0309
14358TIP3   OH264564   0.376   5.011  10.121 -0.4360 -0.4522  0.6670
14358TIP3    H164565   0.416   5.055  10.047 -1.6908  0.7866  0.6746
14358TIP3    H264566   0.446   5.000  10.185  0.2217  0.2119  0.0639
14359TIP3   OH264567   6.786   3.401   5.340  0.0697  0.5589 -0.2205
14359TIP3    H164568   6.824   3.370   5.423 -0.5978 -0.2591 -0.2047
14359TIP3    H264569   6.696   3.370   5.343  0.4427 -0.8458 -1.9412
14360TIP3   OH264570   2.164   2.955  10.431 -0.0301  0.1574  0.5959
14360TIP3    H164571   2.150   2.865  10.400  1.7895  0.1212 -0.2241
14360TIP3    H264572   2.116   2.959  10.513 -0.3500 -1.5001  0.5312
14361TIP3   OH264573   6.607   4.815   2.647 -0.0437  0.3046  0.1757
14361TIP3    H164574   6.529   4.761   2.634  0.3630 -0.0065 -1.1028
14361TIP3    H264575   6.680   4.753   2.645  0.2518  0.5987  1.3318
14362TIP3   OH264576   3.325   2.922   2.911 -0.2699  0.1147 -0.1324
14362TIP3    H164577   3.345   2.856   2.977  1.9773  2.0019  1.2430
14362TIP3    H264578   3.240   2.957   2.937  0.0935  0.0825  1.1525
14363TIP3   OH264579   0.472   1.937  11.282  0.5466  0.2293  0.0315
14363TIP3    H164580   0.450   2.013  11.335  2.1596  0.0567  1.0093
14363TIP3    H264581   0.427   1.864  11.324 -1.0216  0.6057 -0.9214
14364TIP3   OH264582   5.389   1.564  10.457 -0.2506  0.2207  0.0097
14364TIP3    H164583   5.479   1.572  10.425 -0.0032  1.1536  0.9005
14364TIP3    H264584   5.362   1.654  10.476 -1.2398 -0.0895  0.1257
14365TIP3   OH264585   6.732   0.891  11.939  0.6052 -0.1322 -0.4107
14365TIP3    H164586   6.806   0.832  11.923 -0.1363 -0.9926 -0.7754
14365TIP3    H264587   6.772   0.971  11.973  1.8533  0.0487 -2.1790
14366TIP3   OH264588   3.341   6.380   5.384 -0.0199 -0.0841  0.4557
14366TIP3    H164589   3.319   6.473   5.382 -0.0627 -0.1014 -0.0028
14366TIP3    H264590   3.330   6.351   5.293 -2.1589 -1.0336  0.9742
14367TIP3   OH264591   5.111   6.672  13.166 -0.3971 -0.5532 -0.0589
14367TIP3    H164592   5.037   6.613  13.156 -1.7986  1.1196  0.0142
14367TIP3    H264593   5.110   6.696  13.258  0.0381 -0.2551 -0.1292
14368TIP3   OH264594   6.390   6.106   5.177 -0.3348 -0.3982  0.3541
14368TIP3    H164595   6.484   6.100   5.195 -0.0472  3.3690  0.7999
14368TIP3    H264596   6.382   6.080   5.085  1.1918 -0.3995  0.1942
14369TIP3   OH264597   3.130   3.918   4.449  0.3955  0.2289  0.2632
14369TIP3    H164598   3.072   3.971   4.504  0.0605 -0.4569  0.5686
14369TIP3    H264599   3.095   3.928   4.361 -1.2109 -1.4892  0.6518
14370TIP3   OH264600   5.477   1.963  16.967 -0.6915  0.1554  0.6484
14370TIP3    H164601   5.492   1.879  16.923 -1.5875  1.0340 -1.4606
14370TIP3    H264602   5.521   1.954  17.051 -0.0025 -2.1030  0.1141
14371TIP3   OH264603   1.817   2.834   1.996 -0.3674 -0.4154 -0.1941
14371TIP3    H164604   1.777   2.820   1.910  0.3156 -0.7433 -0.4658
14371TIP3    H264605   1.898   2.882   1.978 -0.7919  0.5312  0.3796
14372TIP3   OH264606   1.928   5.147  16.158 -0.4595  0.0959 -0.3071
14372TIP3    H164607   1.980   5.107  16.088  1.7752  0.4102  1.0584
14372TIP3    H264608   1.913   5.076  16.220  0.1386  0.4557  0.2658
14373TIP3   OH264609   2.655   5.386   2.591  0.0344  0.9031  0.0313
14373TIP3    H164610   2.672   5.462   2.535  0.0915  1.2707  0.5421
14373TIP3    H264611   2.603   5.421   2.663 -0.1911  0.3949  0.1177
14374TIP3   OH264612   2.578   6.310   4.109 -0.4496  0.1384 -0.2895
14374TIP3    H164613   2.630   6.247   4.058 -2.5353 -1.2007 -0.9259
14374TIP3    H264614   2.501   6.260   4.136 -1.6116  2.1143  0.2419
14375TIP3   OH264615   2.329   1.344  15.016  0.6797 -0.4228  0.1654
14375TIP3    H164616   2.261   1.391  15.065 -0.7611 -0.5709 -1.5892
14375TIP3    H264617   2.374   1.412  14.967 -0.0224 -0.5852 -0.7465
14376TIP3   OH264618   5.420   5.189   4.446 -0.1464 -0.1860  0.0785
14376TIP3    H164619   5.499   5.225   4.406  0.7189 -0.1753  1.6953
14376TIP3    H264620   5.348   5.227   4.396  0.8193  1.3906 -0.1843
14377TIP3   OH264621   3.472   4.621  13.785 -0.0850  0.1619  0.5801
14377TIP3    H164622   3.420   4.646  13.861  0.3259  1.2019  0.5389
14377TIP3    H264623   3.468   4.697  13.728 -0.9256 -0.8496 -0.7591
14378TIP3   OH264624   0.592   2.935   4.243  0.1426  0.6477 -0.0339
14378TIP3    H164625   0.598   2.926   4.338 -0.4481 -3.6938 -0.1931
14378TIP3    H264626   0.500   2.954   4.226  0.4343  2.4223  0.2371
14379TIP3   OH264627   3.124   4.050   5.759  0.4260 -0.4234  0.0161
14379TIP3    H164628   3.184   4.000   5.703  1.3788  0.7345 -0.0310
14379TIP3    H264629   3.162   4.045   5.846  0.5716  0.2937 -0.0063
14380TIP3   OH264630   4.721   2.299   0.383  0.3923  0.1343  0.1527
14380TIP3    H164631   4.747   2.226   0.440 -0.2291 -0.9804 -0.9384
14380TIP3    H264632   4.658   2.260   0.322  0.5575  1.4438 -0.8922
14381TIP3   OH264633   4.750   3.721   1.865  0.1941  0.4836 -0.5695
14381TIP3    H164634   4.742   3.806   1.910 -1.4494  0.3574 -0.5859
14381TIP3    H264635   4.816   3.674   1.916 -0.6911  0.8413  0.9763
14382TIP3   OH264636   1.409   6.176   0.334 -0.3918  0.4594  0.5880
14382TIP3    H164637   1.359   6.190   0.254 -0.1085  0.7459  0.4572
14382TIP3    H264638   1.349   6.200   0.405 -0.8312 -0.3467  0.4881
14383TIP3   OH264639   5.727   3.201  11.343  0.0283  0.1415 -0.3338
14383TIP3    H164640   5.733   3.278  11.286  0.2399  1.1609  1.0127
14383TIP3    H264641   5.651   3.219  11.400 -0.3953 -1.0116 -0.5094
14384TIP3   OH264642   4.944   0.724   5.168  0.3872  0.4440 -0.0720
14384TIP3    H164643   4.949   0.817   5.187  1.0447 -0.0320  2.3617
14384TIP3    H264644   4.931   0.682   5.253 -0.4245 -1.6609 -1.1602
14385TIP3   OH264645   1.801   1.265  11.367  0.4890 -0.0610  0.4023
14385TIP3    H164646   1.724   1.233  11.321 -0.4083  0.2888  1.6007
14385TIP3    H264647   1.766   1.313  11.442  1.7831  2.6240 -0.5584
14386TIP3   OH264648   6.557   4.548   0.178  0.3826 -0.4427 -0.5014
14386TIP3    H164649   6.556   4.616   0.110 -0.1986  1.5516  1.4057
14386TIP3    H264650   6.521   4.471   0.134  2.1630  0.0609 -3.0709
14387TIP3   OH264651   3.482   2.604   3.078  0.1292  0.3075  0.0775
14387TIP3    H164652   3.516   2.534   3.134  1.0382  1.3384  0.8524
14387TIP3    H264653   3.394   2.621   3.111  0.2805  0.2091  0.5347
14388TIP3   OH264654   1.174   2.126  16.109  0.2900 -0.3040  0.2788
14388TIP3    H164655   1.080   2.140  16.096  0.1047 -1.1626  0.6534
14388TIP3    H264656   1.195   2.177  16.187 -0.1757 -1.2973  1.0628
14389TIP3   OH264657   5.952   4.770   4.765  0.2006  0.4727 -0.2559
14389TIP3    H164658   6.034   4.731   4.735  0.3966 -0.5714  1.4988
14389TIP3    H264659   5.888   4.744   4.699  1.5355  2.8998 -2.7091
14390TIP3   OH264660   4.669   4.070  15.153  0.4077 -0.1922  0.2256
14390TIP3    H164661   4.685   4.156  15.192 -0.4874 -0.6298  1.6380
14390TIP3    H264662   4.738   4.060  15.088  1.3734  1.0095  1.0182
14391TIP3   OH264663   3.076   3.822  15.452  0.5492 -0.1442 -0.3735
14391TIP3    H164664   3.044   3.738  15.421  0.6124  0.3865 -1.9815
14391TIP3    H264665   2.996   3.873  15.467  0.4948 -0.6302  1.0688
14392TIP3   OH264666   0.269   4.254  13.455 -0.1211 -0.9661  0.2965
14392TIP3    H164667   0.237   4.178  13.502  0.9084 -1.9797 -0.5683
14392TIP3    H264668   0.364   4.241  13.450  0.1612  0.7121  0.6916
14393TIP3   OH264669   5.198   4.828   3.998  0.1698 -0.2319 -0.0305
14393TIP3    H164670   5.276   4.803   3.948 -0.0469  0.5394 -0.7754
14393TIP3    H264671   5.232   4.849   4.085  0.7167 -0.4567 -0.1806
14394TIP3   OH264672   4.449   5.163   1.739  0.4525 -0.4199 -0.2705
14394TIP3    H164673   4.542   5.147   1.755  0.7996 -0.6633 -2.2719
14394TIP3    H264674   4.448   5.221   1.663 -1.0258  1.1489  0.8490
14395TIP3   OH264675   2.047   2.129   1.702 -0.3122 -0.2265  0.6017
14395TIP3    H164676   2.140   2.132   1.683 -0.2942 -1.1839  0.4925
14395TIP3    H264677   2.028   2.037   1.719 -0.9634  0.1278  2.0242
14396TIP3   OH264678   6.217   6.581   3.492  0.1166  0.2732 -0.2670
14396TIP3    H164679   6.286   6.593   3.556 -1.2312 -0.9812  1.5074
14396TIP3    H264680   6.153   6.649   3.513  0.6770  1.3422 -1.8112
14397TIP3   OH264681   5.644   4.159  16.018  0.2900 -0.7454  0.2986
14397TIP3    H164682   5.580   4.121  15.957 -1.1546 -0.4873  1.5975
14397TIP3    H264683   5.645   4.253  15.996  1.9193 -1.0435 -1.1711
14398TIP3   OH264684   3.640   5.923   1.855 -0.0197  0.5073  0.5406
14398TIP3    H164685   3.551   5.951   1.876  0.1990  0.8534  1.0322
14398TIP3    H264686   3.686   6.004   1.832  0.1769  0.3353  0.3145
14399TIP3   OH264687   2.412   1.635  14.816 -0.1267  0.3017  0.6890
14399TIP3    H164688   2.487   1.641  14.756 -0.7409  2.5166  0.0414
14399TIP3    H264689   2.449   1.651  14.903  0.3400 -0.0381  0.5613
14400TIP3   OH264690   3.948   5.031   0.018  1.0360  0.6460  0.0698
14400TIP3    H164691   3.915   4.970   0.084  0.5690  0.8573  0.0400
14400TIP3    H264692   4.040   5.008   0.007  0.6024 -0.8511 -0.8031
14401TIP3   OH264693   0.478   4.003   5.494 -0.2241 -0.0823  0.2355
14401TIP3    H164694   0.504   4.018   5.585 -0.7383 -0.3477  0.4307
14401TIP3    H264695   0.539   4.055   5.442 -0.2557  0.4785  0.7565
14402TIP3   OH264696   5.480   6.338   0.860 -0.4147  0.6555 -0.1071
14402TIP3    H164697   5.561   6.291   0.839 -0.6886  0.4728 -0.7886
14402TIP3    H264698   5.425   6.274   0.904 -1.1161  0.0497 -1.7732
14403TIP3   OH264699   1.855   4.599   0.236 -0.0300 -0.0275  0.1434
14403TIP3    H164700   1.933   4.650   0.256  0.6741 -0.9686 -0.1519
14403TIP3    H264701   1.877   4.509   0.262  0.4420 -1.0963 -3.3321
14404TIP3   OH264702   6.180   0.671  15.642  0.6012  0.0338  0.1361
14404TIP3    H164703   6.202   0.636  15.728 -1.1951  0.9042  0.9931
14404TIP3    H264704   6.265   0.689  15.601  1.6067 -3.3006  0.4193
14405TIP3   OH264705   3.580   3.874   2.962  0.1215 -0.2767 -0.0139
14405TIP3    H164706   3.576   3.891   2.868 -0.4288  0.2546  0.0999
14405TIP3    H264707   3.653   3.813   2.972  0.3618 -0.1237 -0.7516
14406TIP3   OH264708   4.021   5.282   1.456  0.2416  0.2967  0.6261
14406TIP3    H164709   4.054   5.302   1.543  2.3450 -0.6357  0.0976
14406TIP3    H264710   3.955   5.215   1.470 -0.3640  1.0608  1.5869
14407TIP3   OH264711   0.426   0.755   3.339 -0.2525  0.1595  0.5580
14407TIP3    H164712   0.362   0.698   3.296 -1.0303  1.5497 -0.1863
14407TIP3    H264713   0.394   0.762   3.429 -0.1262 -0.5988  0.6685
14408TIP3   OH264714   3.465   2.767  11.990  0.6909  0.2590  0.2999
14408TIP3    H164715   3.379   2.726  12.003  0.7605  0.0984  0.2580
14408TIP3    H264716   3.523   2.694  11.969  1.1778  0.1323  1.9087
14409TIP3   OH264717   2.714   0.392   3.855 -0.5110 -0.1533 -0.0704
14409TIP3    H164718   2.636   0.386   3.911  0.1125 -1.5406  0.6804
14409TIP3    H264719   2.756   0.474   3.881 -2.5846  1.5504 -1.6950
14410TIP3   OH264720   0.827   6.300  14.585  0.3586 -0.4213  0.0925
14410TIP3    H164721   0.733   6.314  14.594 -0.1901 -3.1247 -0.5310
14410TIP3    H264722   0.856   6.369  14.525 -1.4852 -0.2535 -0.6717
14411TIP3   OH264723   5.305   4.082  13.789 -0.2457  0.0344  0.0560
14411TIP3    H164724   5.220   4.105  13.751  0.1746  0.8433 -0.4173
14411TIP3    H264725   5.344   4.165  13.815  0.7662 -0.2328 -0.5323
14412TIP3   OH264726   2.240   4.548   3.211 -0.9370 -0.3039  0.0034
14412TIP3    H164727   2.250   4.565   3.117  0.8636 -0.7722  0.0768
14412TIP3    H264728   2.259   4.632   3.253  0.7410 -0.6779  0.0394
14413TIP3   OH264729   2.656   4.129   4.701 -0.7166  0.5499 -0.3792
14413TIP3    H164730   2.594   4.085   4.643 -1.3514  0.4836  0.3455
14413TIP3    H264731   2.615   4.127   4.787 -0.8465  2.7208 -0.3433
14414TIP3   OH264732   2.979   1.892  12.678 -0.5084  0.7028  0.1363
14414TIP3    H164733   2.974   1.892  12.773 -0.6687 -0.9285  0.1713
14414TIP3    H264734   3.068   1.862  12.659 -1.1152 -1.0551 -0.1630
14415TIP3   OH264735   0.418   5.917  12.013  0.2397 -0.9229 -0.2135
14415TIP3    H164736   0.506   5.935  11.979 -0.3471  0.6885 -1.0108
14415TIP3    H264737   0.383   5.850  11.955  0.2900 -0.2450 -1.0538
14416TIP3   OH264738   1.470   6.463   1.045 -0.3313  0.4231  0.0805
14416TIP3    H164739   1.554   6.417   1.038  0.1268  1.2691 -0.1434
14416TIP3    H264740   1.407   6.404   1.004 -0.1533 -0.9518  1.6865
14417TIP3   OH264741   3.430   3.509   3.199  0.0363 -0.3674  0.2904
14417TIP3    H164742   3.446   3.482   3.109  3.2847 -1.2714  0.9872
14417TIP3    H264743   3.461   3.599   3.203  0.6534 -0.5848  0.6312
14418TIP3   OH264744   4.523   2.618   2.717 -0.5031 -0.6482 -0.3756
14418TIP3    H164745   4.492   2.562   2.789 -1.5047  0.2553 -0.0842
14418TIP3    H264746   4.444   2.651   2.676  0.0439 -1.3865 -2.1408
14419TIP3   OH264747   6.440   1.570   4.873  0.1602  0.0142 -0.2958
14419TIP3    H164748   6.468   1.644   4.821 -0.5158  0.3066 -0.2484
14419TIP3    H264749   6.346   1.581   4.884  0.0808 -0.7329 -0.1076
14420TIP3   OH264750   6.159   6.425  16.789 -0.8690 -0.0728 -0.0563
14420TIP3    H164751   6.206   6.500  16.752  0.1878 -0.5146  0.3514
14420TIP3    H264752   6.067   6.444  16.771 -0.6147  1.2416 -0.0970
14421TIP3   OH264753   3.385   3.145  11.613  0.1968  0.1021 -0.6526
14421TIP3    H164754   3.470   3.152  11.570  0.7128 -3.7307 -0.5867
14421TIP3    H264755   3.360   3.053  11.604 -1.9481  0.1002  3.0243
14422TIP3   OH264756   1.156   2.937  15.922  0.2921 -0.0484 -0.3862
14422TIP3    H164757   1.087   2.882  15.959  1.6252 -1.1921  0.5289
14422TIP3    H264758   1.217   2.875  15.881  2.0917  0.6489  1.0972
14423TIP3   OH264759   2.008   5.666   1.066  0.2902  0.2290  0.0429
14423TIP3    H164760   1.980   5.729   1.133  0.9677  0.2815  0.2868
14423TIP3    H264761   1.955   5.588   1.082 -0.7228  0.8148 -0.4088
14424TIP3   OH264762   0.719   1.267   0.989 -0.1933 -0.0069  0.6775
14424TIP3    H164763   0.638   1.238   0.947 -0.5112  1.9594 -0.1825
14424TIP3    H264764   0.781   1.197   0.973 -1.3568 -0.9525  0.1810
14425TIP3   OH264765   4.923   2.281   1.907  0.3256 -0.3039  0.6211
14425TIP3    H164766   5.018   2.291   1.916  0.2312  0.6170  0.6639
14425TIP3    H264767   4.895   2.358   1.858 -0.4215 -0.5257  0.6784
14426TIP3   OH264768   2.676   5.765  13.074  0.5724  0.1289  0.1451
14426TIP3    H164769   2.601   5.735  13.126  1.3236  1.1997  1.9779
14426TIP3    H264770   2.637   5.809  12.999 -0.6743  0.4971  0.9685
14427TIP3   OH264771   0.210   3.309  14.941  0.4858 -0.3238  0.3000
14427TIP3    H164772   0.223   3.378  15.006  0.4310 -0.8326  0.8635
14427TIP3    H264773   0.299   3.284  14.915  0.5188 -0.3459  0.4298
14428TIP3   OH264774   5.356   3.400   3.975  0.3460  0.2824 -0.6928
14428TIP3    H164775   5.274   3.367   3.938  0.4426  0.7696 -1.3632
14428TIP3    H264776   5.330   3.443   4.057 -0.2174  1.2561 -1.3584
14429TIP3   OH264777   3.455   1.928   6.670  0.2917 -0.0126  0.4242
14429TIP3    H164778   3.462   1.995   6.602 -0.1231 -0.3367  0.0536
14429TIP3    H264779   3.545   1.904   6.689  0.4300  0.3983  0.3038
14430TIP3   OH264780   3.807   0.716   0.895  0.0888 -0.0613  0.1993
14430TIP3    H164781   3.839   0.712   0.805  0.0789 -2.8351  0.2463
14430TIP3    H264782   3.884   0.698   0.948 -0.1260  0.4774  0.6974
14431TIP3   OH264783   1.036   0.854  15.809  0.2586  0.4803  0.6770
14431TIP3    H164784   1.062   0.864  15.717  0.3445  1.7111  0.8198
14431TIP3    H264785   0.957   0.908  15.818 -0.4920 -0.6496  1.0334
14432TIP3   OH264786   6.418   5.542  12.139 -0.0761 -0.9285  0.2619
14432TIP3    H164787   6.360   5.600  12.188  1.9119  0.5891  0.9421
14432TIP3    H264788   6.403   5.566  12.047  0.1273  0.0878  0.4876
14433TIP3   OH264789   3.134   1.002   3.097  0.0932  0.0307 -0.4804
14433TIP3    H164790   3.134   1.065   3.169  2.7141  0.2932 -0.6368
14433TIP3    H264791   3.180   1.047   3.026  0.5928 -1.4839 -1.1447
14434TIP3   OH264792   0.742   2.185  14.196 -0.1299 -0.0333 -0.3146
14434TIP3    H164793   0.773   2.162  14.109 -0.4238 -0.2898 -0.3518
14434TIP3    H264794   0.820   2.184  14.251  0.2543  1.2094 -0.7884
14435TIP3   OH264795   1.323   3.084   2.545 -0.9554 -0.1741 -0.2816
14435TIP3    H164796   1.291   3.005   2.590 -0.4963 -0.0399  0.2836
14435TIP3    H264797   1.412   3.095   2.576 -0.8622  0.3136 -0.7134
14436TIP3   OH264798   4.043   3.059   1.379  0.1962  0.1234 -0.4478
14436TIP3    H164799   4.083   3.002   1.444  2.3890  1.8907 -0.1507
14436TIP3    H264800   3.954   3.024   1.367  0.1629 -1.0117  2.5051
14437TIP3   OH264801   6.708   1.576  11.852  0.1544 -0.6232 -0.0503
14437TIP3    H164802   6.621   1.539  11.865 -0.9369  2.4036  2.0986
14437TIP3    H264803   6.701   1.624  11.769 -0.0477 -0.7369 -0.1010
14438TIP3   OH264804   1.270   3.458   3.469 -0.0579  0.2857  0.4668
14438TIP3    H164805   1.353   3.502   3.454  0.5834 -1.1435 -0.4034
14438TIP3    H264806   1.262   3.453   3.565  1.4644 -0.6246  0.5799
14439TIP3   OH264807   0.077   4.175  15.605  0.3840 -0.2472  0.2044
14439TIP3    H164808   0.023   4.117  15.552  1.3580 -0.2062 -0.8671
14439TIP3    H264809   0.167   4.152  15.583  0.8047  0.6302  0.9140
14440TIP3   OH264810   5.809   4.985  16.036 -1.0731  0.5876 -0.1214
14440TIP3    H164811   5.845   4.897  16.034  1.3765  1.3491  2.6295
14440TIP3    H264812   5.815   5.012  16.128 -0.4194  4.0584 -1.0114
14441TIP3   OH264813   4.811   3.259  10.794  0.4232 -0.1877  0.0939
14441TIP3    H164814   4.795   3.194  10.726 -1.2925 -0.5872  0.8460
14441TIP3    H264815   4.870   3.215  10.855  1.1049 -0.1969 -0.5413
14442TIP3   OH264816   1.927   6.281  12.448 -0.1491  0.0289 -0.0413
14442TIP3    H164817   1.841   6.287  12.408  0.1267  0.6986 -0.5596
14442TIP3    H264818   1.976   6.222  12.391  0.8809  2.5597 -1.9495
14443TIP3   OH264819   0.689   1.055   2.823 -0.4693 -0.0426 -0.4526
14443TIP3    H164820   0.635   1.124   2.784 -1.3785 -1.1922 -1.2983
14443TIP3    H264821   0.779   1.079   2.801 -0.8640  0.1834 -1.8915
14444TIP3   OH264822   2.993   1.965  11.433 -0.0939 -0.4392 -0.0641
14444TIP3    H164823   3.034   2.027  11.494 -0.4612  0.5719 -0.8088
14444TIP3    H264824   2.928   2.018  11.386  1.3257 -0.7590 -2.5265
14445TIP3   OH264825   5.463   3.461  13.201  0.2627  0.0446  0.0012
14445TIP3    H164826   5.420   3.513  13.270  0.5000 -1.2089  1.1371
14445TIP3    H264827   5.413   3.481  13.122 -0.2607  1.2398  0.5965
14446TIP3   OH264828   3.279   5.709  14.138 -0.2147 -0.4371  0.8201
14446TIP3    H164829   3.187   5.724  14.157 -0.5859 -0.7216 -0.6194
14446TIP3    H264830   3.285   5.616  14.115  0.1756 -0.1484 -0.3455
14447TIP3   OH264831   0.078   2.675   3.296  0.4533 -0.1329 -0.1651
14447TIP3    H164832   0.094   2.639   3.209  1.8300 -0.0175  0.0201
14447TIP3    H264833   0.153   2.733   3.312  1.6238 -2.1133  2.1325
14448TIP3   OH264834   3.836   3.199   1.593  0.2497 -0.3257  0.5264
14448TIP3    H164835   3.774   3.135   1.559  0.0500  0.8619 -1.4630
14448TIP3    H264836   3.921   3.156   1.588  0.5432  0.4096 -3.4803
14449TIP3   OH264837   4.129   5.343  14.013  0.2401  0.0666  0.0038
14449TIP3    H164838   4.175   5.406  14.070  0.0575 -0.8855  1.2548
14449TIP3    H264839   4.198   5.307  13.957  0.4536  0.9008 -0.2843
14450TIP3   OH264840   3.599   4.159   0.047  0.0169  0.3267  0.3731
14450TIP3    H164841   3.676   4.141   0.102  0.7944  0.1643 -0.7260
14450TIP3    H264842   3.628   4.227  -0.013 -1.4752  2.0026  1.4764
14451TIP3   OH264843   2.505   5.328   6.207 -0.1700 -0.4660 -0.1768
14451TIP3    H164844   2.442   5.397   6.230  0.3315 -0.3704  0.9991
14451TIP3    H264845   2.587   5.359   6.244  0.5698 -0.6174 -1.6509
14452TIP3   OH264846   2.020   5.984  15.593 -0.2626  0.2013 -0.4435
14452TIP3    H164847   1.978   5.938  15.666 -0.2981  0.1657 -0.4867
14452TIP3    H264848   2.087   6.038  15.634  0.3481 -0.5209 -0.4781
14453TIP3   OH264849   1.371   3.177   4.389  0.5836 -0.0286  0.5199
14453TIP3    H164850   1.460   3.175   4.423  0.6505 -1.1080  0.3116
14453TIP3    H264851   1.353   3.087   4.362  0.2298  0.6121 -1.5288
14454TIP3   OH264852   3.315   4.077   5.068  0.2736  0.4563  0.2023
14454TIP3    H164853   3.231   4.036   5.050 -0.3227  2.1889 -1.4504
14454TIP3    H264854   3.379   4.024   5.020 -0.3084  0.7287 -0.9126
14455TIP3   OH264855   6.376   2.343  16.629  0.3392 -0.3083 -0.0549
14455TIP3    H164856   6.464   2.327  16.596  0.4026 -0.1876  0.0544
14455TIP3    H264857   6.381   2.428  16.672  0.2291 -0.4048  0.1563
14456TIP3   OH264858   5.514   0.225  11.359 -0.2071  0.4908 -0.2208
14456TIP3    H164859   5.537   0.255  11.271 -1.9448  0.6753 -0.6649
14456TIP3    H264860   5.594   0.186  11.394  0.4822  0.3006 -1.9287
14457TIP3   OH264861   3.844   3.438   2.678 -0.4710 -0.2634 -0.0333
14457TIP3    H164862   3.932   3.422   2.710 -1.1450 -0.9623  1.5673
14457TIP3    H264863   3.807   3.501   2.740 -0.6452  1.1707 -1.5172
14458TIP3   OH264864   4.091   6.702   4.094 -0.1591  0.3332  0.2409
14458TIP3    H164865   4.182   6.676   4.105 -0.6313 -2.6045 -1.7500
14458TIP3    H264866   4.049   6.681   4.178  0.4829 -0.8964  0.2757
14459TIP3   OH264867   2.087   1.023  14.097  0.2478 -0.0684  0.2567
14459TIP3    H164868   2.166   0.984  14.059 -0.8467 -2.1405 -0.0081
14459TIP3    H264869   2.080   0.983  14.183 -1.4777 -1.3335 -0.4269
14460TIP3   OH264870   3.325   1.017  15.372 -0.3952 -0.1965 -0.2332
14460TIP3    H164871   3.301   0.925  15.362  0.0404 -0.1780 -1.6036
14460TIP3    H264872   3.353   1.024  15.463 -1.7993 -1.0863  0.2971
14461TIP3   OH264873   2.539   5.836  11.604  0.5338  0.4437  0.0072
14461TIP3    H164874   2.488   5.908  11.566 -1.4116 -0.6933  0.3509
14461TIP3    H264875   2.561   5.780  11.530  0.7770  0.6315 -0.0625
14462TIP3   OH264876   5.164   4.417   0.912  0.5490  0.2879  0.1159
14462TIP3    H164877   5.122   4.502   0.925  0.5052  0.3485 -0.4115
14462TIP3    H264878   5.204   4.422   0.825  1.8389  0.2969  0.6888
14463TIP3   OH264879   4.276   4.604  13.383 -0.2307  0.3558 -0.4394
14463TIP3    H164880   4.219   4.534  13.414  0.6477 -0.0031  0.4295
14463TIP3    H264881   4.248   4.620  13.293 -0.9206 -0.6092 -0.4115
14464TIP3   OH264882   1.474   5.429  12.040  0.5495  0.4093  0.1547
14464TIP3    H164883   1.406   5.496  12.039  1.0365  0.9181  0.2592
14464TIP3    H264884   1.493   5.414  12.132 -0.6477 -1.0190  0.1848
14465TIP3   OH264885   1.644   6.583  13.753  0.3927 -0.1504 -0.3506
14465TIP3    H164886   1.704   6.616  13.686  0.5387 -3.6105 -2.0961
14465TIP3    H264887   1.699   6.532  13.812 -0.2429  0.1810  0.5601
14466TIP3   OH264888   4.047   4.407  15.825  0.0170  0.5543 -0.3706
14466TIP3    H164889   4.104   4.474  15.787  1.8311 -0.5522  0.2557
14466TIP3    H264890   4.026   4.441  15.912  0.1077  0.7600 -0.4278
14467TIP3   OH264891   2.778   5.877   4.042 -0.4963 -0.3327  0.4262
14467TIP3    H164892   2.859   5.830   4.022 -0.1075  0.3329  0.4216
14467TIP3    H264893   2.710   5.809   4.039 -0.0045 -0.8210  0.0099
14468TIP3   OH264894   3.189   3.826  16.795 -0.1972 -0.1159  0.6186
14468TIP3    H164895   3.214   3.816  16.703 -0.4889  1.2723  0.3662
14468TIP3    H264896   3.096   3.848  16.792  0.0271  0.9821  1.1662
14469TIP3   OH264897   3.840   4.708   0.032 -0.1990 -0.3342 -0.0711
14469TIP3    H164898   3.808   4.763   0.103  0.8230 -0.8887  0.8573
14469TIP3    H264899   3.867   4.627   0.075  2.0853 -0.0326 -0.8061
14470TIP3   OH264900   0.873   2.593  13.201  0.3299  0.0170 -0.3002
14470TIP3    H164901   0.964   2.608  13.174  0.0282 -0.7906 -1.8952
14470TIP3    H264902   0.831   2.557  13.123 -1.1429 -0.4903  0.6916
14471TIP3   OH264903   3.102   5.721   2.496  0.0200 -0.1240  0.0758
14471TIP3    H164904   3.087   5.791   2.559  2.7987  0.2605  0.4151
14471TIP3    H264905   3.032   5.732   2.431  0.6061  3.2485 -0.1329
14472TIP3   OH264906   0.162   5.272   3.220 -0.5001 -0.4684  0.6728
14472TIP3    H164907   0.258   5.267   3.216 -0.4779  0.4929 -1.1686
14472TIP3    H264908   0.136   5.195   3.271  1.3083  0.2133  2.8136
14473TIP3   OH264909   5.491   1.352  11.764  0.2825  0.3617 -0.7441
14473TIP3    H164910   5.580   1.338  11.798  0.8053 -1.5270 -2.7066
14473TIP3    H264911   5.465   1.436  11.802  1.9739 -0.1105  1.7639
14474TIP3   OH264912   4.048   1.100   1.969 -0.4942  0.1994  0.2043
14474TIP3    H164913   3.959   1.067   1.983 -0.4665  0.2017  0.3922
14474TIP3    H264914   4.044   1.145   1.885 -0.4622 -0.5346 -0.2012
14475TIP3   OH264915   0.542   2.189  15.810 -0.5452  0.2892  1.2510
14475TIP3    H164916   0.448   2.187  15.829 -0.9995  0.8728 -0.6792
14475TIP3    H264917   0.552   2.263  15.751  1.2082  0.4337  1.6867
14476TIP3   OH264918   1.930   5.366  13.365  0.3065 -0.1999 -0.4571
14476TIP3    H164919   1.967   5.455  13.363 -2.4928  1.2495  3.0160
14476TIP3    H264920   1.990   5.316  13.420 -0.8470  1.1320  2.1343
14477TIP3   OH264921   4.416   6.365   3.148  0.2671  0.8087  0.0087
14477TIP3    H164922   4.320   6.373   3.153 -0.1059 -2.5067 -0.0686
14477TIP3    H264923   4.445   6.450   3.115 -2.9654  0.8545 -3.3754
14478TIP3   OH264924   4.393   2.087   3.940 -0.3247 -0.3799 -0.3115
14478TIP3    H164925   4.331   2.041   3.996  1.0347 -1.8405  0.0398
14478TIP3    H264926   4.410   2.026   3.868 -0.2458  0.5293 -1.0834
14479TIP3   OH264927   2.097   3.428   4.521 -0.2195 -0.9849  0.1639
14479TIP3    H164928   2.043   3.492   4.567  2.0038  0.6136  0.7444
14479TIP3    H264929   2.078   3.443   4.428 -1.3036 -0.9799  0.3777
14480TIP3   OH264930   4.903   5.795  16.379  0.6886 -0.0486 -0.1480
14480TIP3    H164931   4.941   5.732  16.318  2.1351  3.1608 -2.8465
14480TIP3    H264932   4.817   5.815  16.342 -0.1226 -0.9459  1.1599
14481TIP3   OH264933   2.320   1.204  14.357  0.4037 -0.0803 -0.2265
14481TIP3    H164934   2.344   1.208  14.450  1.9342  0.3935 -0.6073
14481TIP3    H264935   2.257   1.276  14.346  0.1087 -0.2247  0.4686
14482TIP3   OH264936   2.221   3.113  11.721 -0.7814 -0.1487 -0.5024
14482TIP3    H164937   2.215   3.034  11.668 -1.6149 -1.0486  0.8492
14482TIP3    H264938   2.250   3.181  11.661 -0.2183 -1.4403 -1.7425
14483TIP3   OH264939   2.715   2.046  15.012  0.2451 -0.1385 -0.7593
14483TIP3    H164940   2.803   2.080  15.029  0.7920 -1.6145 -0.4499
14483TIP3    H264941   2.670   2.052  15.096  0.0287  0.6741 -0.9319
14484TIP3   OH264942   0.013   1.142   0.895  0.1169 -0.1639  0.4348
14484TIP3    H164943   0.010   1.125   0.989 -0.1870 -0.0282  0.4526
14484TIP3    H264944  -0.075   1.176   0.875 -0.4529 -1.9519 -0.2374
14485TIP3   OH264945   2.967   2.494  16.633  0.3960  0.1248 -0.2226
14485TIP3    H164946   2.912   2.454  16.565  0.3607  1.1276 -0.8154
14485TIP3    H264947   3.055   2.497  16.595  0.2576  1.2532 -0.4969
14486TIP3   OH264948   2.820   5.344   4.049 -0.7004 -0.1087 -0.6900
14486TIP3    H164949   2.891   5.362   4.111 -1.1592 -1.5232  0.2756
14486TIP3    H264950   2.859   5.284   3.986 -0.6975  0.0736 -0.8626
14487TIP3   OH264951   1.399   4.143  10.119 -0.4791 -0.2405  0.1524
14487TIP3    H164952   1.374   4.091  10.195 -1.1762 -0.1750 -0.0296
14487TIP3    H264953   1.413   4.078  10.050 -3.2725 -0.1323 -0.6354
14488TIP3   OH264954   1.926   0.785  14.698  0.2590 -0.1482 -0.1380
14488TIP3    H164955   2.005   0.834  14.722  0.0442  0.1770 -0.1030
14488TIP3    H264956   1.865   0.799  14.770 -0.7580  1.6450 -1.2889
14489TIP3   OH264957   0.998   3.446   2.648 -0.0070 -0.0809 -0.0374
14489TIP3    H164958   1.070   3.413   2.594 -0.0718 -1.1666  0.5148
14489TIP3    H264959   0.924   3.453   2.587 -0.2046 -1.7326 -0.0337
14490TIP3   OH264960   1.274   3.983  16.958 -0.3267 -0.2614 -0.4603
14490TIP3    H164961   1.193   4.002  16.912 -0.6508 -1.3109 -0.3658
14490TIP3    H264962   1.332   3.946  16.891 -0.8767 -1.9969 -0.0351
14491TIP3   OH264963   3.844   0.782  12.469 -0.2532  0.4444  0.2589
14491TIP3    H164964   3.767   0.796  12.525  0.5621  0.8097  1.3343
14491TIP3    H264965   3.820   0.821  12.385 -2.3735 -2.0348 -0.4508
14492TIP3   OH264966   3.508   6.497   5.632 -0.3070 -0.3498  0.1194
14492TIP3    H164967   3.514   6.509   5.537  0.9335  2.5924  0.4661
14492TIP3    H264968   3.415   6.481   5.648 -0.4818 -1.2794 -1.5956
14493TIP3   OH264969   1.521   2.454  15.919 -0.1505 -0.3452  0.5560
14493TIP3    H164970   1.516   2.531  15.975  2.8581 -1.2166  2.2532
14493TIP3    H264971   1.437   2.410  15.932 -1.5729  2.0824  0.2592
14494TIP3   OH264972   6.166   2.559   0.642 -0.6215  0.4956 -0.4755
14494TIP3    H164973   6.190   2.590   0.729  0.7206  3.2085 -1.6719
14494TIP3    H264974   6.235   2.497   0.619  0.0881  1.1862 -0.2700
14495TIP3   OH264975   3.832   1.360   4.521  0.1224  0.6766  0.1142
14495TIP3    H164976   3.920   1.397   4.527  0.5879 -0.4902  0.7382
14495TIP3    H264977   3.785   1.398   4.595  0.8706 -0.6456  1.3052
14496TIP3   OH264978   0.454   6.377  11.212  0.0436  0.4582  0.8692
14496TIP3    H164979   0.470   6.471  11.203 -1.9657  0.8518  0.9251
14496TIP3    H264980   0.532   6.344  11.258 -0.0209  2.4185  2.5532
14497TIP3   OH264981   1.165   3.218  15.326  0.3643 -0.5151 -0.0586
14497TIP3    H164982   1.074   3.192  15.340  0.4237 -1.2165 -0.9231
14497TIP3    H264983   1.206   3.211  15.412 -0.2225 -0.9162  0.1894
14498TIP3   OH264984   6.536   1.324  15.536  0.1219  0.2915  0.0640
14498TIP3    H164985   6.443   1.342  15.551  0.1294 -0.4037  1.1357
14498TIP3    H264986   6.551   1.241  15.582  1.5058  0.9218  0.8252
14499TIP3   OH264987   2.590   2.383  14.508  0.8540  0.2616  0.7074
14499TIP3    H164988   2.547   2.455  14.554  0.2793 -2.1375  4.2843
14499TIP3    H264989   2.519   2.330  14.474  1.1842 -0.3167  0.9120
14500TIP3   OH264990   6.457   5.280  12.213 -0.1147 -0.1158 -0.1460
14500TIP3    H164991   6.539   5.265  12.166 -0.0426  0.4530 -0.2036
14500TIP3    H264992   6.446   5.375  12.213  0.2643 -0.0318  1.6041
14501TIP3   OH264993   4.132   6.694   5.485 -0.4777  0.1180  0.1674
14501TIP3    H164994   4.152   6.617   5.431  0.7360  1.8304 -1.9993
14501TIP3    H264995   4.063   6.665   5.544 -0.6482 -2.3815 -1.1354
14502TIP3   OH264996   5.014   3.636   5.657  0.1180 -0.3178 -0.2202
14502TIP3    H164997   5.014   3.542   5.677  0.3817 -0.1119  0.8200
14502TIP3    H264998   4.945   3.673   5.712 -1.5540 -0.1843 -2.2714
14503TIP3   OH264999   6.385   4.944   6.187 -0.3830  0.8208 -0.1444
14503TIP3    H165000   6.365   4.872   6.128 -0.8458  0.5551  0.3245
14503TIP3    H265001   6.442   5.002   6.136 -0.1831  0.2359 -0.5939
14504TIP3   OH265002   2.167   2.236  11.282 -0.4292 -0.0802  0.1084
14504TIP3    H165003   2.197   2.215  11.371  1.9697 -2.0383 -1.0520
14504TIP3    H265004   2.245   2.225  11.227 -1.7101  1.5764 -2.2142
14505TIP3   OH265005   3.746   5.073   0.884  0.0803  0.5260 -0.1546
14505TIP3    H165006   3.813   5.141   0.885  0.6341 -0.0047  0.8818
14505TIP3    H265007   3.696   5.089   0.804  3.1360 -0.6739 -2.5149
14506TIP3   OH265008   2.189   0.911   4.275  0.1852  0.2476  0.5165
14506TIP3    H165009   2.204   0.902   4.369  1.3972  1.4936  0.4807
14506TIP3    H265010   2.256   0.856   4.235 -0.7127 -0.7659  0.3553
14507TIP3   OH265011   6.221   3.121   0.471  0.4202  0.5528  0.3831
14507TIP3    H165012   6.156   3.192   0.473  1.2490  1.3495 -0.2652
14507TIP3    H265013   6.175   3.048   0.430 -0.6105  0.5215  1.5229
14508TIP3   OH265014   5.375   5.251  12.989 -0.6327  0.1888 -1.1850
14508TIP3    H165015   5.432   5.174  12.990 -0.6287  0.1831 -0.0149
14508TIP3    H265016   5.356   5.266  12.897  1.5490  0.4196 -1.6517
14509TIP3   OH265017   0.757   4.406  13.586  0.8901  0.0883 -0.0324
14509TIP3    H165018   0.805   4.465  13.526  0.1169  0.0689 -0.6906
14509TIP3    H265019   0.784   4.434  13.673  0.8618  1.1566 -0.3471
14510TIP3   OH265020   4.422   1.209  13.585  0.0706  0.2349  0.0603
14510TIP3    H165021   4.432   1.273  13.656 -0.8521  0.5553 -0.0948
14510TIP3    H265022   4.398   1.262  13.508  0.0144 -0.2214 -0.2392
14511TIP3   OH265023   1.725   4.056  11.146  0.3838  0.2409  0.3812
14511TIP3    H165024   1.655   3.999  11.115  0.5469  0.5737 -0.6292
14511TIP3    H265025   1.801   3.999  11.154  0.4177  0.2126 -0.1299
14512TIP3   OH265026   1.342   0.094   0.235 -0.1132 -0.0621  0.0250
14512TIP3    H165027   1.314   0.081   0.144  1.5367  0.6720 -0.6323
14512TIP3    H265028   1.427   0.050   0.240  0.1310  0.5094  1.0201
14513TIP3   OH265029   6.152   5.315  15.577  0.0728 -0.0126 -0.0315
14513TIP3    H165030   6.089   5.244  15.564 -0.9736  0.3692  2.3516
14513TIP3    H265031   6.237   5.271  15.579 -0.4224 -1.0054 -0.0456
14514TIP3   OH265032   3.172   6.535   4.617  0.1081  0.3629 -0.0461
14514TIP3    H165033   3.227   6.553   4.541  0.0250  0.6891 -0.0322
14514TIP3    H265034   3.179   6.440   4.630 -0.7423  0.1229 -1.1309
14515TIP3   OH265035   4.461   4.520  13.563  0.1578  0.1105  0.4162
14515TIP3    H165036   4.405   4.571  13.505  1.0009 -0.2794 -0.7683
14515TIP3    H265037   4.548   4.559  13.553  0.2004  0.4833  1.9669
14516TIP3   OH265038   6.582   1.028   1.846  0.2179 -0.2701 -0.4927
14516TIP3    H165039   6.673   1.012   1.821 -0.3976 -2.4542 -1.6365
14516TIP3    H265040   6.574   0.991   1.934  0.1810 -1.2309 -0.8817
14517TIP3   OH265041   5.051   2.530  13.219  0.1204 -0.7314  0.0562
14517TIP3    H165042   5.057   2.436  13.205  1.9808 -1.0842  2.5084
14517TIP3    H265043   5.138   2.555  13.250 -1.0895  1.2630  2.1616
14518TIP3   OH265044   2.762   0.535   0.655  0.1413 -0.0169  0.4165
14518TIP3    H165045   2.841   0.497   0.616  0.1589  1.7257 -1.4029
14518TIP3    H265046   2.690   0.481   0.620  0.2705  0.6997 -1.0255
14519TIP3   OH265047   1.334   1.184   3.833 -0.0287  0.0076 -0.2466
14519TIP3    H165048   1.421   1.178   3.793  0.0048 -0.5696 -0.0927
14519TIP3    H265049   1.346   1.149   3.921 -0.8829 -2.2214 -0.9571
14520TIP3   OH265050   0.457   2.962   3.020 -0.3197  0.2427 -0.0507
14520TIP3    H165051   0.463   3.054   2.996  1.4246  0.1699  0.0403
14520TIP3    H265052   0.547   2.934   3.035 -0.8892 -1.2399  0.8564
14521TIP3   OH265053   2.402   2.187  12.352 -0.2739  0.1224  0.0682
14521TIP3    H165054   2.343   2.151  12.417 -0.4612  0.9547  0.3764
14521TIP3    H265055   2.371   2.277  12.338  0.4052  0.3025 -0.3762
14522TIP3   OH265056   6.803   5.899  10.626 -0.0006 -0.0673  0.0479
14522TIP3    H165057   6.736   5.927  10.564  0.5358  0.0063 -0.5064
14522TIP3    H265058   6.844   5.823  10.584 -0.5650 -0.8998  0.9461
14523TIP3   OH265059   5.829   6.188   2.390 -0.4611 -0.1850 -0.2077
14523TIP3    H165060   5.907   6.131   2.392 -0.5369 -0.4408 -2.2797
14523TIP3    H265061   5.773   6.155   2.460  1.8013  0.8599  2.2933
14524TIP3   OH265062   2.510   0.480  10.260 -0.3988 -0.1709 -0.0162
14524TIP3    H165063   2.529   0.573  10.251 -0.6348 -0.3093 -3.2327
14524TIP3    H265064   2.593   0.441  10.286  0.3647  0.6824 -1.0892
14525TIP3   OH265065   3.377   0.277  11.762 -0.0203 -0.1792 -0.1060
14525TIP3    H165066   3.297   0.282  11.711  0.6215 -2.6118 -1.5247
14525TIP3    H265067   3.447   0.268  11.697  0.9515 -2.0738  1.0898
14526TIP3   OH265068   3.247   6.609   2.701  0.0948 -0.2385  0.5172
14526TIP3    H165069   3.162   6.645   2.673 -0.3816 -0.7772  1.2424
14526TIP3    H265070   3.288   6.581   2.620 -0.3410  0.1939  0.1360
14527TIP3   OH265071   5.684   2.570   5.347  0.1983  0.6424  0.2514
14527TIP3    H165072   5.612   2.520   5.309  0.5620 -1.4850  2.1483
14527TIP3    H265073   5.761   2.513   5.336  1.1271  1.8269  0.3788
14528TIP3   OH265074   0.889   3.044   4.883  0.4482 -0.2278 -0.0556
14528TIP3    H165075   0.848   3.102   4.947  0.9800 -0.3182  0.3764
14528TIP3    H265076   0.878   3.089   4.799 -0.0537 -0.0016  0.1258
14529TIP3   OH265077   6.309   4.051   5.394  0.4836 -0.1273 -0.1431
14529TIP3    H165078   6.334   4.137   5.429 -0.0052  0.1242 -0.3985
14529TIP3    H265079   6.325   3.990   5.466  0.8095  0.1820  0.0494
14530TIP3   OH265080   3.025   5.699  14.776  0.0980  0.6472  0.5732
14530TIP3    H165081   3.058   5.789  14.774  1.8653  0.0428 -0.7312
14530TIP3    H265082   2.967   5.693  14.700 -0.6849  0.8887  1.1396
14531TIP3   OH265083   0.868   6.154  13.103 -0.4203  0.8686  0.2904
14531TIP3    H165084   0.848   6.173  13.012  0.5153 -1.8187 -0.5860
14531TIP3    H265085   0.948   6.203  13.121  1.9383 -1.8553 -1.8587
14532TIP3   OH265086   3.406   2.763   0.916 -0.2450  0.4837  0.0472
14532TIP3    H165087   3.320   2.767   0.874  0.1603  0.8877 -0.7836
14532TIP3    H265088   3.467   2.791   0.847  0.7481 -1.4722  0.0394
14533TIP3   OH265089   5.661   0.994   0.444 -0.4043  0.1831  0.6287
14533TIP3    H165090   5.744   0.954   0.417 -0.1406  0.7812  0.5281
14533TIP3    H265091   5.599   0.971   0.376 -0.6517 -1.3301  1.3224
14534TIP3   OH265092   4.093   3.110  15.904 -0.0089  0.2547  0.2034
14534TIP3    H165093   4.131   3.048  15.965  0.9261  1.4431  0.8565
14534TIP3    H265094   4.094   3.194  15.950  0.6761  1.1699 -1.4085
14535TIP3   OH265095   2.312   2.758   3.632  0.0525  0.5119  0.2280
14535TIP3    H165096   2.296   2.668   3.603  1.2718  0.8402 -1.6241
14535TIP3    H265097   2.313   2.752   3.728  0.8311 -1.5776  0.1482
14536TIP3   OH265098   4.797   4.506  16.174  0.8290  0.0353  0.1526
14536TIP3    H165099   4.735   4.453  16.124 -0.1484  0.9670  0.3397
14536TIP3    H265100   4.745   4.546  16.243  1.7047  0.6324  0.4910
14537TIP3   OH265101   1.973   5.396  13.771  0.1938 -1.0016  0.4793
14537TIP3    H165102   2.044   5.441  13.725 -0.4388 -1.5858 -1.1585
14537TIP3    H265103   1.938   5.461  13.832  0.3892  0.1817 -0.6236
14538TIP3   OH265104   3.047   0.230   3.442 -0.2366 -0.0039 -0.3695
14538TIP3    H165105   2.994   0.206   3.518  0.3372  1.0216  0.3649
14538TIP3    H265106   3.021   0.166   3.375 -1.3006 -0.4559  0.4326
14539TIP3   OH265107   2.330   4.979   0.305 -0.0077 -0.2285  0.3674
14539TIP3    H165108   2.407   4.939   0.346  1.2470  1.9788  0.2791
14539TIP3    H265109   2.269   4.993   0.377  0.1449 -0.8731  0.6325
14540TIP3   OH265110   3.874   3.498  15.920  0.0350 -0.4192  0.0258
14540TIP3    H165111   3.889   3.568  15.855 -0.6214  0.2942  0.6198
14540TIP3    H265112   3.898   3.418  15.874  0.0486  0.1162 -0.9419
14541TIP3   OH265113   0.986   3.421   5.142  0.1241 -0.2525  0.1149
14541TIP3    H165114   1.078   3.403   5.163  0.2942  1.0870  0.6305
14541TIP3    H265115   0.988   3.459   5.054  0.4738  2.6952  1.2856
14542TIP3   OH265116   5.723   5.359  14.134 -0.0970 -0.2343 -0.6864
14542TIP3    H165117   5.773   5.437  14.155  1.3734 -0.8050 -1.8473
14542TIP3    H265118   5.733   5.349  14.039 -0.1422 -1.8980 -0.5453
14543TIP3   OH265119   0.572   2.913  11.431  0.3651  0.3403 -0.0527
14543TIP3    H165120   0.552   2.885  11.342 -0.2567  1.1680 -0.1854
14543TIP3    H265121   0.588   3.007  11.424 -1.5789  0.7936  0.9771
14544TIP3   OH265122   0.499   0.005  14.443  0.0684 -0.2811 -0.5109
14544TIP3    H165123   0.562   0.024  14.373  0.7118 -1.1785 -0.2011
14544TIP3    H265124   0.438   0.079  14.442  2.2131  1.6291  0.4059
14545TIP3   OH265125   5.004   5.143  14.373  0.4392 -0.8288  0.3079
14545TIP3    H165126   4.919   5.177  14.401  0.2549 -0.9268 -0.1300
14545TIP3    H265127   5.066   5.181  14.436  0.6868  2.8701 -1.8553
14546TIP3   OH265128   2.919   0.900   3.729  0.6037  0.3162 -0.1923
14546TIP3    H165129   2.850   0.957   3.760  0.7346  0.7215 -0.6328
14546TIP3    H265130   2.874   0.831   3.680  0.5455  0.9429 -1.0383
14547TIP3   OH265131   5.809   6.713  15.096 -0.5164 -0.1255  0.1432
14547TIP3    H165132   5.904   6.702  15.090 -0.4630 -1.2766  2.1170
14547TIP3    H265133   5.788   6.777  15.029  1.6034 -0.1321 -0.6021
14548TIP3   OH265134   1.915   4.893   1.818  0.0385 -0.7417 -0.2727
14548TIP3    H165135   2.007   4.868   1.809  0.4455  0.0542  1.2548
14548TIP3    H265136   1.899   4.955   1.747  1.0993  0.1640  0.2516
14549TIP3   OH265137   0.413   3.566  12.481 -0.7766 -0.4131  0.4950
14549TIP3    H165138   0.435   3.473  12.483 -0.4359 -0.3394  0.1646
14549TIP3    H265139   0.362   3.580  12.561 -0.4116 -0.7768  0.7921
14550TIP3   OH265140   1.499   6.439  15.916 -0.8024 -0.5722 -0.2285
14550TIP3    H165141   1.439   6.450  15.990 -0.9269  0.2356 -0.4356
14550TIP3    H265142   1.461   6.494  15.847  0.4628  0.3887 -0.1939
14551TIP3   OH265143   6.462   2.567  14.662  0.2262  0.1861  0.6626
14551TIP3    H165144   6.482   2.618  14.583 -2.6789  0.1710 -0.1848
14551TIP3    H265145   6.441   2.633  14.728 -0.1883  0.1678  0.5538
14552TIP3   OH265146   4.687   1.325  13.022 -0.5028 -0.0193 -0.4025
14552TIP3    H165147   4.720   1.377  13.096 -2.6695  0.0676  0.5800
14552TIP3    H265148   4.737   1.244  13.027 -0.3224  0.1423  0.9457
14553TIP3   OH265149   0.211   1.954   1.720 -0.6936 -0.0045  0.5975
14553TIP3    H165150   0.228   1.937   1.628  2.5055 -1.5753  1.3182
14553TIP3    H265151   0.123   1.920   1.735 -0.0562 -2.8245 -1.2560
14554TIP3   OH265152   3.872   4.151  15.806  0.2554  0.0620 -0.1413
14554TIP3    H165153   3.957   4.161  15.764 -0.0503 -1.0159 -1.0621
14554TIP3    H265154   3.813   4.128  15.735 -0.9078  1.1674  0.4214
14555TIP3   OH265155   3.984   2.735  13.980 -0.3020 -0.0264  0.3785
14555TIP3    H165156   3.894   2.749  13.950 -0.3831 -0.1936  0.5475
14555TIP3    H265157   3.975   2.703  14.070 -0.0511  0.5871  0.6234
14556TIP3   OH265158   5.699   5.051   6.118  1.0083  0.6715 -0.4611
14556TIP3    H165159   5.738   4.975   6.162 -0.2156 -0.1235 -0.6908
14556TIP3    H265160   5.774   5.108   6.099  1.7941  0.1565  0.9141
14557TIP3   OH265161   2.477   5.707  12.394  0.2170  0.7350 -0.2953
14557TIP3    H165162   2.497   5.681  12.484  0.8312  0.1125 -0.5963
14557TIP3    H265163   2.544   5.772  12.373  0.6373  0.2250 -0.5852
14558TIP3   OH265164   2.941   6.595  12.813  0.4032 -0.2725  0.0165
14558TIP3    H165165   2.960   6.501  12.810 -0.7258 -0.6682  2.5144
14558TIP3    H265166   3.006   6.631  12.874 -1.1934 -0.1086  1.7281
14559TIP3   OH265167   3.149   6.577   1.738 -0.4311  0.4928  0.2740
14559TIP3    H165168   3.181   6.644   1.678  2.5496 -0.0492  1.1081
14559TIP3    H265169   3.172   6.608   1.825 -1.1008 -0.5472  0.8524
14560TIP3   OH265170   1.173   0.942   2.588  0.4031  0.3568  0.0475
14560TIP3    H165171   1.253   0.933   2.639  0.3996  1.0163  0.1791
14560TIP3    H265172   1.121   0.865   2.611  1.5676 -0.8210 -1.1020
14561TIP3   OH265173   5.621   5.141  11.285 -0.4409  0.3340 -0.5132
14561TIP3    H165174   5.666   5.225  11.293 -1.4762  0.9241 -0.7021
14561TIP3    H265175   5.622   5.104  11.374 -0.9922  1.0850 -0.1901
14562TIP3   OH265176   5.474   5.176  15.427 -1.1225 -0.3854  0.0783
14562TIP3    H165177   5.559   5.215  15.408 -0.5914 -0.5247  2.0154
14562TIP3    H265178   5.417   5.250  15.449 -0.9304 -0.4636  0.8350
14563TIP3   OH265179   0.567   2.311   5.607 -0.0486 -0.3210 -0.0826
14563TIP3    H165180   0.660   2.291   5.618 -0.4210 -3.0520 -1.1821
14563TIP3    H265181   0.557   2.324   5.513 -0.9381 -1.1078 -0.1055
14564TIP3   OH265182   5.977   3.166   0.320 -0.2306  0.1332  0.9250
14564TIP3    H165183   6.017   3.080   0.307 -1.5086 -0.3620  0.0049
14564TIP3    H265184   6.005   3.217   0.244  0.0147  0.3322  1.1473
14565TIP3   OH265185   3.087   6.154   2.953  0.0485 -0.3479 -0.0699
14565TIP3    H165186   3.153   6.170   2.885  0.4529  0.5830  0.5145
14565TIP3    H265187   3.008   6.130   2.905  0.3093  0.3507 -0.8779
14566TIP3   OH265188   4.604   1.459  16.692 -0.1499  0.2164  0.6477
14566TIP3    H165189   4.693   1.438  16.663 -0.1460  1.7840 -0.6126
14566TIP3    H265190   4.549   1.439  16.616 -0.9177 -0.8215  1.4456
14567TIP3   OH265191   1.389   6.212  13.337 -0.4208  0.2986 -0.1144
14567TIP3    H165192   1.322   6.279  13.351  1.1596  2.4875 -2.1283
14567TIP3    H265193   1.468   6.247  13.377 -0.1457 -1.7377  1.2783
14568TIP3   OH265194   5.283   3.589  14.616  0.1024 -0.0228 -0.2222
14568TIP3    H165195   5.372   3.554  14.616  1.2540  2.6311 -1.5275
14568TIP3    H265196   5.234   3.529  14.560  1.0321 -1.4998  0.4657
14569TIP3   OH265197   5.492   1.730  12.155  0.4844  0.0454  0.2653
14569TIP3    H165198   5.505   1.750  12.247  1.1527 -0.4391  0.2845
14569TIP3    H265199   5.534   1.801  12.108 -1.2595  1.1685  0.3054
14570TIP3   OH265200   1.208   2.432  12.877 -0.2082  0.0166  0.1122
14570TIP3    H165201   1.127   2.478  12.856  0.5491  1.4404  0.1658
14570TIP3    H265202   1.183   2.340  12.883 -2.0859  0.5486  1.4474
14571TIP3   OH265203   5.865   3.604  14.136 -0.0857 -0.0473  0.0788
14571TIP3    H165204   5.896   3.621  14.047 -0.7411 -0.2607 -0.1977
14571TIP3    H265205   5.915   3.528  14.164 -0.1188 -0.1858 -0.2329
14572TIP3   OH265206   5.623   3.675   3.604  0.0644  0.3655  0.5254
14572TIP3    H165207   5.570   3.754   3.593 -0.5294 -0.1462 -0.4179
14572TIP3    H265208   5.571   3.618   3.660 -1.5777 -1.1099 -2.2745
14573TIP3   OH265209   1.932   2.958  12.988 -0.5231 -0.2055  0.3283
14573TIP3    H165210   1.991   2.922  13.054 -0.9979 -0.5037  0.5934
14573TIP3    H265211   1.878   3.022  13.036  0.9682  1.6370 -0.3154
14574TIP3   OH265212   0.955   6.083  12.501 -0.0028  0.1050 -0.1654
14574TIP3    H165213   0.871   6.104  12.541 -0.4060 -1.4154 -0.1482
14574TIP3    H265214   0.939   6.003  12.452  1.2652  0.1897 -0.7559
14575TIP3   OH265215   0.395   3.217  15.964 -0.1724 -0.3368 -0.2003
14575TIP3    H165216   0.473   3.175  15.929  0.5774  2.0629 -1.6504
14575TIP3    H265217   0.335   3.145  15.985  1.9369 -2.1671 -0.1902
14576TIP3   OH265218   4.717   3.991  16.370 -0.3231 -0.3998 -0.6518
14576TIP3    H165219   4.688   3.923  16.430 -1.3755 -1.0798 -1.8704
14576TIP3    H265220   4.636   4.024  16.331  0.3089  0.1728 -1.5223
14577TIP3   OH265221   2.993   2.189  12.664 -0.1076 -0.0251  0.8015
14577TIP3    H165222   3.007   2.095  12.652 -0.7934  0.1235 -2.0086
14577TIP3    H265223   2.918   2.195  12.723 -0.5322 -1.2736  0.4244
14578TIP3   OH265224   6.114   4.337   4.219  0.1870  0.0742  0.1271
14578TIP3    H165225   6.103   4.242   4.229 -2.1006  0.3660  0.9352
14578TIP3    H265226   6.080   4.357   4.132 -0.0667  0.2633  0.2702
14579TIP3   OH265227   2.220   4.684  11.286 -0.5813  0.3032 -0.1604
14579TIP3    H165228   2.190   4.644  11.367  0.9925  0.4076  0.5103
14579TIP3    H265229   2.256   4.612  11.235  0.1434  0.5121  0.0500
14580TIP3   OH265230   5.315   5.111   4.944  0.1252  0.5109  0.1391
14580TIP3    H165231   5.231   5.099   4.901  0.0325 -0.5664  0.5777
14580TIP3    H265232   5.342   5.022   4.969  1.2615  0.8652  0.2422
14581TIP3   OH265233   5.961   1.513   2.876 -0.6461  0.0845  0.2355
14581TIP3    H165234   6.015   1.563   2.814 -2.9776  3.9082  0.9726
14581TIP3    H265235   5.980   1.551   2.961 -0.1750 -2.6679  1.4836
14582TIP3   OH265236   4.687   5.762  13.096 -0.4497 -0.1074 -0.0747
14582TIP3    H165237   4.605   5.798  13.064 -1.4721  0.7090  3.1486
14582TIP3    H265238   4.753   5.795  13.035 -2.3378  0.0069 -2.1803
14583TIP3   OH265239   6.000   6.500   4.404  0.4188  0.4034  0.3185
14583TIP3    H165240   5.956   6.469   4.324  0.2544 -0.2587  0.6554
14583TIP3    H265241   6.062   6.566   4.373 -0.4602  0.9917 -0.2228
14584TIP3   OH265242   5.203   2.157  11.593 -0.1599  0.1389  0.0661
14584TIP3    H165243   5.181   2.220  11.662 -0.4172  2.1643 -1.7742
14584TIP3    H265244   5.288   2.122  11.618  0.1461  1.4754  0.9735
14585TIP3   OH265245   6.597   5.162  16.847 -0.7004  0.1021  0.0613
14585TIP3    H165246   6.557   5.248  16.832 -0.5455 -0.0451 -1.2505
14585TIP3    H265247   6.614   5.128  16.760 -0.5168 -1.1609  0.5778
14586TIP3   OH265248   2.294   0.715  11.027  0.0419  0.7194 -0.2059
14586TIP3    H165249   2.284   0.713  11.122 -0.9467 -1.0884 -0.3056
14586TIP3    H265250   2.211   0.683  10.993  1.5446 -2.2173 -1.5232
14587TIP3   OH265251   3.724   0.450  13.136  0.1205  0.2271  0.0561
14587TIP3    H165252   3.645   0.465  13.189 -0.0627 -3.0625  0.9249
14587TIP3    H265253   3.749   0.537  13.105 -3.1778  1.5386  0.6798
14588TIP3   OH265254   1.815   4.254   1.544  0.0506 -0.2221 -0.1167
14588TIP3    H165255   1.768   4.176   1.574 -1.4379  0.9924  0.8141
14588TIP3    H265256   1.758   4.291   1.476  0.1770  0.7033  0.2787
14589TIP3   OH265257   4.040   4.162  11.775  0.2036  0.1946  0.9705
14589TIP3    H165258   4.028   4.174  11.869 -1.7992  0.4071  0.7191
14589TIP3    H265259   4.135   4.170  11.762  0.3520  1.8383  2.7145
14590TIP3   OH265260   3.527   0.969   3.573 -1.0956  0.0429  0.3116
14590TIP3    H165261   3.525   1.051   3.623 -0.0278  0.2611  0.0309
14590TIP3    H265262   3.620   0.944   3.573 -1.3766 -1.0436  0.1913
14591TIP3   OH265263   5.767   4.959  12.914 -0.1017 -0.3930 -0.4238
14591TIP3    H165264   5.858   4.984  12.931 -0.4048  1.9380 -1.8572
14591TIP3    H265265   5.763   4.947  12.819 -0.5260 -4.0832 -0.0770
14592TIP3   OH265266   2.518   2.322  13.379  0.1325  0.0773 -0.0583
14592TIP3    H165267   2.554   2.256  13.320  0.2666  1.4401 -1.5369
14592TIP3    H265268   2.444   2.278  13.421  3.1246 -2.7689  2.9128
14593TIP3   OH265269   5.597   6.093  11.283 -0.2315  0.3585 -0.2619
14593TIP3    H165270   5.665   6.125  11.223 -0.6875  0.2243 -0.8649
14593TIP3    H265271   5.638   6.095  11.369  0.2232  1.1952 -0.4829
14594TIP3   OH265272   6.402   5.980   4.934 -0.4702 -0.0007  0.1664
14594TIP3    H165273   6.424   6.066   4.899  0.8165  0.2803  1.5414
14594TIP3    H265274   6.475   5.924   4.909 -0.9606 -0.5142 -0.1206
14595TIP3   OH265275   6.811   0.578  14.187  0.7984  0.0977 -0.5083
14595TIP3    H165276   6.740   0.531  14.144 -0.2174  0.6072  0.5389
14595TIP3    H265277   6.838   0.521  14.260  1.9091 -0.3716 -1.2594
14596TIP3   OH265278   4.263   1.860  14.645  0.5619 -0.4549  0.2571
14596TIP3    H165279   4.168   1.856  14.634  0.7420  1.0471 -3.2380
14596TIP3    H265280   4.277   1.931  14.707 -0.5861 -0.0797  0.1105
14597TIP3   OH265281   4.231   3.498  14.500  0.3099  0.1552 -0.2279
14597TIP3    H165282   4.302   3.525  14.441 -1.1026  1.2717 -1.5358
14597TIP3    H265283   4.192   3.581  14.528 -0.1285 -0.4272  0.9229
14598TIP3   OH265284   5.472   2.980   2.779 -0.0383  0.0027 -0.1230
14598TIP3    H165285   5.552   2.931   2.798 -0.2103 -0.6180 -0.9263
14598TIP3    H265286   5.491   3.025   2.696  1.7690  4.9433  2.5659
14599TIP3   OH265287   2.047   3.246  13.059  0.0346  0.3424 -0.0214
14599TIP3    H165288   2.022   3.317  13.000  1.1369  1.5174  0.8620
14599TIP3    H265289   2.117   3.200  13.013 -1.6364 -1.1273 -1.2201
14600TIP3   OH265290   0.485   0.577   2.677  0.6401 -0.8149  0.0445
14600TIP3    H165291   0.520   0.557   2.763  0.7759 -1.3058 -0.1222
14600TIP3    H265292   0.484   0.673   2.673  1.3141 -0.7929  0.3148
14601TIP3   OH265293   0.403   2.843  16.657  0.2475  0.2230 -0.1556
14601TIP3    H165294   0.419   2.923  16.607  1.3033 -0.0032 -0.2133
14601TIP3    H265295   0.419   2.773  16.594  0.6404 -0.0503  0.2466
14602TIP3   OH265296   0.144   0.708  12.548  0.6727 -0.1539 -0.7767
14602TIP3    H165297   0.183   0.662  12.622 -0.3249  0.9820  0.5056
14602TIP3    H265298   0.209   0.700  12.478  1.4923 -1.5500  0.0872
14603TIP3   OH265299   1.020   5.869  10.399  0.1135  0.2276  0.1231
14603TIP3    H165300   1.062   5.800  10.449  0.0768 -0.7798 -1.1804
14603TIP3    H265301   1.092   5.914  10.355  0.2787  1.9630  2.0306
14604TIP3   OH265302   5.984   4.514   1.625 -0.9797  0.0164 -0.4325
14604TIP3    H165303   5.977   4.461   1.546  0.1051 -0.2321 -0.3771
14604TIP3    H265304   6.029   4.593   1.597 -0.6391 -0.0476 -0.0744
14605TIP3   OH265305   2.519   1.915  11.781  0.5800 -0.1202  0.0283
14605TIP3    H165306   2.528   1.863  11.861 -0.2059  0.3389  0.4240
14605TIP3    H265307   2.482   1.998  11.810 -0.5083 -0.2473 -0.9096
14606TIP3   OH265308   4.441   3.897   3.952 -0.4764  0.2221  0.0028
14606TIP3    H165309   4.488   3.946   3.885 -0.8966 -0.1775 -0.5901
14606TIP3    H265310   4.352   3.932   3.950 -0.1149  1.3473  1.4844
14607TIP3   OH265311   6.481   5.134   0.994 -0.0285  1.0068 -0.1188
14607TIP3    H165312   6.539   5.100   0.926 -1.4479  0.4388 -1.1026
14607TIP3    H265313   6.424   5.060   1.016  0.5855  1.0855  1.9394
14608TIP3   OH265314   1.636   3.085   1.454  0.5015  0.1280 -0.1352
14608TIP3    H165315   1.550   3.042   1.461  0.0505  1.1942  1.2298
14608TIP3    H265316   1.673   3.050   1.373 -0.2181 -2.1512  0.4402
14609TIP3   OH265317   4.577   1.276   6.234 -0.1388 -0.6443 -0.8365
14609TIP3    H165318   4.522   1.221   6.290  1.4783  0.3028  1.8500
14609TIP3    H265319   4.526   1.355   6.221 -0.0414 -0.3732  0.3746
14610TIP3   OH265320   0.048   6.410   4.727  0.0514 -0.2185 -0.6538
14610TIP3    H165321   0.142   6.406   4.747  0.0529 -0.1360 -0.6448
14610TIP3    H265322   0.022   6.318   4.717 -0.2248 -0.3501  0.9723
14611TIP3   OH265323   4.792   6.020  11.375  0.2407  0.4334 -0.1872
14611TIP3    H165324   4.847   6.053  11.304 -1.0931  1.2302 -0.9005
14611TIP3    H265325   4.742   5.948  11.336 -1.7961  2.0023 -0.6546
14612TIP3   OH265326   1.004   5.520   1.264  0.3242 -0.0158 -0.5235
14612TIP3    H165327   0.939   5.530   1.333  0.5408  0.3375 -0.3675
14612TIP3    H265328   0.984   5.436   1.224  0.5075 -0.4574  0.2963
14613TIP3   OH265329   1.786   5.219   6.308 -0.0658  0.0901 -0.7870
14613TIP3    H165330   1.691   5.227   6.316 -0.0322 -0.7166  1.1566
14613TIP3    H265331   1.821   5.268   6.382  0.9135 -1.3197 -0.2624
14614TIP3   OH265332   3.967   3.892  11.745 -0.0181 -0.2661 -0.2310
14614TIP3    H165333   3.999   3.979  11.769 -2.2002  0.5904 -0.1905
14614TIP3    H265334   4.029   3.861  11.679  3.3968 -0.6568  2.8762
14615TIP3   OH265335   2.903   2.364  13.139  0.4257 -0.1536 -0.3446
14615TIP3    H165336   2.847   2.402  13.072  0.5802  0.2538 -0.2434
14615TIP3    H265337   2.989   2.405  13.125  0.0573  1.2084  1.1439
14616TIP3   OH265338   1.853   5.773   3.764  0.6170 -0.3739 -0.0009
14616TIP3    H165339   1.917   5.786   3.835  0.7818  0.4382 -0.2883
14616TIP3    H265340   1.875   5.841   3.700 -0.4746 -0.1591 -0.1528
14617TIP3   OH265341   3.117   4.305   1.118 -0.1415  0.0860  0.2933
14617TIP3    H165342   3.102   4.394   1.084  0.7578 -0.3139 -1.2557
14617TIP3    H265343   3.039   4.287   1.170 -2.4074  0.2791 -2.7128
14618TIP3   OH265344   1.780   3.040  16.188 -0.6339  0.2367 -0.1815
14618TIP3    H165345   1.751   3.078  16.105  0.3739  0.0129 -0.6529
14618TIP3    H265346   1.802   2.949  16.167 -0.7688  0.0538  0.4278
14619TIP3   OH265347   5.258   5.018   2.797 -0.1666 -0.3116  0.5837
14619TIP3    H165348   5.227   4.930   2.821 -0.2008 -0.7045 -0.8271
14619TIP3    H265349   5.337   5.002   2.745 -0.8662  0.4281 -0.7434
14620TIP3   OH265350   4.371   4.798   3.010  0.3509 -0.1666 -0.6593
14620TIP3    H165351   4.300   4.852   3.043  0.2468 -0.9203  0.4095
14620TIP3    H265352   4.427   4.783   3.087  1.9329  0.7840 -1.5596
14621TIP3   OH265353   1.608   2.535   5.874 -0.0861  0.0048 -0.1225
14621TIP3    H165354   1.595   2.611   5.931 -0.1911  1.1068 -1.5700
14621TIP3    H265355   1.529   2.532   5.820  0.6272 -0.1461 -1.1773
14622TIP3   OH265356   3.317   0.607  11.382 -0.3330  0.0010  0.2871
14622TIP3    H165357   3.356   0.520  11.390  0.2178  0.1064 -1.0505
14622TIP3    H265358   3.374   0.653  11.321 -2.1493  0.4000 -1.1678
14623TIP3   OH265359   0.117   6.043  15.524 -0.6143  0.0251 -0.0824
14623TIP3    H165360   0.117   6.137  15.502  0.5716  0.1480  0.3580
14623TIP3    H265361   0.030   6.026  15.558 -1.3796  0.6051 -1.6540
14624TIP3   OH265362   5.120   3.090   4.670 -0.2903 -0.6403 -0.3739
14624TIP3    H165363   5.090   3.176   4.700  0.1779 -0.9699  1.1224
14624TIP3    H265364   5.192   3.068   4.729 -1.5303 -2.8567  0.4414
14625TIP3   OH265365   1.326   0.779  13.888 -0.1857 -0.7068  0.2289
14625TIP3    H165366   1.306   0.854  13.945 -1.0325 -1.9722  1.6724
14625TIP3    H265367   1.240   0.752  13.854  0.0352 -1.3556  0.1750
14626TIP3   OH265368   4.546   2.969  10.778  0.5101 -0.4813  0.9960
14626TIP3    H165369   4.621   2.982  10.720 -0.3029  1.7628  0.3258
14626TIP3    H265370   4.517   2.880  10.759  2.4704 -1.1131  0.6751
14627TIP3   OH265371   6.316   4.928  10.814  0.1907  0.0196 -0.1268
14627TIP3    H165372   6.393   4.962  10.858 -0.0665  0.8481 -0.2990
14627TIP3    H265373   6.243   4.954  10.869 -0.1522  1.2279 -1.1151
14628TIP3   OH265374   5.495   1.831  15.639  0.5282 -0.7704  0.4388
14628TIP3    H165375   5.421   1.770  15.628 -0.8608  0.4330  2.4156
14628TIP3    H265376   5.478   1.900  15.575  0.0839 -0.6385  0.6927
14629TIP3   OH265377   5.518   4.617   0.619 -0.3338 -0.9159  0.0557
14629TIP3    H165378   5.458   4.543   0.615 -0.4386 -0.7814 -1.3417
14629TIP3    H265379   5.555   4.623   0.531  0.1578  0.2876  0.3249
14630TIP3   OH265380   6.841   3.878  16.306  0.5763  0.4753 -0.3170
14630TIP3    H165381   6.797   3.879  16.220  2.9812  0.7933 -1.6371
14630TIP3    H265382   6.828   3.789  16.338 -3.6835  1.3279  0.9623
14631TIP3   OH265383   5.174   3.199  14.797 -0.3767  0.0456  0.5065
14631TIP3    H165384   5.211   3.279  14.836 -1.9174  1.3128 -0.5051
14631TIP3    H265385   5.245   3.164  14.744  0.1903  1.0015  0.5981
14632TIP3   OH265386   2.298   5.244  13.485  0.0561  0.0166 -0.0558
14632TIP3    H165387   2.312   5.339  13.478 -2.7500  0.4343 -1.4192
14632TIP3    H265388   2.274   5.230  13.576 -1.5627  1.0035 -0.2998
14633TIP3   OH265389   2.048   1.496  10.109  0.3546 -0.0913  0.2330
14633TIP3    H165390   1.999   1.528  10.033  0.1039 -2.0016 -0.4520
14633TIP3    H265391   1.981   1.457  10.165  0.9978 -3.4375 -1.0705
14634TIP3   OH265392   5.804   1.536  10.853 -0.0276 -0.4281  0.0181
14634TIP3    H165393   5.788   1.573  10.940 -1.5242  1.5753 -1.0094
14634TIP3    H265394   5.865   1.598  10.813 -0.8154 -0.2682 -0.9726
14635TIP3   OH265395   5.645   6.559  13.340 -0.1848 -0.3698 -0.3481
14635TIP3    H165396   5.555   6.565  13.373  0.3972 -0.0574  1.2978
14635TIP3    H265397   5.635   6.534  13.248 -1.9614  0.0594 -0.3209
14636TIP3   OH265398   3.794   1.511   4.988  0.5366 -0.5416  0.7019
14636TIP3    H165399   3.824   1.525   5.078  1.0138  0.4899  0.3855
14636TIP3    H265400   3.718   1.569   4.979  0.3424 -0.8226  0.5109
14637TIP3   OH265401   4.323   3.323  13.161  0.3174 -0.6309  0.1785
14637TIP3    H165402   4.296   3.348  13.250 -0.4329 -0.2075 -0.1563
14637TIP3    H265403   4.301   3.230  13.155 -0.0144 -0.5647  0.3080
14638TIP3   OH265404   2.556   0.491   2.518 -0.1176 -0.2541  0.1554
14638TIP3    H165405   2.484   0.431   2.501  0.1667  0.3926 -4.4408
14638TIP3    H265406   2.635   0.437   2.517 -0.1975 -0.4682  1.7796
14639TIP3   OH265407   0.623   2.485   3.783 -0.3438 -0.6314  0.0796
14639TIP3    H165408   0.706   2.504   3.827 -1.2010  1.8586  0.7658
14639TIP3    H265409   0.630   2.530   3.699 -0.8065 -0.8550 -0.0813
14640TIP3   OH265410   6.469   2.363   3.213  0.2147  0.2220 -0.3923
14640TIP3    H165411   6.532   2.427   3.245 -0.2566  0.8927 -0.7879
14640TIP3    H265412   6.399   2.415   3.174 -1.1660 -0.4452  1.0788
14641TIP3   OH265413   0.602   2.514  10.665  0.4883  0.1064  0.2779
14641TIP3    H165414   0.530   2.515  10.603  0.9246  1.1670 -0.2345
14641TIP3    H265415   0.673   2.561  10.621  1.0375  0.2661  1.2990
14642TIP3   OH265416   3.054   2.700   2.535  0.0358  0.7286  0.0790
14642TIP3    H165417   3.085   2.774   2.483  0.1850  0.2686 -0.5000
14642TIP3    H265418   3.077   2.623   2.483  0.1448  0.2588  0.8080
14643TIP3   OH265419   4.149   1.820   1.312 -0.2383 -0.1611 -0.3493
14643TIP3    H165420   4.238   1.812   1.278  0.0087 -1.4740  0.5417
14643TIP3    H265421   4.142   1.912   1.338  1.3418 -0.3334  0.8315
14644TIP3   OH265422   5.562   2.622  12.412  0.4090  0.5029  0.0422
14644TIP3    H165423   5.481   2.572  12.405 -0.4396  1.9131 -0.9172
14644TIP3    H265424   5.598   2.599  12.498 -0.2496 -1.2235 -0.1084
14645TIP3   OH265425   0.855   5.275  12.633 -0.0613 -0.5086  0.2186
14645TIP3    H165426   0.837   5.320  12.551 -1.2795 -0.2599  0.5982
14645TIP3    H265427   0.918   5.332  12.678  0.9332 -0.8507 -0.6856
14646TIP3   OH265428   0.867   3.185  14.467  0.3347  0.8127 -0.1411
14646TIP3    H165429   0.852   3.141  14.384 -1.1832 -0.1491  0.6117
14646TIP3    H265430   0.922   3.124  14.517  1.1899  1.3595 -0.3948
14647TIP3   OH265431   4.365   0.811   5.275 -0.0204  0.4373 -0.0066
14647TIP3    H165432   4.420   0.733   5.269 -0.2869  0.2702 -0.2761
14647TIP3    H265433   4.313   0.798   5.354 -1.2618 -0.4452 -0.9158
14648TIP3   OH265434   3.409   4.613   3.728 -0.0905 -0.5716 -0.7296
14648TIP3    H165435   3.478   4.607   3.662  0.1583 -1.0870 -0.4261
14648TIP3    H265436   3.389   4.706   3.732  0.5655 -0.4181 -0.8445
14649TIP3   OH265437   0.773   0.926  15.986 -0.3572 -0.0632 -0.1228
14649TIP3    H165438   0.748   0.936  15.894  0.4890 -1.4070 -0.5178
14649TIP3    H265439   0.766   1.015  16.022 -0.1432  0.5883 -1.6195
14650TIP3   OH265440   2.727   6.174  11.461 -0.0769  0.0249 -0.3052
14650TIP3    H165441   2.673   6.236  11.411 -0.4692 -0.1522 -0.1023
14650TIP3    H265442   2.753   6.108  11.397 -1.0783 -0.5336 -0.1548
14651TIP3   OH265443   3.039   2.177   5.663 -0.1792  0.0339  0.1071
14651TIP3    H165444   3.052   2.272   5.654  2.0326 -0.1627  0.7348
14651TIP3    H265445   3.041   2.162   5.758  0.9009 -0.8073 -0.0400
14652TIP3   OH265446   1.005   5.711  16.251  0.7590  0.3051 -0.5714
14652TIP3    H165447   0.944   5.638  16.245  1.0459 -0.1851  1.5624
14652TIP3    H265448   1.057   5.706  16.170  1.5797 -2.6301  0.0047
14653TIP3   OH265449   3.747   0.934   4.121  0.6011 -0.1324 -0.1161
14653TIP3    H165450   3.728   0.849   4.162  0.6380  0.1943  0.5964
14653TIP3    H265451   3.672   0.989   4.141  0.6393  0.0501 -0.4556
14654TIP3   OH265452   1.427   0.188   4.762 -0.4400  0.2117 -0.5403
14654TIP3    H165453   1.477   0.237   4.828 -1.4971 -0.7361  1.0233
14654TIP3    H265454   1.493   0.157   4.700  0.7860  0.0262  0.8026
14655TIP3   OH265455   1.808   2.224   2.087  0.3940  0.2528  0.4379
14655TIP3    H165456   1.767   2.202   2.004 -0.9381 -0.5999  1.2818
14655TIP3    H265457   1.902   2.223   2.069  0.1610 -0.8986 -0.8153
14656TIP3   OH265458   0.966   3.683  13.672 -0.2097 -0.0815  0.4080
14656TIP3    H165459   1.034   3.676  13.606  0.8214 -0.8493  1.5049
14656TIP3    H265460   0.914   3.603  13.660  0.7399 -0.8652  1.3048
14657TIP3   OH265461   1.944   3.981   4.938  0.3802 -0.0300  0.0665
14657TIP3    H165462   1.965   4.075   4.940 -0.4191  0.2957 -2.6237
14657TIP3    H265463   1.919   3.960   5.028  2.6316  1.7975  1.2333
14658TIP3   OH265464   4.651   1.495   3.444  0.2693 -0.1686 -0.0866
14658TIP3    H165465   4.587   1.429   3.472  1.3129 -0.5837  1.4156
14658TIP3    H265466   4.627   1.574   3.492  1.4406 -0.5949  1.2457
14659TIP3   OH265467   0.824   5.048  13.896  0.2087 -0.1951 -0.3271
14659TIP3    H165468   0.899   5.104  13.916 -0.3730  0.7799 -0.8234
14659TIP3    H265469   0.787   5.085  13.816 -1.4531  0.0103  0.5111
14660TIP3   OH265470   2.323   4.778   3.352 -0.0300  0.1544 -0.7167
14660TIP3    H165471   2.375   4.804   3.276  0.9897  1.4732  0.3772
14660TIP3    H265472   2.273   4.856   3.376  0.6654  0.1984  0.7266
14661TIP3   OH265473   1.124   0.014   4.103 -0.0414 -0.2221 -1.1073
14661TIP3    H165474   1.154   0.008   4.194 -0.3927  0.6431 -0.9316
14661TIP3    H265475   1.037  -0.026   4.104  0.1249 -0.5944 -1.1543
14662TIP3   OH265476   2.912   0.871  15.391  0.2818  0.2260  0.0298
14662TIP3    H165477   2.930   0.890  15.483  0.4880  0.5705 -0.0816
14662TIP3    H265478   2.935   0.952  15.345  1.0908 -0.2497 -0.4342
14663TIP3   OH265479   3.813   0.039   1.514  0.1489 -0.1448  0.5087
14663TIP3    H165480   3.757  -0.032   1.545 -1.7733  0.7160 -0.7894
14663TIP3    H265481   3.823   0.023   1.421 -0.3929  1.3003  0.1784
14664TIP3   OH265482   1.852   0.135  13.413 -0.2524 -0.4144 -0.5911
14664TIP3    H165483   1.928   0.184  13.445  0.9007 -1.0414 -2.2151
14664TIP3    H265484   1.798   0.201  13.369 -0.7939  0.0777  0.7770
14665TIP3   OH265485   3.711   3.191  11.824  0.0835  0.1906 -0.2824
14665TIP3    H165486   3.620   3.161  11.824  0.5700 -1.3564 -0.6471
14665TIP3    H265487   3.710   3.267  11.766 -0.8341 -0.3281 -0.9957
14666TIP3   OH265488   0.577   0.949   4.047  1.3068 -0.1823 -1.0207
14666TIP3    H165489   0.492   0.909   4.066  1.5736  0.1562  1.1627
14666TIP3    H265490   0.619   0.890   3.985  0.2288 -1.3577 -0.6568
14667TIP3   OH265491   2.301   0.992   1.744 -0.3832  0.0548 -0.3651
14667TIP3    H165492   2.286   1.038   1.662 -0.5801  0.7931  0.0837
14667TIP3    H265493   2.286   1.057   1.813  0.8897 -0.2373  0.2351
14668TIP3   OH265494   2.266   3.391  17.029 -0.0779  0.4846 -0.1004
14668TIP3    H165495   2.351   3.392  16.985 -0.3941 -1.1817 -0.8243
14668TIP3    H265496   2.219   3.466  16.993  0.5863  0.6084 -0.7295
14669TIP3   OH265497   6.055   2.822  11.302 -0.7649 -0.2827  0.3998
14669TIP3    H165498   6.075   2.913  11.321 -0.5133 -0.6108  1.8105
14669TIP3    H265499   5.985   2.825  11.237  0.6863  0.9027 -1.1878
14670TIP3   OH265500   6.765   2.660  14.655 -0.2722  0.2467  0.0181
14670TIP3    H165501   6.704   2.689  14.587  0.6300  0.3524 -0.7664
14670TIP3    H265502   6.721   2.681  14.737 -0.7772  1.4358 -0.5298
14671TIP3   OH265503   2.467   0.538   1.247 -0.0078 -0.1213  0.6544
14671TIP3    H165504   2.537   0.602   1.235 -0.1050  0.2675  2.0064
14671TIP3    H265505   2.511   0.458   1.276  0.2741 -1.1948 -2.3799
14672TIP3   OH265506   2.250   5.361   5.202  0.6990 -0.0324  0.0789
14672TIP3    H165507   2.210   5.316   5.276 -0.4580 -1.0524 -1.1200
14672TIP3    H265508   2.338   5.325   5.196  0.3428 -0.9364  0.1487
14673TIP3   OH265509   3.343   1.018   2.712 -0.0740 -0.0990 -0.0022
14673TIP3    H165510   3.428   0.983   2.688  0.4014  2.1497 -2.0062
14673TIP3    H265511   3.357   1.060   2.797  0.2295 -1.5190  0.6770
14674TIP3   OH265512   5.507   0.944  15.379 -0.0617 -0.2434  0.3679
14674TIP3    H165513   5.595   0.981  15.375  1.0574 -2.7875 -1.3600
14674TIP3    H265514   5.460   1.000  15.440  2.4748  1.7467  0.6659
14675TIP3   OH265515   3.833   2.933   1.280  1.1201 -0.0066  0.2031
14675TIP3    H165516   3.751   2.884   1.270  1.5346 -0.4918 -0.9781
14675TIP3    H265517   3.898   2.865   1.300  1.5712  0.1192 -0.7655
14676TIP3   OH265518   4.795   3.584   0.714 -0.4839  0.2836  0.3434
14676TIP3    H165519   4.774   3.494   0.692  0.9822 -0.5142  1.9315
14676TIP3    H265520   4.731   3.608   0.781 -1.0900  0.5613 -0.3254
14677TIP3   OH265521   2.810   6.531   4.573  0.1114 -0.3205 -0.0340
14677TIP3    H165522   2.733   6.580   4.543 -0.2935 -0.4062  0.8099
14677TIP3    H265523   2.803   6.446   4.530  0.5778  0.2052 -1.1623
14678TIP3   OH265524   0.233   6.653  11.202  0.3350  0.0598 -0.0161
14678TIP3    H165525   0.209   6.615  11.117  0.6524  0.4954 -0.3029
14678TIP3    H265526   0.313   6.702  11.185 -0.4047  1.3885  0.2073
14679TIP3   OH265527   4.218   0.603  12.369 -0.0897  0.5053 -0.4666
14679TIP3    H165528   4.139   0.561  12.403  0.0909 -0.4025 -1.1066
14679TIP3    H265529   4.233   0.677  12.427 -0.1651 -0.5764  1.0010
14680TIP3   OH265530   5.619   0.507   1.583 -0.3736 -0.3116  0.1448
14680TIP3    H165531   5.621   0.603   1.590 -0.0646  0.0120 -3.0096
14680TIP3    H265532   5.548   0.489   1.523  1.2684 -1.8320 -1.4587
14681TIP3   OH265533   0.301   2.215  11.132 -0.4734  0.3890 -0.0256
14681TIP3    H165534   0.349   2.253  11.059 -0.5523  0.5216 -0.0078
14681TIP3    H265535   0.294   2.286  11.196 -0.1808  0.1995  0.2170
14682TIP3   OH265536   4.559   5.835  16.960  0.0106 -0.1065  0.9360
14682TIP3    H165537   4.521   5.877  16.883 -2.2234 -2.6374  0.5254
14682TIP3    H265538   4.514   5.876  17.034 -2.4810 -1.8717  0.5213
14683TIP3   OH265539   3.303   5.885  15.662 -0.2282 -0.5790 -0.3072
14683TIP3    H165540   3.283   5.978  15.673  0.2383 -0.6566  1.7303
14683TIP3    H265541   3.237   5.840  15.716  1.0457 -1.2349  0.7642
14684TIP3   OH265542   5.393   2.885  11.602 -0.4552  0.1418  0.0751
14684TIP3    H165543   5.422   2.879  11.511 -0.0776  0.1530  0.1913
14684TIP3    H265544   5.379   2.978  11.616 -0.0475  0.1895  0.1691
14685TIP3   OH265545   1.816   6.806   1.566 -0.8729  0.3513  0.3190
14685TIP3    H165546   1.861   6.838   1.644 -0.5341  0.7611 -0.0371
14685TIP3    H265547   1.818   6.880   1.505 -0.0951 -0.3246 -0.5076
14686TIP3   OH265548   4.048   5.180   1.888 -0.5460  0.0409  0.0553
14686TIP3    H165549   4.134   5.155   1.921 -1.0721 -0.2799  1.2661
14686TIP3    H265550   4.024   5.110   1.828  1.2658  1.6039 -2.6632
14687TIP3   OH265551   3.010   6.750   4.547 -0.0110 -0.4862 -0.2831
14687TIP3    H165552   2.945   6.693   4.508 -0.1018 -1.4122  1.1454
14687TIP3    H265553   3.064   6.692   4.600  0.5916  0.5945  0.3277
14688TIP3   OH265554   4.805   4.222   5.173 -0.4088 -0.2908 -0.4681
14688TIP3    H165555   4.733   4.285   5.177  0.5715  0.8659 -0.5307
14688TIP3    H265556   4.816   4.192   5.264  0.7385  1.5584  0.0581
14689TIP3   OH265557   3.627   1.183   4.124  0.6712 -1.2674 -0.4243
14689TIP3    H165558   3.675   1.255   4.165  1.2618 -1.8315 -0.1024
14689TIP3    H265559   3.535   1.203   4.140  0.8813 -1.4748  1.2214
14690TIP3   OH265560   5.347   0.797   4.305 -0.3686 -0.8142 -0.1149
14690TIP3    H165561   5.407   0.807   4.379  2.3004 -1.1916 -2.0719
14690TIP3    H265562   5.326   0.886   4.279 -0.5814 -0.6742  0.5118
14691TIP3   OH265563   2.875   5.062  15.559 -0.6701  0.0367 -0.3161
14691TIP3    H165564   2.832   5.041  15.642  1.6143  0.9454  1.2093
14691TIP3    H265565   2.867   4.983  15.507 -1.8572 -0.6979  0.9146
14692TIP3   OH265566   2.046   5.122   5.729 -0.1307  0.6688 -0.3143
14692TIP3    H165567   2.018   5.190   5.667  0.2481  2.4132  1.3233
14692TIP3    H265568   1.977   5.056   5.725 -1.3703  1.9432 -0.7731
14693TIP3   OH265569   1.646   0.660   1.795 -0.1229 -0.6466 -0.3803
14693TIP3    H165570   1.594   0.599   1.848  0.0607  0.5179  1.2490
14693TIP3    H265571   1.590   0.737   1.788  0.0686 -0.6027 -1.4875
14694TIP3   OH265572   1.405   0.998   1.611 -0.3880  0.0896  0.3659
14694TIP3    H165573   1.489   1.041   1.596  0.6516 -1.7943  0.5294
14694TIP3    H265574   1.340   1.060   1.576  1.2218  0.2913 -2.5796
14695TIP3   OH265575   5.760   3.507  12.222  0.1339 -0.3731 -0.1148
14695TIP3    H165576   5.681   3.469  12.182  0.8231 -2.1270  0.1127
14695TIP3    H265577   5.819   3.433  12.232  0.9669  0.5066  1.8108
14696TIP3   OH265578   5.326   2.990  17.123  0.4115 -0.5037 -0.0112
14696TIP3    H165579   5.371   2.967  17.042 -1.2666  0.1702 -1.1944
14696TIP3    H265580   5.257   2.925  17.132 -0.1907  0.1448  0.1836
14697TIP3   OH265581   6.439   5.583   5.150 -0.0151 -0.5402 -0.4295
14697TIP3    H165582   6.422   5.618   5.237  0.6764 -0.7387 -0.2067
14697TIP3    H265583   6.427   5.657   5.091 -0.6080 -0.4362 -0.1808
14698TIP3   OH265584   1.153   5.906   2.889 -0.3465 -0.0038 -0.5574
14698TIP3    H165585   1.201   5.845   2.945  0.8339  1.9406  0.6671
14698TIP3    H265586   1.163   5.871   2.801  2.2659 -0.4040 -0.1705
14699TIP3   OH265587   6.342   1.679   5.389  0.0780 -0.7279  0.3147
14699TIP3    H165588   6.361   1.715   5.476  2.2857 -1.1985  0.0796
14699TIP3    H265589   6.309   1.753   5.339 -0.2375 -0.2078  1.2551
14700TIP3   OH265590   0.146   0.565   1.542  0.4008  0.3357  0.5747
14700TIP3    H165591   0.165   0.639   1.484 -0.8826  0.2836  0.0618
14700TIP3    H265592   0.207   0.576   1.615 -0.6264  2.6732  1.1795
14701TIP3   OH265593   6.718   2.552   1.507  0.5065 -0.3846 -0.6173
14701TIP3    H165594   6.684   2.522   1.591  1.0106  0.3308 -0.1440
14701TIP3    H265595   6.802   2.594   1.529  1.0249 -0.8780 -1.5730
14702TIP3   OH265596   0.949   6.034  11.362 -0.2030 -0.4269 -0.0095
14702TIP3    H165597   0.918   6.079  11.440  3.3562  0.6383  0.9882
14702TIP3    H265598   0.950   5.941  11.385 -0.7462 -0.2842  0.5960
14703TIP3   OH265599   5.522   5.753  14.410  0.0247 -0.3012  0.4845
14703TIP3    H165600   5.436   5.792  14.428  0.5336  0.2628  1.9160
14703TIP3    H265601   5.506   5.659  14.410 -0.8616 -0.1716 -0.8801
14704TIP3   OH265602   3.707   2.907  10.272 -0.0561  0.4366 -0.6340
14704TIP3    H165603   3.651   2.861  10.335 -1.2166  0.7216 -1.4303
14704TIP3    H265604   3.654   2.980  10.241  1.0653  1.1988 -0.8150
14705TIP3   OH265605   1.798   3.743  14.235 -0.2319  0.4097 -0.4463
14705TIP3    H165606   1.837   3.696  14.161 -0.4112 -0.8257  0.2148
14705TIP3    H265607   1.857   3.817  14.250  1.6490 -1.1202  0.2124
14706TIP3   OH265608   0.819   5.130   0.945  0.4677 -0.1995  0.4200
14706TIP3    H165609   0.857   5.077   1.014  0.5891 -0.9097 -0.1755
14706TIP3    H265610   0.776   5.067   0.887 -0.4988  0.4691  0.3851
14707TIP3   OH265611   6.047   0.474  14.989 -0.4007  0.6056 -0.5947
14707TIP3    H165612   6.040   0.406  15.056  0.5522 -0.5583 -1.6218
14707TIP3    H265613   6.028   0.555  15.035 -2.4251 -0.4063  0.5095
14708TIP3   OH265614   2.243   6.081  16.428 -0.3858 -0.2541  0.0477
14708TIP3    H165615   2.317   6.077  16.367  0.3887  1.7222  0.8042
14708TIP3    H265616   2.282   6.065  16.514 -0.7231  1.3200  0.5170
14709TIP3   OH265617   1.901   5.433   2.296  0.2206  0.5239  0.1227
14709TIP3    H165618   1.892   5.339   2.278 -2.8363  0.6818  0.2273
14709TIP3    H265619   1.995   5.448   2.300  0.8280 -2.8566  1.8258
14710TIP3   OH265620   1.511   3.311   2.901 -0.5117 -0.5877 -0.3037
14710TIP3    H165621   1.538   3.233   2.949 -1.8017 -1.3252 -0.7186
14710TIP3    H265622   1.416   3.318   2.916 -0.5140  0.6016 -0.7003
14711TIP3   OH265623   1.060   5.302  11.854  0.3922 -0.4975  0.3021
14711TIP3    H165624   0.967   5.320  11.840  0.6375  0.0450 -0.7429
14711TIP3    H265625   1.064   5.209  11.875 -0.4872 -0.2903  1.4835
14712TIP3   OH265626   3.035   6.343  12.777  0.0707  0.0557  0.2743
14712TIP3    H165627   3.046   6.250  12.796 -0.5346 -0.2591 -0.8457
14712TIP3    H265628   3.094   6.360  12.704 -0.3135  0.3909  0.0387
14713TIP3   OH265629   1.067   1.113   5.268 -0.3029 -0.7608  0.0776
14713TIP3    H165630   1.145   1.073   5.229 -0.4069 -0.5704 -0.3332
14713TIP3    H265631   1.101   1.184   5.323 -0.2881  1.1017 -2.1939
14714TIP3   OH265632   2.717   1.881  12.551 -1.0497 -0.2648 -0.5751
14714TIP3    H165633   2.721   1.789  12.525  1.3369  0.2994 -2.7328
14714TIP3    H265634   2.798   1.896  12.600 -1.3605  0.6982 -0.3313
14715TIP3   OH265635   0.003   2.243   4.415 -0.0543 -0.5604  0.8126
14715TIP3    H165636  -0.074   2.194   4.443  0.1052  0.1864  2.6933
14715TIP3    H265637   0.060   2.245   4.491  1.4755 -0.3787 -0.2901
14716TIP3   OH265638   1.243   3.352  10.272 -0.4658  0.1216  0.3817
14716TIP3    H165639   1.237   3.345  10.177  2.2219 -0.3638  0.1421
14716TIP3    H265640   1.260   3.262  10.301 -0.0288  0.4380  1.1485
14717TIP3   OH265641   0.929   2.687   0.078 -0.1437 -0.0070  0.0246
14717TIP3    H165642   0.935   2.766   0.132  0.1825 -0.2822  0.3911
14717TIP3    H265643   0.875   2.714   0.003  0.9345  0.9019 -0.4561
14718TIP3   OH265644   0.425   1.934   1.874 -0.6250 -0.0216  0.0661
14718TIP3    H165645   0.350   1.934   1.815 -0.6747  1.3678  0.0741
14718TIP3    H265646   0.472   1.854   1.854  0.4259  1.2589 -3.3171
14719TIP3   OH265647   2.678   5.554   2.832 -0.5339 -0.7681  0.4771
14719TIP3    H165648   2.596   5.566   2.880 -0.5202 -0.8278  0.5160
14719TIP3    H265649   2.746   5.568   2.898 -0.4910  0.3473  0.2107
14720TIP3   OH265650   0.842   3.524  11.489 -0.4996 -0.7594 -0.4809
14720TIP3    H165651   0.836   3.431  11.469  0.2495 -1.3244  1.6480
14720TIP3    H265652   0.884   3.528  11.575  0.1718  1.5787 -0.8317
14721TIP3   OH265653   6.283   6.418  11.589 -0.4683  0.9608 -0.4748
14721TIP3    H165654   6.363   6.368  11.603 -0.8762  0.2630 -0.5940
14721TIP3    H265655   6.237   6.371  11.518 -1.6539  0.5104  0.5489
14722TIP3   OH265656   0.950   3.685  17.069  0.5676 -0.0384 -0.0730
14722TIP3    H165657   0.869   3.701  17.117  1.0278  0.7201  0.4731
14722TIP3    H265658   1.016   3.737  17.115  1.1445  0.2275 -1.1606
14723TIP3   OH265659   1.850   5.396  11.575 -0.1228  0.4549  0.2228
14723TIP3    H165660   1.773   5.341  11.588  1.3062 -1.9370 -0.7022
14723TIP3    H265661   1.877   5.420  11.664 -1.8368  1.2684  0.5671
14724TIP3   OH265662   0.093   5.699  12.037 -0.3355 -0.3785  0.7426
14724TIP3    H165663   0.160   5.759  12.005 -1.1498 -0.4703 -1.2354
14724TIP3    H265664   0.032   5.756  12.085  0.4926 -0.1261  1.5334
14725TIP3   OH265665   1.123   0.471   0.951 -0.3128 -0.5329  0.3332
14725TIP3    H165666   1.133   0.378   0.933  3.2962 -0.0261 -1.2875
14725TIP3    H265667   1.155   0.482   1.041 -2.2335 -0.9535  1.1222
14726TIP3   OH265668   5.834   4.151   1.275 -0.3812  0.2852 -0.6960
14726TIP3    H165669   5.912   4.095   1.277 -1.0842 -0.7132  0.3658
14726TIP3    H265670   5.840   4.197   1.192  0.3877 -1.1596 -1.4931
14727TIP3   OH265671   4.266   0.489  16.563 -0.2324 -0.1839  0.3783
14727TIP3    H165672   4.220   0.539  16.630  0.0948 -0.1291  0.5667
14727TIP3    H265673   4.243   0.532  16.480 -0.8859 -0.4417  0.4242
14728TIP3   OH265674   5.406   6.667  14.719 -0.1053  0.2571  0.4935
14728TIP3    H165675   5.473   6.680  14.652 -1.2728  1.1136 -0.5597
14728TIP3    H265676   5.380   6.576  14.709  0.2881  0.1609  0.3263
14729TIP3   OH265677   2.462   0.721   2.973 -0.6092 -0.2300 -0.6514
14729TIP3    H165678   2.465   0.671   2.891  1.5991 -0.1431 -0.6689
14729TIP3    H265679   2.549   0.759   2.982 -1.2327  0.9452  1.0425
14730TIP3   OH265680   2.054   0.578   2.112  0.1304 -0.2368 -0.0786
14730TIP3    H165681   1.968   0.609   2.082  0.4008 -0.0208 -0.6337
14730TIP3    H265682   2.115   0.609   2.046  0.3199 -2.5897 -1.0828
14731TIP3   OH265683   0.112   1.706  16.593  0.0273  0.4088  0.3946
14731TIP3    H165684   0.180   1.674  16.534  0.1428  0.1533  0.6645
14731TIP3    H265685   0.142   1.793  16.619  2.3572 -1.1859  3.7101
14732TIP3   OH265686   5.359   5.582   1.767 -0.0517 -0.1847  0.5930
14732TIP3    H165687   5.277   5.539   1.791 -1.1203  1.3754 -0.0739
14732TIP3    H265688   5.383   5.633   1.844 -0.8789  1.0141  0.0897
14733TIP3   OH265689   0.002   6.465   5.394 -0.1775  0.2179 -0.2179
14733TIP3    H165690   0.008   6.558   5.412  0.3811  0.1307  0.0636
14733TIP3    H265691   0.090   6.432   5.408 -0.7216 -0.6567  1.3329
14734TIP3   OH265692   4.389   3.042   6.467  0.1294 -0.7037  0.5723
14734TIP3    H165693   4.317   3.064   6.526 -0.5844  0.1712 -0.5998
14734TIP3    H265694   4.355   3.058   6.379  2.2325  1.2426  0.0167
14735TIP3   OH265695   4.080   1.976   2.425 -0.2824  0.0223 -0.2808
14735TIP3    H165696   4.102   1.993   2.333  0.1841  0.4772 -0.0875
14735TIP3    H265697   4.108   1.886   2.441  1.0811  0.4575 -0.1522
14736TIP3   OH265698   5.316   0.327  12.717  1.1093  0.3317 -0.1194
14736TIP3    H165699   5.395   0.290  12.676  0.1141 -0.8682 -1.0322
14736TIP3    H265700   5.244   0.295  12.663 -0.5146 -2.9880  3.5716
14737TIP3   OH265701   3.113   3.963   0.798  0.5145  0.0598  0.1262
14737TIP3    H165702   3.076   3.967   0.886  0.2294  0.0095  0.0082
14737TIP3    H265703   3.054   4.016   0.744 -0.8000 -1.9931 -0.5622
14738TIP3   OH265704   1.408   6.488   0.687 -0.4778 -0.3453 -0.7262
14738TIP3    H165705   1.478   6.424   0.681  0.7103  0.8399 -0.1390
14738TIP3    H265706   1.338   6.444   0.735 -0.1765 -1.5723 -1.3818
14739TIP3   OH265707   3.543   5.236   0.423  0.6739 -0.4333 -0.0972
14739TIP3    H165708   3.476   5.168   0.412  0.0254  0.0745  0.5565
14739TIP3    H265709   3.522   5.302   0.357  0.2464 -0.0746  0.3782
14740TIP3   OH265710   3.821   0.804   1.812  0.7001 -0.1827 -0.3717
14740TIP3    H165711   3.758   0.769   1.749  2.4680 -0.3187 -2.1313
14740TIP3    H265712   3.767   0.832   1.886 -1.3791 -0.6240 -1.6439
14741TIP3   OH265713   4.204   6.218   4.962 -0.0721  0.5963 -0.4013
14741TIP3    H165714   4.157   6.293   4.926 -0.8206 -0.0687 -0.8666
14741TIP3    H265715   4.146   6.144   4.945 -1.0614  0.3616  3.2477
14742TIP3   OH265716   5.716   1.372  11.920 -0.0788 -0.1755  0.5274
14742TIP3    H165717   5.677   1.385  12.007 -0.8027  2.1351 -0.0707
14742TIP3    H265718   5.757   1.456  11.899  0.0246 -0.6562 -1.4007
14743TIP3   OH265719   1.943   6.350   3.923  0.3497  0.3210 -0.2276
14743TIP3    H165720   1.885   6.277   3.901 -0.0736  0.5714  0.0298
14743TIP3    H265721   1.966   6.389   3.839  0.8094 -0.2854 -0.3816
14744TIP3   OH265722   1.657   5.572   2.304  0.4094 -0.5857  0.5081
14744TIP3    H165723   1.599   5.539   2.235  1.1895  0.1134 -0.4990
14744TIP3    H265724   1.730   5.510   2.306  1.6859  0.8085 -1.1231
14745TIP3   OH265725   2.639   4.988  14.684 -0.4094  0.0262 -0.7480
14745TIP3    H165726   2.718   4.941  14.712 -0.6513  0.4297  0.6711
14745TIP3    H265727   2.573   4.965  14.750 -1.8371 -1.2010 -2.4953
14746TIP3   OH265728   3.819   3.698  14.775  0.3497 -0.1164  0.2242
14746TIP3    H165729   3.856   3.641  14.707  2.1194  1.4093 -0.1797
14746TIP3    H265730   3.724   3.689  14.764  0.5778 -0.7181 -1.7828
14747TIP3   OH265731   3.020   2.450   2.460 -0.3415  0.1013  0.0188
14747TIP3    H165732   2.963   2.457   2.384  0.8724  0.0810 -0.9244
14747TIP3    H265733   2.965   2.411   2.528 -1.8727  1.4786 -0.3672
14748TIP3   OH265734   6.591   0.624  11.087 -0.4026 -0.5208  0.1253
14748TIP3    H165735   6.585   0.720  11.084  1.1041 -0.4049  0.1553
14748TIP3    H265736   6.506   0.596  11.121 -0.8560  0.8077  0.1475
14749TIP3   OH265737   0.489   0.494   4.558 -0.3534 -0.0026 -0.0562
14749TIP3    H165738   0.488   0.458   4.469 -1.8083  1.4490 -0.6751
14749TIP3    H265739   0.427   0.439   4.606  1.3241 -1.5652  0.4605
14750TIP3   OH265740   2.710   0.082   0.753  0.2298  0.0870  0.0128
14750TIP3    H165741   2.731   0.012   0.692  1.3933  0.7050 -0.3420
14750TIP3    H265742   2.783   0.081   0.816 -1.0878 -0.7281  1.5922
14751TIP3   OH265743   5.752   4.648   5.586 -0.3191  0.2517  0.2007
14751TIP3    H165744   5.673   4.662   5.638 -1.1229  0.1070 -0.9339
14751TIP3    H265745   5.720   4.645   5.496  0.5770 -2.7973 -0.1219
14752TIP3   OH265746   0.504   1.098   1.714  0.0321 -0.3747  0.1857
14752TIP3    H165747   0.453   1.066   1.789  0.3852  2.3330  1.7113
14752TIP3    H265748   0.592   1.110   1.750  0.5768 -0.3671 -1.1014
14753TIP3   OH265749   0.998   1.489  16.218  0.3794 -0.2656 -0.5155
14753TIP3    H165750   1.079   1.445  16.192  0.1499 -0.3639 -1.0838
14753TIP3    H265751   1.010   1.579  16.188  1.5618  0.5490  2.1506
14754TIP3   OH265752   1.983   5.606   4.206  0.5632 -0.0282 -0.6107
14754TIP3    H165753   1.939   5.649   4.279 -0.7582 -3.7032  0.9852
14754TIP3    H265754   2.059   5.564   4.246  1.0972 -0.2412 -1.8222
14755TIP3   OH265755   1.420   5.813   0.412  0.2499 -0.2192  0.1187
14755TIP3    H165756   1.381   5.867   0.344  1.6048 -0.5885 -0.9920
14755TIP3    H265757   1.361   5.737   0.419 -0.8945  0.6941  0.7054
14756TIP3   OH265758   4.690   6.219   5.281 -0.7594  0.0260  0.4443
14756TIP3    H165759   4.765   6.208   5.340 -0.1103  3.0426  0.3697
14756TIP3    H265760   4.638   6.288   5.322 -0.1286  2.4645 -2.4672
14757TIP3   OH265761   1.724   5.113  11.104 -0.6989  0.0336  0.0742
14757TIP3    H165762   1.810   5.113  11.063  0.5334  1.0197  2.4567
14757TIP3    H265763   1.720   5.029  11.151 -0.9747  0.0484  0.0785
14758TIP3   OH265764   0.109   3.510  11.271 -0.2609  0.3101  0.6172
14758TIP3    H165765   0.080   3.544  11.187  0.4208 -0.0935  0.2094
14758TIP3    H265766   0.099   3.584  11.332  0.2563  0.9376 -0.0416
14759TIP3   OH265767   4.881   4.787   1.171  0.3870  0.9532  0.3727
14759TIP3    H165768   4.895   4.698   1.138  0.6596  1.2135 -0.2366
14759TIP3    H265769   4.803   4.780   1.226  0.3306  0.3621  0.2288
14760TIP3   OH265770   4.311   0.487  12.686 -0.0848 -0.2157  0.1426
14760TIP3    H165771   4.332   0.402  12.725  2.1027  0.0653 -0.2818
14760TIP3    H265772   4.257   0.531  12.752 -1.0384 -1.8055  0.4660
14761TIP3   OH265773   5.739   3.836  12.722  0.3926 -0.9808 -0.5494
14761TIP3    H165774   5.801   3.878  12.781 -0.7500  0.1915 -0.1231
14761TIP3    H265775   5.736   3.893  12.645  1.1165 -1.9641 -1.3397
14762TIP3   OH265776   3.886   6.428   5.868 -0.5465 -0.2781  0.1596
14762TIP3    H165777   3.870   6.353   5.811 -1.0717 -0.9558  1.1599
14762TIP3    H265778   3.981   6.436   5.870 -0.5240  0.1255 -1.2454
14763TIP3   OH265779   2.864   2.648  16.842  0.7795 -0.7854  0.4246
14763TIP3    H165780   2.883   2.741  16.834  0.4500 -0.6676  0.9241
14763TIP3    H265781   2.901   2.608  16.763  1.6483 -0.3490  0.6001
14764TIP3   OH265782   2.755   2.127  13.465 -0.4968 -0.0345  0.4661
14764TIP3    H165783   2.769   2.132  13.560  1.5321  2.2226  0.1475
14764TIP3    H265784   2.693   2.055  13.454  0.7893 -1.7452  3.3123
14765TIP3   OH265785   5.796   6.426   6.056  0.0496  0.1734  0.0851
14765TIP3    H165786   5.840   6.505   6.023  0.0043  0.0403 -0.2913
14765TIP3    H265787   5.830   6.416   6.145  1.8068 -0.6753 -0.6426
14766TIP3   OH265788   2.420   5.007  15.540 -0.1138  1.0661 -0.2053
14766TIP3    H165789   2.475   4.975  15.612 -0.4766 -0.4510 -0.5582
14766TIP3    H265790   2.454   5.094  15.520  1.2930  0.6964  0.4761
14767TIP3   OH265791   5.969   6.647  15.634 -0.2805 -0.2565  0.3970
14767TIP3    H165792   5.929   6.628  15.548  1.5195  0.0733 -0.5589
14767TIP3    H265793   5.897   6.636  15.696 -1.8466  0.2113 -1.2164
14768TIP3   OH265794   0.722   3.090   3.618 -0.6300  0.5096 -0.1208
14768TIP3    H165795   0.794   3.138   3.657 -0.1322  0.4933 -0.9856
14768TIP3    H265796   0.726   3.003   3.658  1.7027 -0.4872 -2.2195
14769TIP3   OH265797   2.421   2.941   5.353 -0.0365  0.5093  0.3797
14769TIP3    H165798   2.361   3.016   5.356 -1.4866 -0.6342  2.2300
14769TIP3    H265799   2.382   2.883   5.288  1.2117  1.3684 -1.2241
14770TIP3   OH265800   6.119   5.267   1.653 -0.4860 -0.3683  0.1307
14770TIP3    H165801   6.149   5.325   1.723 -1.6605 -0.3111  0.5968
14770TIP3    H265802   6.196   5.214   1.632  1.2387  2.5846 -1.6329
14771TIP3   OH265803   2.363   5.142   2.352  0.3523  0.1850 -0.5869
14771TIP3    H165804   2.452   5.126   2.384 -0.4498  1.2288  2.5136
14771TIP3    H265805   2.317   5.059   2.365  0.5610 -0.0014 -1.0337
14772TIP3   OH265806   0.980   0.829  10.096  0.4671 -0.0446 -0.5545
14772TIP3    H165807   1.072   0.823  10.070  0.2529  0.7219 -1.5709
14772TIP3    H265808   0.983   0.865  10.185  1.1563 -0.0248 -0.5792
14773TIP3   OH265809   4.354   2.155  17.031 -0.4563  0.3435  0.5965
14773TIP3    H165810   4.341   2.234  17.083 -1.3445  0.6016 -0.0112
14773TIP3    H265811   4.449   2.142  17.031 -0.3219  1.2900  0.8646
14774TIP3   OH265812   5.171   1.005  12.101 -0.0254  0.4495  0.2783
14774TIP3    H165813   5.107   1.070  12.130 -0.5777  0.2093 -0.3772
14774TIP3    H265814   5.122   0.923  12.098  1.2379 -0.6058  3.5371
14775TIP3   OH265815   4.653   1.265   1.503  0.4878 -0.1136 -0.4226
14775TIP3    H165816   4.558   1.265   1.491  0.4497 -0.4312 -0.1407
14775TIP3    H265817   4.678   1.174   1.488  0.7343 -0.0518 -0.3796
14776TIP3   OH265818   0.616   1.618  16.361 -0.0301 -0.0286 -0.0579
14776TIP3    H165819   0.658   1.587  16.281 -0.0854 -1.7753  0.5492
14776TIP3    H265820   0.641   1.710  16.367  0.0817  0.1101 -2.0018
14777TIP3   OH265821   4.924   5.815  12.343  0.4323  0.0596 -0.5621
14777TIP3    H165822   4.976   5.787  12.268 -2.0313 -1.3398 -1.9106
14777TIP3    H265823   4.868   5.739  12.363 -1.6660  1.7008  0.1844
14778TIP3   OH265824   1.380   3.993   5.741 -0.2142 -0.4431 -0.6591
14778TIP3    H165825   1.398   3.975   5.833 -0.9786  1.3343 -0.1168
14778TIP3    H265826   1.398   4.087   5.731  1.5007 -0.9141 -2.7517
14779TIP3   OH265827   3.058   5.222  14.138  0.5227  0.7605 -0.2008
14779TIP3    H165828   2.969   5.186  14.138  1.0916 -0.9157  2.4909
14779TIP3    H265829   3.108   5.161  14.083  0.2733  1.0267 -0.7352
14780TIP3   OH265830   6.681   1.049   0.241  0.7000  0.1955  0.0237
14780TIP3    H165831   6.660   1.138   0.271 -1.2091 -0.1237 -0.1909
14780TIP3    H265832   6.607   1.025   0.185  0.8582 -1.7709  0.5775
14781TIP3   OH265833   6.569   6.342   4.421 -0.0240  0.1307 -0.0667
14781TIP3    H165834   6.493   6.291   4.447 -0.0857  0.0178 -0.4736
14781TIP3    H265835   6.604   6.375   4.504 -0.6260  0.3506  0.1043
14782TIP3   OH265836   1.624   0.193  11.997 -0.4196  0.3258  0.4182
14782TIP3    H165837   1.641   0.231  11.911 -1.0930  0.9775  0.5632
14782TIP3    H265838   1.695   0.227  12.053 -0.3961  0.4817  0.2917
14783TIP3   OH265839   4.355   0.917  10.779 -0.3560 -0.1632  0.7331
14783TIP3    H165840   4.353   0.944  10.688 -1.4002 -0.8654  0.5295
14783TIP3    H265841   4.263   0.923  10.808 -0.1185 -0.4345  1.5818
14784TIP3   OH265842   4.017   4.039   4.444 -0.2010 -0.3875  0.1048
14784TIP3    H165843   3.992   3.957   4.486 -2.3379 -0.2731 -0.7764
14784TIP3    H265844   4.054   4.012   4.360 -0.2582 -0.4804  0.1088
14785TIP3   OH265845   3.863   5.505   3.849  0.1627  0.0247 -0.3213
14785TIP3    H165846   3.875   5.529   3.941  0.5708  2.1896 -0.8725
14785TIP3    H265847   3.825   5.584   3.808 -0.6547 -1.1118 -1.8842
14786TIP3   OH265848   1.121   1.351   3.857 -0.0080 -0.0030 -0.0006
14786TIP3    H165849   1.064   1.312   3.923  0.5907 -1.5624 -0.3488
14786TIP3    H265850   1.181   1.280   3.832  0.0608  0.6561 -1.9045
14787TIP3   OH265851   5.969   5.381  16.119 -0.3292  0.2485  0.3171
14787TIP3    H165852   5.909   5.434  16.067  1.1998  2.6086  0.8044
14787TIP3    H265853   6.000   5.313  16.060  0.7653  2.3706 -1.6610
14788TIP3   OH265854   1.319   2.012  13.675 -0.3208 -0.1344  0.0716
14788TIP3    H165855   1.391   2.066  13.707 -1.3152  0.2293  1.8229
14788TIP3    H265856   1.281   2.063  13.604  0.5974  0.0559 -0.3001
14789TIP3   OH265857   4.594   5.100  10.381 -0.0468  0.7540 -0.6559
14789TIP3    H165858   4.618   5.026  10.325 -0.9293 -0.4336  0.5063
14789TIP3    H265859   4.507   5.127  10.349 -0.7188 -0.1672  0.3586
14790TIP3   OH265860   5.648   3.158   1.100 -0.0610  0.3659 -0.3888
14790TIP3    H165861   5.684   3.069   1.098  1.8083  0.9496  1.9186
14790TIP3    H265862   5.726   3.214   1.099 -1.2005  1.9954 -1.5506
14791TIP3   OH265863   0.211   5.187   0.356  0.6796 -0.1994 -0.4810
14791TIP3    H165864   0.191   5.266   0.307  0.4106 -0.1026 -0.2195
14791TIP3    H265865   0.306   5.179   0.352  0.6973  0.0798 -0.5966
14792TIP3   OH265866   2.461   3.661   3.770 -0.4516  0.3919  0.0630
14792TIP3    H165867   2.387   3.698   3.724 -0.5990 -0.3863 -0.3421
14792TIP3    H265868   2.431   3.651   3.861 -0.8207  0.1413 -0.0868
14793TIP3   OH265869   4.823   3.588  11.698 -0.0429  0.1532 -0.2087
14793TIP3    H165870   4.894   3.524  11.697  0.3770  0.6095 -0.1176
14793TIP3    H265871   4.772   3.568  11.620  1.6308  1.3928 -1.7252
14794TIP3   OH265872   6.514   0.039   1.055  0.1493 -0.0217  0.0392
14794TIP3    H165873   6.565  -0.008   1.121 -0.6469  0.7852  1.2738
14794TIP3    H265874   6.460  -0.029   1.014 -0.7962 -0.2678  1.6114
14795TIP3   OH265875   2.911   0.264  14.586  0.3431  0.4961  0.5087
14795TIP3    H165876   2.917   0.359  14.592 -0.6761  0.5555  0.7245
14795TIP3    H265877   2.817   0.246  14.583  0.5324 -0.4535 -0.3896
14796TIP3   OH265878   1.840   3.504  16.470  0.1405  0.0465 -0.2512
14796TIP3    H165879   1.814   3.592  16.444  1.1504  0.1572 -0.9609
14796TIP3    H265880   1.923   3.516  16.517  0.8151 -0.5914 -1.2312
14797TIP3   OH265881   0.271   6.361   4.345  0.2017 -0.5531  0.4132
14797TIP3    H165882   0.189   6.410   4.354 -0.5865 -2.0360  1.7347
14797TIP3    H265883   0.339   6.424   4.369 -0.2677  1.3153 -2.5423
14798TIP3   OH265884   1.124   3.484  10.704 -0.1858 -0.7997  0.3855
14798TIP3    H165885   1.098   3.394  10.684  1.7063 -1.5051  0.8645
14798TIP3    H265886   1.216   3.477  10.731 -0.1369  1.2178  0.9167
14799TIP3   OH265887   4.819   5.382  16.995 -0.3897 -0.2532  0.0399
14799TIP3    H165888   4.738   5.407  17.038  0.1079  1.0398  0.2658
14799TIP3    H265889   4.805   5.404  16.903 -0.5950 -0.8153 -0.0654
14800TIP3   OH265890   3.009   4.707  10.168  1.2413  0.1542 -0.0586
14800TIP3    H165891   3.094   4.734  10.134  2.8097 -1.5153  2.2646
14800TIP3    H265892   3.010   4.734  10.260 -0.1775 -1.1260  0.3671
14801TIP3   OH265893   3.010   5.335  17.037  0.4827 -0.1862  0.2726
14801TIP3    H165894   2.922   5.349  17.001  1.2062  1.7214 -0.8827
14801TIP3    H265895   3.049   5.269  16.981 -0.3916 -1.5418  1.1901
14802TIP3   OH265896   2.697   5.525  16.274  0.8520  0.4577 -0.5853
14802TIP3    H165897   2.682   5.450  16.216  2.0630 -0.0678 -0.2467
14802TIP3    H265898   2.698   5.488  16.362  0.2360  1.0678 -0.3106
14803TIP3   OH265899   6.095   4.668   0.467  0.6754 -1.0111 -0.1142
14803TIP3    H165900   6.119   4.757   0.491  0.1723 -0.1473 -2.5380
14803TIP3    H265901   6.007   4.657   0.502  0.2229 -0.0478 -0.8903
14804TIP3   OH265902   0.066   2.248   0.826  0.1264 -0.1127  0.1960
14804TIP3    H165903   0.086   2.202   0.908 -1.5265  1.6606  1.6897
14804TIP3    H265904  -0.025   2.275   0.835  0.3498  1.4561 -1.5756
14805TIP3   OH265905   5.154   5.602  16.561 -0.3143 -0.1510  0.2139
14805TIP3    H165906   5.185   5.648  16.483 -1.0042  0.2739  0.1794
14805TIP3    H265907   5.217   5.624  16.629  0.7811 -1.2236 -0.4265
14806TIP3   OH265908   6.626   6.318   5.548 -0.4396 -0.6053  0.1916
14806TIP3    H165909   6.659   6.235   5.585  0.9408 -0.7847 -1.3539
14806TIP3    H265910   6.703   6.360   5.511 -1.8147 -1.0014 -3.5481
14807TIP3   OH265911   3.560   6.491  15.135  0.0660  0.1756  0.1250
14807TIP3    H165912   3.588   6.431  15.205  1.8559  0.6344 -0.1408
14807TIP3    H265913   3.623   6.476  15.065 -0.0594  1.6577 -0.3362
14808TIP3   OH265914   6.170   1.589   4.874  1.0553  0.1056  0.3323
14808TIP3    H165915   6.090   1.541   4.853  1.8590 -1.0796 -0.1418
14808TIP3    H265916   6.141   1.664   4.924 -0.4681  0.2994 -0.7812
14809TIP3   OH265917   3.755   5.557   2.591  0.4193  0.5964  0.0625
14809TIP3    H165918   3.680   5.610   2.617  0.4295  1.0831 -0.8396
14809TIP3    H265919   3.826   5.619   2.581  0.3144  0.5104 -1.4731
14810TIP3   OH265920   2.870   3.377   2.122 -0.0236 -0.2684  0.0236
14810TIP3    H165921   2.922   3.309   2.079 -0.3515  0.2836 -1.3036
14810TIP3    H265922   2.875   3.356   2.216  1.8903 -0.6986 -0.1425
14811TIP3   OH265923   5.519   3.066   6.567  1.0597  0.2606  0.1597
14811TIP3    H165924   5.490   3.155   6.585  0.7378  0.1452  0.2118
14811TIP3    H265925   5.466   3.010   6.624  1.5605  0.0651  0.4496
14812TIP3   OH265926   3.748   6.243  15.267  0.2278  0.2760  0.1865
14812TIP3    H165927   3.767   6.335  15.287  2.9844  0.0022 -0.7186
14812TIP3    H265928   3.827   6.196  15.294 -0.7529 -1.7050 -0.2382
14813TIP3   OH265929   5.147   4.932  14.718 -0.3971  0.3451 -0.0146
14813TIP3    H165930   5.115   4.889  14.798 -1.1150  2.1528  0.7225
14813TIP3    H265931   5.232   4.892  14.702 -1.2962 -1.8134  0.2213
14814TIP3   OH265932   6.274   2.824   5.265 -0.2050 -0.4305 -0.0995
14814TIP3    H165933   6.313   2.758   5.322  0.8370 -0.0998 -0.4136
14814TIP3    H265934   6.180   2.816   5.281  0.0919  1.2478  3.4662
14815TIP3   OH265935   2.992   3.526   0.320  0.1563  0.3440 -0.1978
14815TIP3    H165936   2.987   3.616   0.350  0.5063  1.0474 -2.1168
14815TIP3    H265937   3.069   3.523   0.263  0.9486 -1.5153  0.8639
14816TIP3   OH265938   6.398   4.538   2.785 -0.0539  0.9935 -0.1483
14816TIP3    H165939   6.318   4.504   2.825  0.6454  1.3371  1.5964
14816TIP3    H265940   6.448   4.576   2.857 -0.2629  4.7893 -1.7455
14817TIP3   OH265941   4.846   4.531   1.079 -0.2437  0.5083 -0.0319
14817TIP3    H165942   4.801   4.485   1.008  0.9813  0.3081 -0.7102
14817TIP3    H265943   4.825   4.481   1.158  0.0346 -0.4878 -0.5758
14818TIP3   OH265944   1.689   1.355   0.969 -0.0217  0.4491 -0.0207
14818TIP3    H165945   1.633   1.402   1.030 -0.6178  0.8803 -0.8764
14818TIP3    H265946   1.634   1.285   0.935 -0.0062  0.7834 -0.7566
14819TIP3   OH265947   6.792   4.122   0.924  0.1407  0.4521  1.0617
14819TIP3    H165948   6.781   4.216   0.909  0.4429  0.3309  0.0009
14819TIP3    H265949   6.702   4.088   0.928  0.0349  0.6458  0.4638
14820TIP3   OH265950   5.928   5.538  10.808  0.1352  0.5550  0.0839
14820TIP3    H165951   6.007   5.592  10.803  0.2234  0.3802 -0.4230
14820TIP3    H265952   5.910   5.513  10.717 -0.7798  0.9959  0.1380
14821TIP3   OH265953   5.638   2.728  14.923 -0.2829  0.1124 -0.0631
14821TIP3    H165954   5.673   2.699  15.007 -1.1062  0.2484  0.3379
14821TIP3    H265955   5.562   2.672  14.908  0.6500 -0.8694 -1.4120
14822TIP3   OH265956   6.734   3.145   4.549  0.5879 -0.2618  0.2532
14822TIP3    H165957   6.775   3.170   4.466  0.5362  0.5612  0.4617
14822TIP3    H265958   6.794   3.177   4.616  0.2777 -0.2768  0.5422
14823TIP3   OH265959   2.566   2.307   2.693  0.0110  0.0595  0.2239
14823TIP3    H165960   2.474   2.335   2.688  0.2887  0.9477 -0.0444
14823TIP3    H265961   2.570   2.255   2.774 -0.8002 -0.2773  0.0628
14824TIP3   OH265962   4.349   1.179   4.379 -0.4282  0.1780 -0.3717
14824TIP3    H165963   4.344   1.210   4.469 -2.9034 -1.7459  0.2748
14824TIP3    H265964   4.369   1.085   4.387  0.3695  0.1927 -1.8897
14825TIP3   OH265965   2.579   0.419  17.108 -0.4865  0.2192  0.0257
14825TIP3    H165966   2.505   0.467  17.071 -0.5330  0.5969  0.6031
14825TIP3    H265967   2.542   0.369  17.180 -0.1735  0.4261  0.3288
14826TIP3   OH265968   3.232   4.112   4.158  0.3939 -0.5925  0.0055
14826TIP3    H165969   3.209   4.020   4.143  0.1580 -0.4408 -0.6378
14826TIP3    H265970   3.325   4.111   4.180  0.5090 -0.9521 -0.4704
14827TIP3   OH265971   0.757   1.988   3.026  0.8786 -0.2452 -0.0987
14827TIP3    H165972   0.697   2.010   2.955  1.2274 -0.2332 -0.3914
14827TIP3    H265973   0.839   1.963   2.982  0.5925 -1.8662  0.2051
14828TIP3   OH265974   6.012   4.383   1.379  0.5368  0.2436 -0.0793
14828TIP3    H165975   6.107   4.385   1.388  0.5536  2.5555 -0.0218
14828TIP3    H265976   5.991   4.293   1.357  2.6222 -0.6092  1.1319
14829TIP3   OH265977   0.265   2.628  11.571  0.3013  0.4008  0.0483
14829TIP3    H165978   0.274   2.707  11.624 -1.9209 -0.2076  1.4480
14829TIP3    H265979   0.259   2.661  11.481 -1.7177  1.9684  0.6967
14830TIP3   OH265980   2.255   4.525   5.391  0.2168 -0.6447 -0.1715
14830TIP3    H165981   2.255   4.510   5.486 -0.4708  0.2800 -0.0163
14830TIP3    H265982   2.335   4.575   5.375 -0.3024  0.2978  0.1163
14831TIP3   OH265983   3.103   1.106  16.823 -0.1586  0.0354  0.7657
14831TIP3    H165984   3.140   1.018  16.832  0.3034  0.0208 -0.8423
14831TIP3    H265985   3.010   1.095  16.840 -0.0019 -0.6316  1.2500
14832TIP3   OH265986   2.606   2.800  17.007  0.4221 -0.2886 -0.2050
14832TIP3    H165987   2.575   2.710  16.995  0.1625  0.0104 -2.0939
14832TIP3    H265988   2.532   2.854  16.980  0.5290  0.5100  1.0595
14833TIP3   OH265989   3.795   6.236   0.608  0.1165  0.1996 -0.5240
14833TIP3    H165990   3.863   6.239   0.676 -0.3832 -1.2487  0.0834
14833TIP3    H265991   3.844   6.235   0.526  0.7518  1.2966 -0.1769
14834TIP3   OH265992   3.168   3.689   2.256  0.0276 -0.4064  0.3556
14834TIP3    H165993   3.190   3.781   2.273  0.8908 -0.9547  2.6595
14834TIP3    H265994   3.249   3.642   2.276 -0.7911 -1.7740  0.5500
14835TIP3   OH265995   0.969   1.104   5.010  0.9177  0.3866 -0.4770
14835TIP3    H165996   1.017   1.053   5.076 -0.4779 -0.1876  0.1348
14835TIP3    H265997   0.916   1.165   5.061 -0.8971 -0.6971 -0.9690
14836TIP3   OH265998   0.894   2.053  16.954  0.1589 -0.1846 -0.2488
14836TIP3    H165999   0.935   2.067  17.039  0.1123  0.5614 -0.3417
14836TIP3    H266000   0.894   2.140  16.913  0.2749 -0.5615 -1.0497
14837TIP3   OH266001   4.734   0.388   1.179 -0.8686 -0.8074 -0.4785
14837TIP3    H166002   4.791   0.388   1.256 -1.0152 -0.1808 -0.3648
14837TIP3    H266003   4.750   0.472   1.138 -0.6972 -1.1929 -1.2162
14838TIP3   OH266004   0.722   2.600   3.556  0.2035 -0.0791  0.8900
14838TIP3    H166005   0.810   2.625   3.528 -0.9155  3.4526  0.1770
14838TIP3    H266006   0.717   2.506   3.537  3.5884 -0.2838  0.4420
14839TIP3   OH266007   2.731   3.717   1.965 -0.8985  0.2898 -0.0520
14839TIP3    H166008   2.799   3.695   2.027 -0.4197  1.0019 -0.3078
14839TIP3    H266009   2.650   3.715   2.016 -0.6364 -0.1232  0.3540
14840TIP3   OH266010   1.898   6.398   1.377  0.0854  1.0814 -0.2815
14840TIP3    H166011   1.963   6.461   1.344 -0.8757  2.0398 -0.3970
14840TIP3    H266012   1.910   6.401   1.472 -1.5476  3.3101 -0.0645
14841TIP3   OH266013   3.024   5.044  12.259 -0.2115 -0.1465 -0.1372
14841TIP3    H166014   3.071   4.972  12.216  1.0024  0.5738 -0.0605
14841TIP3    H266015   3.086   5.079  12.323 -0.7650  1.0135 -0.2081
14842TIP3   OH266016   5.030   4.849   6.108  0.7570 -0.2288  0.4975
14842TIP3    H166017   5.074   4.801   6.177 -0.8496  0.0825  1.8146
14842TIP3    H266018   5.074   4.823   6.028  2.7720 -0.5015  1.6333
14843TIP3   OH266019   1.531   2.307   5.325 -0.7167  0.4818 -0.4017
14843TIP3    H166020   1.549   2.338   5.237 -2.1491 -0.6008 -1.1253
14843TIP3    H266021   1.588   2.231   5.337  0.8143  1.6920  0.3447
14844TIP3   OH266022   0.545   5.151  14.545  0.3922 -0.9027  0.1897
14844TIP3    H166023   0.478   5.196  14.597 -1.3962  0.1216 -2.7582
14844TIP3    H266024   0.590   5.222  14.498  3.9120 -1.5211  2.2293
14845TIP3   OH266025   3.165   3.464  15.011 -0.3311 -0.3689 -0.5091
14845TIP3    H166026   3.209   3.409  15.076 -1.4382 -0.7484 -0.0724
14845TIP3    H266027   3.158   3.550  15.053 -0.2700 -0.3818 -0.4716
14846TIP3   OH266028   4.826   5.967   3.625  0.3482  0.3398  0.0756
14846TIP3    H166029   4.897   5.983   3.688  1.2461 -1.2102 -0.4732
14846TIP3    H266030   4.746   5.984   3.675  1.0647  0.5507  1.2093
14847TIP3   OH266031   5.368   6.701  12.620  0.1901 -0.1319 -0.4319
14847TIP3    H166032   5.431   6.774  12.616  0.2828 -0.2651 -2.2784
14847TIP3    H266033   5.419   6.624  12.595 -0.1007 -0.7255  0.7190
14848TIP3   OH266034   5.520   0.489  14.481  0.4482  0.0978  0.1629
14848TIP3    H166035   5.604   0.526  14.507  0.8137 -0.5145 -0.1152
14848TIP3    H266036   5.542   0.424  14.414  0.1533 -2.5762  2.4474
14849TIP3   OH266037   1.449   3.683  13.474 -0.4549  0.2395 -0.5728
14849TIP3    H166038   1.491   3.699  13.390 -1.3717 -2.3433 -1.5994
14849TIP3    H266039   1.396   3.761  13.489  0.2299  1.0356 -2.0539
14850TIP3   OH266040   0.450   3.375  13.850  0.1028  0.4289 -0.2686
14850TIP3    H166041   0.543   3.366  13.832 -0.0287  0.3849 -0.9510
14850TIP3    H266042   0.423   3.453  13.800 -0.3672  0.0261 -0.6528
14851TIP3   OH266043   6.191   2.850  14.563 -0.0659 -0.0858  0.0623
14851TIP3    H166044   6.270   2.845  14.617  0.7716 -3.4213 -1.2627
14851TIP3    H266045   6.221   2.886  14.480 -0.4222  0.5782  0.2062
14852TIP3   OH266046   2.213   1.225   5.002 -0.4170 -0.5360  0.1120
14852TIP3    H166047   2.217   1.144   5.054 -0.0579 -0.4485  0.2241
14852TIP3    H266048   2.137   1.271   5.036  0.7761  0.3257  1.7688
14853TIP3   OH266049   6.497   4.842   0.545 -0.1672 -0.4774  0.4305
14853TIP3    H166050   6.578   4.813   0.587 -0.2683 -0.2995  0.7552
14853TIP3    H266051   6.453   4.761   0.519  0.8024 -0.5443 -1.0982
14854TIP3   OH266052   6.426   0.737   2.801  0.2932 -0.4954 -0.2535
14854TIP3    H166053   6.407   0.786   2.881 -1.2642 -1.8561  0.2778
14854TIP3    H266054   6.352   0.758   2.743  0.8313 -0.3893 -0.9047
14855TIP3   OH266055   1.981   4.729  13.898 -0.2116 -0.4440 -0.5759
14855TIP3    H166056   2.025   4.814  13.903 -1.5954  0.2954 -0.3666
14855TIP3    H266057   1.968   4.704  13.989  0.5093 -1.0748 -0.6347
14856TIP3   OH266058   5.875   0.419  15.889  0.0196 -0.1066  0.4535
14856TIP3    H166059   5.810   0.381  15.830  0.7500  1.1249 -1.2374
14856TIP3    H266060   5.889   0.507  15.855  1.7081  0.0669  1.4741
14857TIP3   OH266061   3.984   1.191   3.008 -0.4337 -0.1210 -0.3237
14857TIP3    H166062   3.954   1.101   3.021  1.5571 -0.8260 -0.2830
14857TIP3    H266063   3.923   1.244   3.060 -0.5900 -1.6245  1.1120
14858TIP3   OH266064   5.850   1.332  14.235 -0.3218 -0.6394 -0.2484
14858TIP3    H166065   5.923   1.338  14.172  0.0060 -0.1607  0.1746
14858TIP3    H266066   5.815   1.244  14.221 -0.5871 -0.3649 -1.4721
14859TIP3   OH266067   3.460   5.082  13.214  0.0223 -0.1340 -0.1422
14859TIP3    H166068   3.539   5.125  13.248  0.4767 -1.8393  1.0772
14859TIP3    H266069   3.408   5.154  13.178  2.1952  1.0172 -1.1955
14860TIP3   OH266070   1.604   3.478   4.301 -0.2723 -0.3503  0.2122
14860TIP3    H166071   1.595   3.409   4.366  3.6598  0.3294  1.7831
14860TIP3    H266072   1.675   3.448   4.244 -0.3542  1.1947 -0.7634
14861TIP3   OH266073   2.802   0.459   4.513 -0.4208  0.3374 -0.7727
14861TIP3    H166074   2.755   0.536   4.483  3.2927  2.6876 -1.2825
14861TIP3    H266075   2.821   0.478   4.605 -0.2748 -0.4243 -0.6419
14862TIP3   OH266076   6.635   2.621  15.429  1.0080  0.1160 -0.1353
14862TIP3    H166077   6.665   2.530  15.425 -0.2363 -0.2728 -1.4641
14862TIP3    H266078   6.701   2.670  15.381  0.0212 -0.6186 -2.3607
14863TIP3   OH266079   0.501   4.938  13.378 -0.6761  0.5591  0.2825
14863TIP3    H166080   0.568   4.912  13.315  0.4565  1.0035  1.2495
14863TIP3    H266081   0.435   4.870  13.373  1.0252 -1.2445  0.9950
14864TIP3   OH266082   0.634   4.832   1.496  0.6151  0.1873 -0.8545
14864TIP3    H166083   0.647   4.757   1.554  1.2587 -0.1434 -1.4242
14864TIP3    H266084   0.545   4.821   1.463  0.5240 -0.0429 -0.5398
14865TIP3   OH266085   4.441   5.045  17.114  0.0489  0.0161 -0.1551
14865TIP3    H166086   4.429   5.042  17.209  2.3351  0.3757  0.2045
14865TIP3    H266087   4.377   4.982  17.079 -1.0156  0.0808  1.5673
14866TIP3   OH266088   0.875   1.673   0.961  0.2055  0.4134 -0.2627
14866TIP3    H166089   0.959   1.638   0.991 -0.3347 -2.4489 -1.8507
14866TIP3    H266090   0.897   1.761   0.930  2.0592  0.7882  1.7834
14867TIP3   OH266091   3.666   3.773   1.110  0.1332  0.2523 -0.4393
14867TIP3    H166092   3.593   3.831   1.130  1.5590  1.5406  1.4837
14867TIP3    H266093   3.736   3.832   1.080  0.5246 -0.8973 -1.9294
14868TIP3   OH266094   5.818   3.115  15.197  0.1534 -0.3016  0.2012
14868TIP3    H166095   5.908   3.091  15.176  0.6039  2.2470 -1.1625
14868TIP3    H266096   5.780   3.139  15.112 -1.9469 -1.6042  0.6993
14869TIP3   OH266097   1.021   3.120  11.777  0.0600  0.2522 -0.3143
14869TIP3    H166098   0.973   3.091  11.700  0.3681 -0.5114 -0.2306
14869TIP3    H266099   0.955   3.160  11.833 -0.8067 -2.1260  0.4821
14870TIP3   OH266100   3.125   0.225  16.474 -0.0260  0.1152 -0.2395
14870TIP3    H166101   3.206   0.174  16.467 -1.1402 -1.8013  0.2736
14870TIP3    H266102   3.073   0.197  16.399 -0.1542  1.5391 -0.7172
14871TIP3   OH266103   0.125   1.469   3.313  0.3440 -0.0150 -0.8331
14871TIP3    H166104   0.047   1.449   3.365  1.6903  2.3306  2.4033
14871TIP3    H266105   0.108   1.556   3.275  1.0438  0.1708 -0.7497
14872TIP3   OH266106   2.105   4.181  15.829 -0.0964 -0.0966 -0.0702
14872TIP3    H166107   2.098   4.187  15.734 -0.9356 -0.0715 -0.0161
14872TIP3    H266108   2.184   4.130  15.844  0.5272  0.6374 -0.7630
14873TIP3   OH266109   3.318   1.734  12.130 -0.2221  0.2730  0.0718
14873TIP3    H166110   3.372   1.657  12.112 -1.4676 -0.5252 -0.4498
14873TIP3    H266111   3.318   1.783  12.048 -1.8056 -0.7442 -0.5966
14874TIP3   OH266112   3.830   5.084   4.431  0.6234 -0.3484  0.0553
14874TIP3    H166113   3.801   5.105   4.520 -1.5993  1.6690 -1.0197
14874TIP3    H266114   3.870   5.165   4.399 -0.7772 -0.2448 -1.5434
14875TIP3   OH266115   5.956   1.383   4.805 -0.1861 -0.3741  0.2475
14875TIP3    H166116   5.864   1.407   4.815 -0.2558  0.9624 -2.5399
14875TIP3    H266117   5.958   1.288   4.815 -1.7870 -0.3715  0.8132
14876TIP3   OH266118   2.651   0.125  16.290 -0.1891  0.4391 -0.8278
14876TIP3    H166119   2.652   0.220  16.283 -0.6066  0.4455 -0.8296
14876TIP3    H266120   2.597   0.096  16.216 -0.4117  0.2293 -0.5893
14877TIP3   OH266121   2.234   0.808  17.003 -0.4000 -0.0362  0.2516
14877TIP3    H166122   2.195   0.892  17.028  0.6596  0.9210 -1.1438
14877TIP3    H266123   2.176   0.743  17.042 -2.7062  1.3083 -0.6678
14878TIP3   OH266124   4.197   3.689  11.908  0.5385 -0.5453  0.0504
14878TIP3    H166125   4.235   3.604  11.933  0.0160 -0.7352  0.2053
14878TIP3    H266126   4.131   3.667  11.842 -1.1905 -0.5093  1.7105
14879TIP3   OH266127   4.156   2.054   1.468 -0.2431  0.8043 -0.0772
14879TIP3    H166128   4.106   2.040   1.548 -0.6410  1.9330 -0.1091
14879TIP3    H266129   4.218   2.123   1.491  1.8840 -1.0908  0.2022
14880TIP3   OH266130   6.299   1.438  15.603 -0.2179  0.4311  0.6628
14880TIP3    H166131   6.320   1.499  15.673 -0.1966 -1.2320  2.1716
14880TIP3    H266132   6.217   1.471  15.566  0.3428  1.9418  0.7151
14881TIP3   OH266133   5.662   6.552   1.302 -0.2918  0.5719 -0.0884
14881TIP3    H166134   5.715   6.631   1.290 -0.4698  0.7048 -0.0026
14881TIP3    H266135   5.639   6.525   1.213 -0.9424  1.1013 -0.0847
14882TIP3   OH266136   0.128   3.400   1.943 -0.2149 -0.3020  0.0303
14882TIP3    H166137   0.174   3.332   1.893 -0.1230 -0.2280  0.0128
14882TIP3    H266138   0.197   3.443   1.994 -0.1911  0.1029 -0.3338
14883TIP3   OH266139   1.715   1.986  13.659  0.2100 -0.0291  0.2080
14883TIP3    H166140   1.628   2.016  13.683  0.2205  0.2014 -0.0351
14883TIP3    H266141   1.750   1.946  13.739 -1.3399 -3.0886 -0.4939
14884TIP3   OH266142   3.473   2.730  13.589  0.0379 -0.4799  0.1767
14884TIP3    H166143   3.557   2.756  13.628  1.2601 -1.7673 -1.4095
14884TIP3    H266144   3.466   2.637  13.608  0.7083 -1.1734 -2.5270
14885TIP3   OH266145   5.056   0.431   2.891 -0.1190  0.5995 -0.3017
14885TIP3    H166146   5.024   0.497   2.952 -1.8735  1.6984 -2.2774
14885TIP3    H266147   4.980   0.377   2.871  1.0616 -1.5205  0.5182
14886TIP3   OH266148   3.425   2.934   0.091  0.5313 -0.1566  0.2254
14886TIP3    H166149   3.378   2.885   0.022 -0.1252 -1.9173  1.8301
14886TIP3    H266150   3.402   3.025   0.075  0.4554 -0.4980 -1.9179
14887TIP3   OH266151   1.440   6.143   4.043 -0.6672  0.3652 -0.4557
14887TIP3    H166152   1.368   6.126   4.104  1.0356  0.1711  1.6176
14887TIP3    H266153   1.496   6.205   4.090  0.8820 -0.0336 -1.7170
14888TIP3   OH266154   3.272   5.435  15.601 -0.1281 -0.2596 -0.2095
14888TIP3    H166155   3.188   5.479  15.588 -2.1117 -3.5439  0.3534
14888TIP3    H266156   3.306   5.422  15.512  0.4972  2.1237 -0.4013
14889TIP3   OH266157   1.596   5.256  16.682  0.5857  0.3002 -0.0770
14889TIP3    H166158   1.588   5.238  16.588 -0.5614  2.0533 -0.3644
14889TIP3    H266159   1.583   5.351  16.689 -1.4970 -0.0668  2.0818
14890TIP3   OH266160   3.492   3.652   2.608 -0.2291 -0.3587  0.0412
14890TIP3    H166161   3.403   3.617   2.598 -0.3325  0.2962 -1.7326
14890TIP3    H266162   3.538   3.623   2.530  0.5874  0.8231  0.0583
14891TIP3   OH266163   2.819   6.712   2.371 -0.7400  0.0915 -0.0604
14891TIP3    H166164   2.883   6.752   2.312 -0.6079  0.4974  0.3593
14891TIP3    H266165   2.768   6.654   2.314 -1.4960  1.5021 -0.8583
14892TIP3   OH266166   0.830   5.288   2.813 -0.3484 -0.1229  0.4703
14892TIP3    H166167   0.896   5.219   2.813  0.4339  0.5297 -1.9107
14892TIP3    H266168   0.757   5.252   2.863  0.6735 -2.0049  0.6864
14893TIP3   OH266169   6.343   2.725   2.336  0.2458  0.4555  0.2671
14893TIP3    H166170   6.417   2.717   2.396 -0.0740  0.0720  0.6149
14893TIP3    H266171   6.271   2.759   2.389  0.6141  2.4832 -0.4334
14894TIP3   OH266172   2.701   1.268  13.553  0.0479 -0.0304  0.0114
14894TIP3    H166173   2.651   1.276  13.472 -0.9511 -2.5448  0.2799
14894TIP3    H266174   2.792   1.283  13.527 -0.5252  1.9460 -1.0024
14895TIP3   OH266175   5.305   6.717  11.375 -0.3594  0.2686 -0.5553
14895TIP3    H166176   5.309   6.672  11.291 -3.2436  0.6066 -0.9625
14895TIP3    H266177   5.245   6.790  11.361 -0.4376  0.7021  1.6464
14896TIP3   OH266178   3.019   6.543  15.346 -0.0689 -0.1075  0.1057
14896TIP3    H166179   2.979   6.473  15.296 -0.9327 -0.2923  1.0281
14896TIP3    H266180   2.946   6.586  15.390  0.6279  0.2944  0.8958
14897TIP3   OH266181   4.127   3.410   2.291  0.0295  0.1052 -0.2048
14897TIP3    H166182   4.187   3.345   2.327 -1.4487 -0.4152  1.5004
14897TIP3    H266183   4.086   3.365   2.216 -0.5265 -0.7347  0.5808
14898TIP3   OH266184   6.592   5.603  10.954  0.0172 -0.2208 -0.1743
14898TIP3    H166185   6.545   5.589  10.871 -0.5803  0.0891  0.0988
14898TIP3    H266186   6.675   5.642  10.928  0.1780 -0.8873 -0.6842
14899TIP3   OH266187   5.227   1.137  11.316 -0.5258  0.8669 -0.4298
14899TIP3    H166188   5.257   1.132  11.407 -0.2075 -0.2736 -0.5783
14899TIP3    H266189   5.296   1.186  11.271  0.9266 -1.2121 -0.6484
14900TIP3   OH266190   3.629   0.937  15.040  0.4256 -0.1146  0.4541
14900TIP3    H166191   3.624   0.886  15.121 -0.1571  0.4531  0.7889
14900TIP3    H266192   3.621   0.873  14.970  0.1325 -0.5298  0.8614
14901TIP3   OH266193   0.491   3.321  14.810 -0.2281  0.3075  0.4158
14901TIP3    H166194   0.555   3.339  14.879 -0.5983  0.8139  0.6344
14901TIP3    H266195   0.544   3.296  14.734  0.3666  2.5058  0.0275
14902TIP3   OH266196   0.576   6.687  14.063 -0.5715  0.4481 -0.4983
14902TIP3    H166197   0.519   6.726  13.996  0.3396 -0.6554 -1.9683
14902TIP3    H266198   0.561   6.593  14.056  0.7077  0.2062 -0.2315
14903TIP3   OH266199   2.406   4.121   3.429 -0.2271 -0.2346  1.0616
14903TIP3    H166200   2.368   4.049   3.378  0.6023 -0.4180  0.6926
14903TIP3    H266201   2.382   4.200   3.380 -0.3006 -0.3327  0.9384
14904TIP3   OH266202   6.657   6.115   6.218  0.2124  0.2947 -0.7720
14904TIP3    H166203   6.678   6.025   6.243  1.7440  0.2613 -2.0469
14904TIP3    H266204   6.656   6.114   6.123 -4.0788  0.7138 -0.9335
14905TIP3   OH266205   4.941   6.112   4.085 -0.0939  0.0672  0.4057
14905TIP3    H166206   4.972   6.097   4.175  0.9729 -0.7806 -0.0767
14905TIP3    H266207   4.857   6.066   4.080  2.2287 -4.6605 -0.4949
14906TIP3   OH266208   1.202   3.184   1.154  0.0664  0.5451 -0.7582
14906TIP3    H166209   1.242   3.108   1.112 -0.5269  0.8139 -1.8710
14906TIP3    H266210   1.151   3.225   1.084 -0.6582  1.2386  0.1567
14907TIP3   OH266211   6.108   5.592  11.914 -0.2464  0.1904 -0.0518
14907TIP3    H166212   6.109   5.579  12.008 -0.4169  1.5335  0.1576
14907TIP3    H266213   6.018   5.614  11.893  0.1918  2.1216 -0.1521
14908TIP3   OH266214   1.832   5.477  12.324 -0.3702  0.0409  0.3255
14908TIP3    H166215   1.786   5.411  12.271 -0.1496 -0.4197  0.7031
14908TIP3    H266216   1.776   5.488  12.401 -0.2461  0.0608  0.4126
14909TIP3   OH266217   4.209   5.487  11.001 -0.3835  0.3161 -0.1212
14909TIP3    H166218   4.274   5.547  11.037 -0.3000  0.3912 -0.3989
14909TIP3    H266219   4.136   5.490  11.063  0.5808 -1.0896  1.1500
14910TIP3   OH266220   0.115   5.482  12.203 -0.5588 -0.6795 -0.0030
14910TIP3    H166221   0.115   5.556  12.143  1.5358 -0.3776  0.2851
14910TIP3    H266222   0.045   5.502  12.265 -1.3804  0.0190 -1.1231
14911TIP3   OH266223   5.513   5.831   2.837 -0.0552  0.2717  0.3668
14911TIP3    H166224   5.607   5.815   2.853 -0.0435 -0.1260 -0.0771
14911TIP3    H266225   5.474   5.743   2.839 -0.3334  0.3866 -0.0105
14912TIP3   OH266226   5.561   5.851  11.545 -0.0816  0.2801 -0.2504
14912TIP3    H166227   5.543   5.810  11.460  1.4497  0.3885 -0.6598
14912TIP3    H266228   5.475   5.883  11.575 -1.2986 -2.8072 -0.0839
14913TIP3   OH266229   0.431   2.829   2.183  0.5895  0.3613 -0.2717
14913TIP3    H166230   0.453   2.813   2.091  1.0788  2.5358 -0.6030
14913TIP3    H266231   0.438   2.924   2.193  0.6280  0.1832  2.0458
14914TIP3   OH266232   0.306   0.569   2.306  0.0816  0.4975  0.5245
14914TIP3    H166233   0.340   0.567   2.217  0.5808  1.2913  0.6794
14914TIP3    H266234   0.383   0.580   2.361  0.5105 -4.9893  1.5733
14915TIP3   OH266235   1.129   0.039   2.265 -0.2104 -0.0280  0.0256
14915TIP3    H166236   1.124  -0.051   2.232 -0.2904 -0.0794  0.1780
14915TIP3    H266237   1.053   0.083   2.226  0.1616  0.1341 -0.5317
14916TIP3   OH266238   3.175   6.162   5.462  0.1429  0.3595  0.2748
14916TIP3    H166239   3.132   6.121   5.387  0.8361 -1.9139  1.0616
14916TIP3    H266240   3.244   6.216   5.422 -0.3734  0.2763 -0.7740
14917TIP3   OH266241   2.860   5.708   3.689  0.2110  0.2802 -0.1753
14917TIP3    H166242   2.775   5.747   3.668  0.1648  1.3740  1.7944
14917TIP3    H266243   2.915   5.782   3.714  1.5496 -0.4910 -0.7361
14918TIP3   OH266244   6.183   1.445   1.289  0.5531  0.7796 -0.4135
14918TIP3    H166245   6.096   1.470   1.321 -0.8976 -2.9228 -0.8665
14918TIP3    H266246   6.242   1.470   1.360 -1.2828  1.0616  1.1254
14919TIP3   OH266247   6.275   0.525  12.613  0.1799 -0.0898  0.0412
14919TIP3    H166248   6.352   0.546  12.560  0.4609 -1.0052  0.0804
14919TIP3    H266249   6.309   0.475  12.687 -0.3822  0.0263  0.3813
14920TIP3   OH266250   3.766   2.859   4.552  0.1483 -0.1024 -0.3629
14920TIP3    H166251   3.849   2.822   4.524  0.1449 -0.5672  0.2360
14920TIP3    H266252   3.751   2.824   4.640  0.8506  2.4388  0.8652
14921TIP3   OH266253   2.064   4.397   5.242  0.0072  0.3842  0.7674
14921TIP3    H166254   2.060   4.320   5.298  1.2526 -0.4851 -0.2616
14921TIP3    H266255   2.149   4.437   5.262 -0.1131  0.8076  0.4550
14922TIP3   OH266256   3.807   3.202  12.605  0.4298 -0.2082 -0.3037
14922TIP3    H166257   3.777   3.116  12.577 -0.8674 -0.0589  0.5667
14922TIP3    H266258   3.861   3.185  12.682  1.3902 -0.3482 -0.9908
14923TIP3   OH266259   1.646   1.297   1.841 -0.3657 -0.0117 -0.7801
14923TIP3    H166260   1.584   1.272   1.909 -0.6152 -1.4943 -1.5278
14923TIP3    H266261   1.727   1.315   1.889 -0.5170 -1.1043 -0.0857
14924TIP3   OH266262   6.158   0.851   3.230  0.3125 -0.5472  0.1213
14924TIP3    H166263   6.222   0.854   3.159 -1.7838  0.2408 -1.8493
14924TIP3    H266264   6.193   0.911   3.296  0.7619  1.3569 -1.7273
14925TIP3   OH266265   3.626   6.051   1.491  0.2221 -0.0972 -0.0008
14925TIP3    H166266   3.531   6.053   1.500  0.0253  0.9536 -1.8997
14925TIP3    H266267   3.644   5.975   1.436  0.3065  0.7558 -1.1735
14926TIP3   OH266268   0.659   2.495   0.917 -0.2575  0.3010  0.3314
14926TIP3    H166269   0.615   2.464   0.997 -0.2132 -1.2453 -0.2053
14926TIP3    H266270   0.605   2.462   0.846 -0.7521  2.3760 -0.3209
14927TIP3   OH266271   3.259   1.977  17.027 -0.5691 -0.0809 -0.2584
14927TIP3    H166272   3.197   1.962  16.956  0.7150  1.8592 -1.8937
14927TIP3    H266273   3.292   2.065  17.012  0.0308  0.2713  2.5825
14928TIP3   OH266274   1.417   0.274   3.457 -0.0994 -0.7738 -0.2436
14928TIP3    H166275   1.328   0.264   3.425  0.1629 -0.8503 -0.9609
14928TIP3    H266276   1.442   0.186   3.486 -0.2201 -0.7724 -0.1344
14929TIP3   OH266277   2.991   5.966  16.226  0.1284 -0.0105 -0.6070
14929TIP3    H166278   2.911   5.946  16.178  1.2752 -1.3479 -2.0979
14929TIP3    H266279   3.059   5.919  16.178  1.1425 -3.2820  3.4858
14930TIP3   OH266280   4.827   4.174   9.980 -0.1804 -0.5504 -0.1763
14930TIP3    H166281   4.915   4.180  10.017 -0.3549 -1.6116  0.4293
14930TIP3    H266282   4.819   4.253   9.926  0.8180  0.0084  0.4519
14931TIP3   OH266283   2.159   2.820   2.278 -0.8713 -0.2324  0.2317
14931TIP3    H166284   2.188   2.765   2.350 -2.3930  0.7252  1.6451
14931TIP3    H266285   2.132   2.758   2.210  0.1486 -1.1560  0.6372
14932TIP3   OH266286   5.711   2.082  14.026 -0.0457  0.0978 -0.3214
14932TIP3    H166287   5.730   2.059  13.935 -0.9172  0.7365 -0.6761
14932TIP3    H266288   5.691   1.998  14.068  2.8778 -0.5729 -0.0360
14933TIP3   OH266289   1.551   1.582  11.810  0.0406  0.4477 -0.0901
14933TIP3    H166290   1.646   1.586  11.824  0.4594 -0.1766 -2.3189
14933TIP3    H266291   1.528   1.667  11.774  0.0939  0.0239 -1.1666
14934TIP3   OH266292   3.852   6.128  11.756 -0.7227  0.2373 -0.8146
14934TIP3    H166293   3.782   6.142  11.693 -0.8269 -0.8172 -0.9486
14934TIP3    H266294   3.881   6.038  11.741 -1.2529 -0.2960  1.1201
14935TIP3   OH266295   3.403   5.838   4.112 -0.3936 -0.5048 -0.5198
14935TIP3    H166296   3.313   5.863   4.092 -0.1233 -0.5355 -1.8463
14935TIP3    H266297   3.442   5.917   4.149 -0.1485  0.4708 -2.6946
14936TIP3   OH266298   0.293   2.173   1.965  0.3988 -0.2853  0.1709
14936TIP3    H166299   0.358   2.105   1.950 -0.8919 -1.3212 -0.9700
14936TIP3    H266300   0.210   2.135   1.936 -0.4474  1.6295 -0.1340
14937TIP3   OH266301   3.291   4.209  16.893 -0.6995 -0.2856 -0.6089
14937TIP3    H166302   3.303   4.273  16.963  0.8258  0.4261 -1.4681
14937TIP3    H266303   3.317   4.126  16.932  3.5107  0.5444 -1.1029
14938TIP3   OH266304   5.728   1.636  11.820 -0.1881 -0.1792  0.0402
14938TIP3    H166305   5.743   1.730  11.810  0.1535  0.2189  3.2089
14938TIP3    H266306   5.634   1.628  11.837  0.0447 -0.1526  1.4782
14939TIP3   OH266307   0.050   3.483  12.319  0.0235  0.4400  0.0736
14939TIP3    H166308   0.024   3.573  12.336  1.2899  0.8667 -0.1310
14939TIP3    H266309   0.011   3.433  12.390  0.6583  1.3909  1.1233
14940TIP3   OH266310   1.948   6.738   0.851 -0.6753 -0.2804 -0.0059
14940TIP3    H166311   1.887   6.811   0.840 -1.7474 -1.1790 -0.2522
14940TIP3    H266312   1.926   6.702   0.937 -0.5869 -0.6920 -0.1529
14941TIP3   OH266313   2.274   3.256   0.125 -0.0459  0.0531  0.5574
14941TIP3    H166314   2.202   3.290   0.178 -0.2780 -0.3746  0.5226
14941TIP3    H266315   2.285   3.320   0.055  1.2374  1.4083  1.9071
14942TIP3   OH266316   4.822   3.864  12.782  0.5587 -0.1580 -0.3440
14942TIP3    H166317   4.733   3.829  12.784  1.3403 -2.3030  1.4497
14942TIP3    H266318   4.838   3.895  12.871  1.1820  1.4876 -0.9879
14943TIP3   OH266319   0.262   6.422  13.433 -0.6509  0.8393  0.2084
14943TIP3    H166320   0.189   6.479  13.410  0.0173  1.8528  0.5539
14943TIP3    H266321   0.257   6.350  13.369 -2.3167  0.5420  0.6094
14944TIP3   OH266322   5.496   0.278   2.050  0.4920 -0.5711 -0.4173
14944TIP3    H166323   5.457   0.211   1.995  1.0522 -0.7924 -0.5518
14944TIP3    H266324   5.433   0.349   2.050  0.2025 -0.8256 -0.8289
14945TIP3   OH266325   1.591   6.187  13.956 -0.0262 -0.2227 -0.0391
14945TIP3    H166326   1.665   6.247  13.952 -0.7310  0.5917 -1.6682
14945TIP3    H266327   1.622   6.114  14.010  0.0633  2.6165  4.2201
14946TIP3   OH266328   6.027   5.884   0.579 -0.2522  0.1678  0.1860
14946TIP3    H166329   5.947   5.851   0.537 -0.9527 -0.0349  1.6129
14946TIP3    H266330   6.051   5.815   0.641 -0.3752  1.2891  1.5221
14947TIP3   OH266331   3.985   1.247  12.363  0.9459  0.0652  0.5263
14947TIP3    H166332   3.928   1.172  12.346 -1.2247  0.6694  4.1334
14947TIP3    H266333   4.058   1.236  12.302 -0.7424 -3.2946 -1.1536
14948TIP3   OH266334   5.669   5.330  14.881  0.4467 -0.2629 -0.3310
14948TIP3    H166335   5.642   5.341  14.789 -0.3017  0.4199 -0.0429
14948TIP3    H266336   5.739   5.265  14.878  2.0954  1.4484 -1.6910
14949TIP3   OH266337   4.189   6.247   0.525 -0.0800  0.1923  0.0593
14949TIP3    H166338   4.248   6.236   0.451 -0.7374 -1.6083 -0.2531
14949TIP3    H266339   4.247   6.250   0.601  0.4483 -1.7418 -0.2228
14950TIP3   OH266340   5.743   0.827  16.527  0.0743  0.2407 -0.2704
14950TIP3    H166341   5.761   0.870  16.610 -1.3222 -0.4131  0.4153
14950TIP3    H266342   5.796   0.747  16.528  1.0207  0.8467 -0.5923
14951TIP3   OH266343   2.940   6.311  14.264 -0.7467  0.5430 -0.2109
14951TIP3    H166344   3.003   6.352  14.324 -0.1658  0.2942 -0.6449
14951TIP3    H266345   2.854   6.330  14.303 -0.3451 -0.4635  1.2621
14952TIP3   OH266346   1.869   4.897  12.179 -0.2142  0.1324  0.1432
14952TIP3    H166347   1.938   4.840  12.212 -0.2429  0.1806  0.2858
14952TIP3    H266348   1.799   4.890  12.244 -0.7814 -0.7555 -0.5278
14953TIP3   OH266349   4.290   5.038  15.293 -0.1505 -0.1646  0.2481
14953TIP3    H166350   4.341   5.067  15.368  0.9139 -1.6154  0.1163
14953TIP3    H266351   4.205   5.014  15.329  0.1252 -0.1982  0.8821
14954TIP3   OH266352   4.958   1.562  12.344  0.2545 -0.5329 -0.0309
14954TIP3    H166353   4.896   1.608  12.287  0.6395  0.6588  0.5001
14954TIP3    H266354   5.037   1.555  12.291  0.9651  1.5163  0.6813
14955TIP3   OH266355   2.644   2.463  14.184  0.1657  0.3478 -0.0927
14955TIP3    H166356   2.591   2.388  14.212 -1.3541  0.3919 -2.5695
14955TIP3    H266357   2.695   2.487  14.262 -1.6107 -1.2852  1.6840
14956TIP3   OH266358   3.026   2.748  15.146 -0.3940 -0.6031 -0.2517
14956TIP3    H166359   3.091   2.681  15.166  2.5094  2.1112  0.1558
14956TIP3    H266360   3.023   2.750  15.050  1.5775  0.4207 -0.3381
14957TIP3   OH266361   1.165   5.996   0.838  0.0120  0.3669 -0.3221
14957TIP3    H166362   1.177   6.089   0.854 -0.3376  0.4426 -0.4908
14957TIP3    H266363   1.198   5.982   0.749 -0.5734  0.4604 -0.5555
14958TIP3   OH266364   4.037   5.054  11.482 -0.2691 -0.4306 -0.2033
14958TIP3    H166365   3.955   5.047  11.433 -0.5078  1.0744 -0.0604
14958TIP3    H266366   4.011   5.055  11.574 -0.3116  1.9116 -0.1776
14959TIP3   OH266367   4.496   2.222  15.336 -0.1718 -0.1391  0.0728
14959TIP3    H166368   4.548   2.302  15.330  1.7333 -1.3384 -0.1556
14959TIP3    H266369   4.477   2.199  15.245 -0.6528 -0.0003  0.1357
14960TIP3   OH266370   4.135   4.751  10.094  0.2724 -0.6438  0.1475
14960TIP3    H166371   4.082   4.785  10.022  0.6948 -2.8207 -1.2813
14960TIP3    H266372   4.164   4.829  10.141 -1.2695  0.7743 -1.1258
14961TIP3   OH266373   4.802   6.263  15.457 -0.1205 -0.2439 -0.3321
14961TIP3    H166374   4.743   6.219  15.518 -1.5014  0.0099 -1.4435
14961TIP3    H266375   4.773   6.354  15.458  0.7489  0.0460 -0.3544
14962TIP3   OH266376   1.036   2.023  15.398  0.0288  0.0866 -0.1085
14962TIP3    H166377   1.027   1.957  15.467  2.6837 -0.3153 -0.0459
14962TIP3    H266378   0.948   2.058  15.387 -0.5424  0.1366  3.4672
14963TIP3   OH266379   4.754   4.467  15.625  0.5189 -0.1401 -0.1874
14963TIP3    H166380   4.802   4.512  15.694 -0.1017  0.1533  0.0608
14963TIP3    H266381   4.819   4.453  15.555  0.8282  0.7340 -0.0853
14964TIP3   OH266382   2.367   0.940   0.387 -0.1361 -0.5299  0.0951
14964TIP3    H166383   2.334   0.994   0.315  0.8357 -0.6873 -0.4948
14964TIP3    H266384   2.461   0.960   0.390 -0.0546 -0.9865  0.9306
14965TIP3   OH266385   0.938   0.445   4.009 -0.2575 -0.5567 -0.4838
14965TIP3    H166386   0.968   0.507   4.075 -1.0824 -1.2325  0.5586
14965TIP3    H266387   1.002   0.374   4.011 -0.8129 -1.0555  0.3338
14966TIP3   OH266388   5.454   5.155   6.260 -0.3065  0.4128 -0.7847
14966TIP3    H166389   5.488   5.231   6.307 -0.7075 -0.1733  0.5038
14966TIP3    H266390   5.531   5.115   6.219  0.5603 -0.6682  1.7362
14967TIP3   OH266391   3.819   2.009   4.636 -0.1813  0.2575 -0.6169
14967TIP3    H166392   3.901   1.961   4.646 -0.4577 -0.5921 -2.1451
14967TIP3    H266393   3.842   2.100   4.655  0.9278 -0.0953 -0.2082
14968TIP3   OH266394   3.469   2.078   5.934 -0.1026 -0.0171  0.1046
14968TIP3    H166395   3.404   2.142   5.906  0.5749  0.9654  0.7288
14968TIP3    H266396   3.444   2.055   6.023 -0.4189 -0.7461 -0.1594
14969TIP3   OH266397   5.552   1.110   1.202 -0.3848  0.2297  0.1941
14969TIP3    H166398   5.602   1.061   1.136 -1.3225 -0.9749  0.3489
14969TIP3    H266399   5.620   1.151   1.257  0.4248 -0.3797 -0.3218
14970TIP3   OH266400   1.635   1.919   1.955 -0.2588 -0.4560  0.0213
14970TIP3    H166401   1.705   1.914   2.020 -0.5982  0.4170  0.4637
14970TIP3    H266402   1.674   1.967   1.882 -0.7565  1.2063  0.7924
14971TIP3   OH266403   4.602   6.108  15.612  0.4572 -0.2720  0.1099
14971TIP3    H166404   4.577   6.104  15.704 -0.2217  1.0703  0.0051
14971TIP3    H266405   4.524   6.081  15.564  0.8026 -0.9500 -0.0851
14972TIP3   OH266406   2.783   5.046   0.218 -0.2212 -0.1628  0.6786
14972TIP3    H166407   2.694   5.041   0.183  0.2193 -1.2696 -0.3378
14972TIP3    H266408   2.776   5.105   0.293 -1.8675 -0.4582  0.7897
14973TIP3   OH266409   5.729   0.205   2.440 -0.1561 -0.5370 -0.1689
14973TIP3    H166410   5.644   0.172   2.412 -0.0019 -0.4864 -0.6968
14973TIP3    H266411   5.722   0.210   2.536 -0.4753 -1.2903 -0.1468
14974TIP3   OH266412   5.101   6.500  14.415 -0.1620 -0.6473 -0.5954
14974TIP3    H166413   5.027   6.524  14.471  1.2300 -1.4185  1.7187
14974TIP3    H266414   5.070   6.424  14.366 -1.1974 -0.4419 -0.2795
14975TIP3   OH266415   2.015   6.232   4.423  0.1531  0.3964  0.5218
14975TIP3    H166416   2.021   6.311   4.476  0.0245 -0.0449  1.2089
14975TIP3    H266417   1.932   6.241   4.376  0.9673  1.4901 -0.7838
14976TIP3   OH266418   1.702   4.057   1.665 -0.1082  1.0281  0.1260
14976TIP3    H166419   1.750   4.042   1.746  1.5703  0.5343 -0.9172
14976TIP3    H266420   1.623   4.003   1.674  1.0475 -0.6822  0.6071
14977TIP3   OH266421   3.842   4.176  13.506 -0.4627  0.1165  0.1461
14977TIP3    H166422   3.804   4.245  13.452 -2.0509 -1.2684 -0.6017
14977TIP3    H266423   3.922   4.151  13.461 -2.4176 -1.9700 -2.5755
14978TIP3   OH266424   0.025   3.117  11.909 -0.0799 -0.8514  0.5387
14978TIP3    H166425  -0.006   3.205  11.932 -0.6471 -0.7987 -0.3679
14978TIP3    H266426  -0.053   3.062  11.914 -0.1742 -0.8919 -0.9069
14979TIP3   OH266427   2.430   3.952  15.736 -0.6843  0.3209 -0.0598
14979TIP3    H166428   2.449   4.022  15.672  0.8501 -0.6985 -0.7852
14979TIP3    H266429   2.512   3.941  15.784 -1.1031 -0.5708  0.4660
14980TIP3   OH266430   0.174   6.786  17.153  0.3851  0.4713  0.5460
14980TIP3    H166431   0.122   6.714  17.118  1.2904  0.3518 -0.6392
14980TIP3    H266432   0.225   6.748  17.224  2.2580 -0.6017 -1.2547
14981TIP3   OH266433   0.119   6.310  15.414 -0.0581 -0.0374 -0.3629
14981TIP3    H166434   0.148   6.338  15.501 -0.0432 -0.4520 -0.2324
14981TIP3    H266435   0.200   6.302  15.363 -0.0035 -0.4770 -0.2108
14982TIP3   OH266436   2.365   5.798  15.780  0.1242  0.4349  0.2384
14982TIP3    H166437   2.345   5.843  15.698  0.1936  1.2196  0.6424
14982TIP3    H266438   2.453   5.830  15.804  1.0251 -1.4032 -0.4626
14983TIP3   OH266439   0.901   2.525   4.790  0.2669 -0.0628  0.4209
14983TIP3    H166440   0.920   2.557   4.878 -2.1136  1.0299  0.6053
14983TIP3    H266441   0.917   2.600   4.732 -1.8158  0.4615  0.4318
14984TIP3   OH266442   4.451   4.518   4.308 -0.4145  0.4129  0.3125
14984TIP3    H166443   4.446   4.451   4.377 -1.9286  2.2140  2.0736
14984TIP3    H266444   4.400   4.591   4.342  1.9117  2.8845 -1.1274
14985TIP3   OH266445   6.363   5.152  14.148  0.4826 -0.4406 -0.2042
14985TIP3    H166446   6.408   5.236  14.136 -1.5086  0.9739  1.5120
14985TIP3    H266447   6.312   5.140  14.068 -0.6041  0.9394  0.2481
14986TIP3   OH266448   4.890   0.193   5.054  0.0575 -0.3269  0.4699
14986TIP3    H166449   4.876   0.132   5.127  1.1772 -0.4292  0.6094
14986TIP3    H266450   4.950   0.259   5.089 -1.0194  0.7983  0.2704
14987TIP3   OH266451   4.449   1.349   0.775 -0.4137 -0.0587  0.1306
14987TIP3    H166452   4.383   1.408   0.811 -0.5800 -0.3878  0.3610
14987TIP3    H266453   4.527   1.364   0.828 -0.4210  0.0401  0.1130
14988TIP3   OH266454   5.486   4.033   1.895  0.6094  0.3552  0.1080
14988TIP3    H166455   5.486   4.061   1.986  0.7598 -0.0477  0.2351
14988TIP3    H266456   5.575   4.051   1.864  0.4983  0.6861 -0.0206
14989TIP3   OH266457   4.307   0.820   1.515  0.0637  0.3758 -0.1513
14989TIP3    H166458   4.277   0.898   1.562  1.8697  2.5657 -2.3566
14989TIP3    H266459   4.235   0.799   1.456 -0.0951  0.9199 -0.1541
14990TIP3   OH266460   2.675   6.098   0.436 -0.1834 -0.1594  0.3840
14990TIP3    H166461   2.619   6.100   0.358  0.3856 -1.5555 -0.1047
14990TIP3    H266462   2.749   6.043   0.410  0.9438  0.8615  1.3282
14991TIP3   OH266463   4.539   2.013   1.179  0.2650  1.1801  0.3508
14991TIP3    H166464   4.510   2.079   1.116 -0.5331  0.2562 -0.2632
14991TIP3    H266465   4.623   1.983   1.145 -0.3542  0.3830 -0.5359
14992TIP3   OH266466   2.658   1.241   1.205 -0.1593 -0.0710  0.5055
14992TIP3    H166467   2.661   1.152   1.170  0.6332  0.6600 -1.4261
14992TIP3    H266468   2.576   1.244   1.255 -1.7917 -1.0402 -1.9151
14993TIP3   OH266469   1.538   5.532  12.326  0.1012 -0.2205 -1.2199
14993TIP3    H166470   1.579   5.513  12.410  1.1261 -0.2733 -1.7223
14993TIP3    H266471   1.548   5.627  12.316 -3.0102  0.3768  0.2426
14994TIP3   OH266472   4.396   6.609  15.173 -0.3083  0.1248  0.2532
14994TIP3    H166473   4.410   6.600  15.267  3.9546 -2.1071 -0.3618
14994TIP3    H266474   4.377   6.520  15.142  0.1579  0.4841 -1.1758
14995TIP3   OH266475   4.191   3.547  10.461 -1.0820  0.3023  0.1882
14995TIP3    H166476   4.162   3.536  10.370 -0.5573  1.0323 -0.0817
14995TIP3    H266477   4.205   3.458  10.493  1.0771  0.0488 -1.2380
14996TIP3   OH266478   6.795   6.119   3.548  0.4984  0.1805  0.0722
14996TIP3    H166479   6.726   6.098   3.485 -0.4088  2.9638 -0.0091
14996TIP3    H266480   6.750   6.129   3.631  1.2557 -0.6333  0.5964
14997TIP3   OH266481   3.085   0.108  16.773  0.3004  0.0529 -0.0910
14997TIP3    H166482   3.047   0.099  16.685  2.8584 -1.1174 -1.1822
14997TIP3    H266483   3.083   0.020  16.809  2.2970 -0.1644 -0.3947
14998TIP3   OH266484   4.257   6.540  14.023  0.6702 -0.8156 -0.3302
14998TIP3    H166485   4.297   6.513  13.941 -0.6622 -1.2158 -0.8845
14998TIP3    H266486   4.198   6.612  13.999  0.7533 -0.4989  0.3828
14999TIP3   OH266487   1.060   2.357  14.792 -0.2467 -0.1423 -0.2494
14999TIP3    H166488   1.121   2.414  14.839 -0.3285 -0.3032  0.0513
14999TIP3    H266489   1.116   2.293  14.749 -0.0121  1.1658 -2.0022
15000TIP3   OH266490   6.488   2.514   2.007 -0.2434  0.3866  0.2936
15000TIP3    H166491   6.479   2.488   2.099 -0.9085  0.0762  0.1481
15000TIP3    H266492   6.400   2.504   1.970 -0.2628  1.7084 -0.0730
15001TIP3   OH266493   0.239   1.354  13.615  0.0602 -0.5940  0.4546
15001TIP3    H166494   0.267   1.398  13.695  0.9822  0.3695 -0.3624
15001TIP3    H266495   0.213   1.267  13.643  0.7340 -0.3997  1.7465
15002TIP3   OH266496   2.391   2.554  11.373  0.0049 -0.0801 -0.1475
15002TIP3    H166497   2.455   2.501  11.326  2.5992 -0.6460  3.5877
15002TIP3    H266498   2.429   2.641  11.377 -1.1524  0.4748 -0.7659
15003TIP3   OH266499   4.039   2.220  12.401  0.2080  0.1189  0.0895
15003TIP3    H166500   3.989   2.196  12.479 -0.3683  1.5767  0.2029
15003TIP3    H266501   3.972   2.233  12.333  0.7116 -1.2185 -0.6848
15004TIP3   OH266502   5.012   1.909  12.068 -0.2409  0.5510 -0.1359
15004TIP3    H166503   4.938   1.898  12.127 -0.7568  2.6073 -0.3267
15004TIP3    H266504   4.977   1.957  11.994  0.6200 -1.1298 -1.7236
15005TIP3   OH266505   1.553   5.237   4.636  0.0677  0.0634  0.4110
15005TIP3    H166506   1.477   5.229   4.578 -1.2003 -0.5345  2.0682
15005TIP3    H266507   1.531   5.184   4.712  2.5197 -0.8076  0.6200
15006TIP3   OH266508   2.040   5.804   6.112  0.4202 -0.0026  0.1099
15006TIP3    H166509   1.948   5.831   6.106 -0.0985 -1.3149  1.4423
15006TIP3    H266510   2.088   5.886   6.123 -0.5146  0.7486 -1.1272
15007TIP3   OH266511   5.895   2.250   4.801  0.0481 -0.3207  0.5946
15007TIP3    H166512   5.842   2.201   4.738  1.0749  0.3608 -0.8724
15007TIP3    H266513   5.955   2.186   4.838 -2.5141 -1.3887  3.2379
15008TIP3   OH266514   1.906   3.543  17.056 -0.2866  0.1123  0.3291
15008TIP3    H166515   1.952   3.566  17.137 -0.2169 -0.6064  0.5013
15008TIP3    H266516   1.973   3.549  16.988  0.0512 -0.7913  0.5591
15009TIP3   OH266517   2.448   2.517   6.024 -0.2257  0.1846 -0.5643
15009TIP3    H166518   2.464   2.609   6.044  0.1622  0.1448 -0.6779
15009TIP3    H266519   2.382   2.518   5.956  0.4478  0.4176 -1.2274
15010TIP3   OH266520   1.759   2.396  13.234  0.0245  0.6645 -0.3719
15010TIP3    H166521   1.837   2.342  13.244 -0.7619 -0.4312  0.0293
15010TIP3    H266522   1.714   2.359  13.158  0.5096  2.0949 -1.4024
15011TIP3   OH266523   2.793   2.723   0.715 -0.3714  0.2100  0.5136
15011TIP3    H166524   2.857   2.682   0.656  0.1282  0.5578  0.8041
15011TIP3    H266525   2.798   2.816   0.693  0.7844  0.5336  1.9910
15012TIP3   OH266526   1.711   3.587  13.375 -0.4364  0.5526 -0.4296
15012TIP3    H166527   1.701   3.551  13.463 -1.7260  1.6042 -0.1175
15012TIP3    H266528   1.747   3.674  13.389  1.6734 -0.1314 -1.1219
15013TIP3   OH266529   5.724   0.077  16.620 -0.1622  0.8364  0.3985
15013TIP3    H166530   5.640   0.123  16.613  0.0913  1.6371  1.9822
15013TIP3    H266531   5.782   0.123  16.560 -1.0255 -0.2402 -1.3411
15014TIP3   OH266532   1.722   1.062  14.612  0.3131  0.3869  0.3483
15014TIP3    H166533   1.712   1.155  14.590  0.4402  0.4544  0.5774
15014TIP3    H266534   1.803   1.058  14.663  0.6869  0.0536 -0.2497
15015TIP3   OH266535   3.732   5.137  11.550  0.3935 -0.3527 -0.2240
15015TIP3    H166536   3.776   5.137  11.635  0.3357 -1.9443 -0.1776
15015TIP3    H266537   3.662   5.072  11.559 -1.3158  1.3140 -0.6487
15016TIP3   OH266538   5.575   5.711   3.462  0.5509  0.1184 -0.1782
15016TIP3    H166539   5.655   5.690   3.414  1.1785  1.3938  0.2600
15016TIP3    H266540   5.512   5.644   3.435  0.8636  0.7340 -2.7884
15017TIP3   OH266541   3.346   4.306   5.256 -0.4851  0.3841  0.0652
15017TIP3    H166542   3.349   4.366   5.182  1.1892  2.5456  1.7590
15017TIP3    H266543   3.360   4.220   5.217  0.3980  1.4414 -2.1269
15018TIP3   OH266544   0.956   0.648  15.587 -0.1627  0.0041  0.1143
15018TIP3    H166545   0.876   0.600  15.566 -1.2824  1.9823 -0.3714
15018TIP3    H266546   0.995   0.667  15.502 -1.0768  2.0863  0.1104
15019TIP3   OH266547   3.440   1.381  15.092  0.6083 -0.2623 -0.1715
15019TIP3    H166548   3.462   1.292  15.121  1.4880  0.0320  0.0871
15019TIP3    H266549   3.344   1.382  15.088  0.4945 -0.6476  1.6562
15020TIP3   OH266550   3.168   0.411  13.947  0.1685 -0.0377 -0.6032
15020TIP3    H166551   3.127   0.484  13.901  0.0307  0.1653 -0.1677
15020TIP3    H266552   3.258   0.410  13.916  0.0329 -0.0146 -1.0057
15021TIP3   OH266553   4.836   0.419  16.498 -0.2681 -0.3513  0.0872
15021TIP3    H166554   4.816   0.492  16.439  2.3768  0.5240  0.1231
15021TIP3    H266555   4.928   0.398  16.480 -0.4345 -2.4869  1.3830
15022TIP3   OH266556   2.695   0.724  14.834 -0.0496 -0.3633 -0.2095
15022TIP3    H166557   2.712   0.816  14.850 -0.1562 -0.6412  1.7995
15022TIP3    H266558   2.750   0.678  14.898  2.5396 -1.9023 -3.2613
15023TIP3   OH266559   2.322   4.827  12.095  0.0423 -0.2048 -0.2701
15023TIP3    H166560   2.413   4.856  12.086 -0.1404 -0.2195 -2.8818
15023TIP3    H266561   2.270   4.904  12.073 -0.5364 -0.7328 -0.8075
15024TIP3   OH266562   3.197   0.177   0.649 -0.7668 -0.0334  0.0704
15024TIP3    H166563   3.119   0.226   0.675 -0.3631  1.5486 -1.5055
15024TIP3    H266564   3.163   0.099   0.605 -1.4668  0.3531 -0.0966
15025TIP3   OH266565   6.125   6.351   2.748 -0.5489 -0.0919 -0.2389
15025TIP3    H166566   6.201   6.388   2.793  0.9683 -1.0312 -1.8562
15025TIP3    H266567   6.117   6.263   2.783 -1.7311  0.4269  0.8443
15026TIP3   OH266568   3.634   3.189  14.679  0.5828  0.3639 -0.2604
15026TIP3    H166569   3.557   3.145  14.645  0.9127 -0.7825  0.4182
15026TIP3    H266570   3.656   3.255  14.613 -1.2862  1.0956 -0.2048
15027TIP3   OH266571   2.227   6.793   0.926  0.1754 -0.2766  0.0126
15027TIP3    H166572   2.170   6.724   0.892  1.0745 -0.3347 -1.4389
15027TIP3    H266573   2.311   6.750   0.941  0.3954  0.2442  0.2980
15028TIP3   OH266574   1.106   4.885   5.708 -0.3111 -0.3802 -0.2185
15028TIP3    H166575   1.159   4.933   5.771 -2.1417  0.3981  0.8342
15028TIP3    H266576   1.164   4.816   5.674  1.8492  1.4609 -0.4683
15029TIP3   OH266577   6.505   5.015  13.858  0.3250 -0.2059 -0.3830
15029TIP3    H166578   6.467   4.928  13.844 -0.2813 -0.0626  0.3618
15029TIP3    H266579   6.486   5.062  13.776  2.6930 -1.4605 -1.7816
15030TIP3   OH266580   0.791   5.279  14.157 -0.4165 -0.8096 -0.4742
15030TIP3    H166581   0.868   5.310  14.109  0.5760 -0.3320  1.3426
15030TIP3    H266582   0.801   5.184  14.160 -0.2482 -0.8036 -0.8131
15031TIP3   OH266583   2.030   5.315   4.936 -0.0616  0.7147 -0.4633
15031TIP3    H166584   1.977   5.269   5.001  0.1711 -0.6225 -1.1791
15031TIP3    H266585   2.056   5.397   4.980  1.0416 -0.6269  1.5691
15032TIP3   OH266586   3.514   1.492   4.179 -0.0184 -0.6280  0.3902
15032TIP3    H166587   3.606   1.468   4.186 -0.1950 -0.8375  3.4884
15032TIP3    H266588   3.514   1.588   4.174  0.3821 -0.6524 -3.9375
15033TIP3   OH266589   5.903   2.853   0.805  0.7830 -0.8989 -0.0869
15033TIP3    H166590   5.958   2.863   0.728  0.2774  0.2691 -0.3131
15033TIP3    H266591   5.949   2.788   0.859  0.2410 -3.1388 -2.1591
15034TIP3   OH266592   3.948   6.079  13.550 -0.7198  0.1456 -0.2303
15034TIP3    H166593   4.035   6.107  13.580 -0.8397 -1.0890  1.3855
15034TIP3    H266594   3.910   6.034  13.625 -1.5411 -2.0201 -1.8462
15035TIP3   OH266595   6.507   4.292   2.781  0.1995  0.1433  0.2332
15035TIP3    H166596   6.430   4.249   2.818  1.4844 -2.2099  0.3801
15035TIP3    H266597   6.476   4.378   2.756 -2.4592 -0.6778  0.3496
15036TIP3   OH266598   3.213   5.833  15.108 -0.5307  0.0514  0.0290
15036TIP3    H166599   3.216   5.837  15.013  0.9638 -2.0326 -0.0781
15036TIP3    H266600   3.266   5.907  15.137 -2.4832  1.8199 -0.6302
15037TIP3   OH266601   2.621   2.138   3.749 -0.4028  0.1273 -0.3358
15037TIP3    H166602   2.614   2.229   3.721 -0.4936 -0.7251 -3.4907
15037TIP3    H266603   2.715   2.120   3.750 -0.4201  0.0206 -0.5909
15038TIP3   OH266604   5.322   0.097   2.671 -0.0245  0.3650 -0.2946
15038TIP3    H166605   5.230   0.098   2.646  0.2048  1.4620 -1.1536
15038TIP3    H266606   5.331   0.169   2.732  0.1887  0.0016  0.1089
15039TIP3   OH266607   0.895   3.124  10.906 -0.6864  0.2038 -0.6094
15039TIP3    H166608   0.809   3.159  10.881 -1.3442 -1.0622 -0.2373
15039TIP3    H266609   0.934   3.094  10.824 -0.2130  1.5393 -0.8993
15040TIP3   OH266610   2.673   0.458  14.713  0.1034  0.2430  0.0912
15040TIP3    H166611   2.746   0.509  14.680 -1.2829  1.4449 -1.2888
15040TIP3    H266612   2.641   0.507  14.788 -1.7591  2.0248 -1.7348
15041TIP3   OH266613   3.799   2.562  10.866 -0.4141  0.3312  0.2832
15041TIP3    H166614   3.805   2.493  10.931  0.0905  2.0345  2.1461
15041TIP3    H266615   3.753   2.522  10.792  1.2950 -2.4167  0.5975
15042TIP3   OH266616   5.506   4.040  16.231  0.3185  0.0427 -0.5952
15042TIP3    H166617   5.553   4.092  16.166  1.6297  0.6048  0.7443
15042TIP3    H266618   5.414   4.062  16.217  0.6608  0.9471 -1.5616
15043TIP3   OH266619   6.543   6.800   0.569 -0.0511  0.4593  0.3961
15043TIP3    H166620   6.607   6.821   0.502  1.0398 -0.8804  0.9804
15043TIP3    H266621   6.470   6.760   0.522  1.0118 -1.1441  0.0635
15044TIP3   OH266622   0.365   5.009  15.399  0.1490  0.2967 -0.0537
15044TIP3    H166623   0.455   4.978  15.387  0.1179 -0.4443  1.4224
15044TIP3    H266624   0.362   5.038  15.490 -1.5354 -1.1783  0.3962
15045TIP3   OH266625   5.183   4.950   5.245  0.1464 -0.4510 -0.8548
15045TIP3    H166626   5.200   5.044   5.245  1.5447 -0.6716 -0.8649
15045TIP3    H266627   5.112   4.938   5.182 -1.2245  0.7579  0.4160
15046TIP3   OH266628   2.222   4.766   4.531  0.1246  0.6549 -0.7045
15046TIP3    H166629   2.255   4.839   4.478  0.0539  0.3663 -1.1486
15046TIP3    H266630   2.185   4.706   4.468  1.3637 -0.4001 -0.4739
15047TIP3   OH266631   3.072   5.745  16.470 -0.9342  0.5239 -0.0408
15047TIP3    H166632   3.039   5.737  16.380  0.3392 -1.2664 -0.4144
15047TIP3    H266633   3.138   5.814  16.465 -0.3286 -0.0787 -0.6832
15048TIP3   OH266634   3.936   4.978  11.116 -0.0578  0.3473 -0.4727
15048TIP3    H166635   3.876   5.022  11.055  0.4267 -0.8452 -1.8605
15048TIP3    H266636   3.878   4.937  11.181 -0.7307 -0.1972 -1.3930
15049TIP3   OH266637   4.182   2.207  13.763  0.3405  0.1988  0.1535
15049TIP3    H166638   4.169   2.112  13.762  0.6254  0.1496 -1.6813
15049TIP3    H266639   4.277   2.218  13.764  0.3434  0.4355 -1.3082
15050TIP3   OH266640   0.767   6.630  13.289 -0.0316 -0.0268  0.1148
15050TIP3    H166641   0.679   6.658  13.263 -0.9497 -2.7967 -0.1619
15050TIP3    H266642   0.781   6.548  13.241  1.3750 -1.3296  2.5324
15051TIP3   OH266643   0.417   3.904  13.562 -0.3578 -0.6077  0.0361
15051TIP3    H166644   0.478   3.916  13.635  1.8726  0.5386 -1.8506
15051TIP3    H266645   0.467   3.932  13.485 -2.4044 -2.2181 -2.0207
15052TIP3   OH266646   0.133   0.889  14.326  0.0898  0.3663  0.1391
15052TIP3    H166647   0.098   0.907  14.238  1.4086  2.8833  0.0362
15052TIP3    H266648   0.174   0.803  14.318  1.2180  1.0355 -2.1030
15053TIP3   OH266649   5.302   0.349   4.503  0.5731  0.1258  0.2650
15053TIP3    H166650   5.280   0.317   4.415 -0.7567  0.2838  0.5253
15053TIP3    H266651   5.284   0.443   4.499  1.4834  0.3101  0.4130
15054TIP3   OH266652   0.849   5.875   2.999  0.4017  0.1861  0.2618
15054TIP3    H166653   0.939   5.885   3.028  0.9528 -1.9343 -0.4888
15054TIP3    H266654   0.853   5.884   2.903 -0.2726  0.6627  0.2753
15055TIP3   OH266655   1.257   2.059   2.459 -0.1833  0.2672 -0.2818
15055TIP3    H166656   1.324   2.066   2.391  1.2950  1.6745  1.2461
15055TIP3    H266657   1.192   2.126   2.436 -0.8140 -0.6922 -1.4284
15056TIP3   OH266658   5.652   0.808  16.827  0.0434  0.2496 -0.0568
15056TIP3    H166659   5.672   0.902  16.819 -1.0051  0.6087  1.0653
15056TIP3    H266660   5.737   0.766  16.836  0.5364  1.0915 -0.5779
15057TIP3   OH266661   0.720   0.239  15.996 -0.0334  0.2015  0.0679
15057TIP3    H166662   0.714   0.331  15.971  1.4895 -0.2409 -2.1983
15057TIP3    H266663   0.644   0.224  16.053 -1.1552  2.4695 -0.7369
15058TIP3   OH266664   0.867   5.666  11.625  0.3529  0.0077 -1.2320
15058TIP3    H166665   0.899   5.647  11.713  0.0267 -1.1050 -1.3439
15058TIP3    H266666   0.944   5.655  11.569  1.0598  2.6253 -0.9090
15059TIP3   OH266667   6.062   4.526   3.862  0.1712 -0.0227  0.5006
15059TIP3    H166668   6.094   4.594   3.922  1.6964 -1.7498  1.7732
15059TIP3    H266669   6.011   4.467   3.917 -0.2332 -0.5000 -0.3602
15060TIP3   OH266670   5.974   6.778   3.115 -0.1839 -0.0903 -0.0151
15060TIP3    H166671   6.059   6.745   3.144  0.5819  1.3462 -0.5366
15060TIP3    H266672   5.918   6.769   3.191  0.7008 -0.1511  0.6511
15061TIP3   OH266673   4.524   4.973  11.277 -0.2716 -0.2790 -0.2721
15061TIP3    H166674   4.551   5.041  11.216  0.0785 -1.4655 -1.4869
15061TIP3    H266675   4.445   5.007  11.319 -1.3382 -0.0123 -2.4044
15062TIP3   OH266676   4.758   4.208  14.066  0.7320 -0.1719 -0.0466
15062TIP3    H166677   4.781   4.119  14.093 -0.1116 -0.1879  0.6929
15062TIP3    H266678   4.807   4.265  14.126 -0.4068 -0.1931  0.9483
15063TIP3   OH266679   2.227   1.767   5.158 -0.1286 -0.0691  0.7828
15063TIP3    H166680   2.205   1.854   5.193 -0.6945  0.7488 -1.4746
15063TIP3    H266681   2.322   1.761   5.168 -0.0314  0.9844  0.5876
15064TIP3   OH266682   5.601   5.776   1.484 -0.5104  0.3093 -0.0019
15064TIP3    H166683   5.527   5.725   1.450  0.2243 -0.5116 -0.4018
15064TIP3    H266684   5.678   5.723   1.463  0.1423  0.8498  0.9695
15065TIP3   OH266685   5.016   5.810  14.940  0.4234  0.2362  0.0490
15065TIP3    H166686   5.008   5.757  14.861 -0.3279 -0.4061  0.5435
15065TIP3    H266687   5.024   5.746  15.011 -2.7338  0.6647  0.9191
15066TIP3   OH266688   3.039   1.552   5.743  0.3740 -0.1717 -0.4615
15066TIP3    H166689   3.127   1.515   5.758 -0.3650 -2.8887 -2.0689
15066TIP3    H266690   2.981   1.494   5.792 -0.8082 -0.8676 -2.5612
15067TIP3   OH266691   2.104   1.560   5.030 -0.2426  0.0111 -0.2367
15067TIP3    H166692   2.166   1.627   5.059 -0.6643  0.3683 -0.1329
15067TIP3    H266693   2.102   1.569   4.935 -0.3160  0.1717 -0.2221
15068TIP3   OH266694   5.401   4.313  10.214 -0.3618  0.2929 -0.0805
15068TIP3    H166695   5.323   4.356  10.249  0.4724  1.0761  0.8606
15068TIP3    H266696   5.439   4.377  10.154 -0.4017 -0.0660 -0.4951
15069TIP3   OH266697   3.088   3.812   1.363  0.6176  0.2896  0.0469
15069TIP3    H166698   3.184   3.810   1.372  0.8843  0.9543 -2.0790
15069TIP3    H266699   3.071   3.761   1.284 -0.9196 -0.7661  1.0122
15070TIP3   OH266700   0.772   5.416   0.651  0.1124  0.0596 -0.1125
15070TIP3    H166701   0.822   5.496   0.631  1.3889 -0.2339  1.6969
15070TIP3    H266702   0.835   5.345   0.638 -0.0614 -0.3914  1.3420
15071TIP3   OH266703   0.904   4.524  14.661 -0.1044 -0.2056 -0.1743
15071TIP3    H166704   0.941   4.605  14.697 -1.1788 -0.5526  1.8385
15071TIP3    H266705   0.973   4.459  14.673  0.9723  0.4789 -2.3010
15072TIP3   OH266706   2.866   3.095  13.197  0.1665  0.0633  0.4542
15072TIP3    H166707   2.958   3.067  13.200  0.0570 -0.2246  1.5413
15072TIP3    H266708   2.870   3.191  13.206  0.5845  0.6713 -3.9642
15073TIP3   OH266709   4.810   1.211   3.563 -0.0376 -0.4267  0.2812
15073TIP3    H166710   4.722   1.238   3.588 -0.7257 -0.7763 -1.6158
15073TIP3    H266711   4.843   1.283   3.508  1.3391  0.2299  1.8675
15074TIP3   OH266712   6.141   5.303   4.059  0.3793 -0.5338 -0.1888
15074TIP3    H166713   6.167   5.388   4.022  0.3275  1.0624  3.0475
15074TIP3    H266714   6.220   5.270   4.101 -0.3412 -0.4689  1.2928
15075TIP3   OH266715   1.091   1.793   4.792  0.3387  0.3320  0.0213
15075TIP3    H166716   1.124   1.874   4.753 -0.0293  0.7098  0.4873
15075TIP3    H266717   1.005   1.780   4.751  0.3254  0.2640  0.0699
15076TIP3   OH266718   5.727   1.357   5.533 -0.0200 -0.3594 -0.1346
15076TIP3    H166719   5.818   1.334   5.514 -0.7619 -3.3556 -0.5747
15076TIP3    H266720   5.703   1.300   5.607 -1.0508  1.6918  1.2073
15077TIP3   OH266721   6.452   1.334   2.138  0.9561 -0.1990  0.6977
15077TIP3    H166722   6.362   1.323   2.109  0.6843  1.2102  0.9642
15077TIP3    H266723   6.446   1.352   2.231  1.3788  1.5606  0.4118
15078TIP3   OH266724   2.511   6.401  15.236  0.3355 -0.4881 -0.1484
15078TIP3    H166725   2.492   6.370  15.147  0.6872 -2.3269  0.3800
15078TIP3    H266726   2.453   6.350  15.292 -0.0935  0.8605  0.6809
15079TIP3   OH266727   2.145   5.480  12.841  0.1607  0.2292 -0.1190
15079TIP3    H166728   2.196   5.418  12.893 -0.5528 -0.1119  0.1851
15079TIP3    H266729   2.080   5.515  12.902 -1.7424 -1.3661 -1.1169
15080TIP3   OH266730   5.368   0.913   5.540 -0.0324  0.3906 -0.6307
15080TIP3    H166731   5.289   0.870   5.507 -0.6689  1.3095 -0.3493
15080TIP3    H266732   5.336   0.970   5.610  1.0160  0.0635  0.1240
15081TIP3   OH266733   4.438   0.704  10.934  0.1534 -0.3275 -0.3398
15081TIP3    H166734   4.390   0.761  10.874 -0.1246 -0.6873 -0.4635
15081TIP3    H266735   4.483   0.642  10.877 -0.8687 -1.2689 -0.1502
15082TIP3   OH266736   1.624   2.208  13.056  0.2232 -0.2455 -0.1720
15082TIP3    H166737   1.561   2.207  12.984  0.1031 -1.5307 -0.0787
15082TIP3    H266738   1.583   2.154  13.125  0.1726  1.2439  1.0208
15083TIP3   OH266739   0.815   5.580   1.449 -0.4186  0.0489  0.2409
15083TIP3    H166740   0.747   5.641   1.476  0.0640 -0.3424  2.4864
15083TIP3    H266741   0.769   5.497   1.437 -1.0079  0.6561 -2.4545
15084TIP3   OH266742   6.310   2.871  12.820 -0.4299  0.2398 -0.3847
15084TIP3    H166743   6.310   2.951  12.768  0.3589  0.1343 -0.5561
15084TIP3    H266744   6.402   2.845  12.825 -0.3655  0.6720  1.7269
15085TIP3   OH266745   4.105   4.667   0.911  0.4633  0.1376 -0.2308
15085TIP3    H166746   4.198   4.661   0.933  1.6098  2.9740 -3.4862
15085TIP3    H266747   4.071   4.737   0.967  0.4460 -0.3131  0.3401
15086TIP3   OH266748   4.614   3.389  11.906  0.0253 -0.0983 -0.0166
15086TIP3    H166749   4.708   3.384  11.886 -0.1675 -1.4276 -0.7128
15086TIP3    H266750   4.577   3.310  11.868 -0.9948 -0.8716  2.3495
15087TIP3   OH266751   0.894   2.225   5.328  0.5218  0.0682 -0.4836
15087TIP3    H166752   0.879   2.231   5.422  0.6363 -1.1094 -0.3689
15087TIP3    H266753   0.810   2.249   5.288  0.2311 -0.2263 -0.0517
15088TIP3   OH266754   1.533   1.202  15.584  0.1885 -0.3107  0.4118
15088TIP3    H166755   1.575   1.123  15.549  0.5273  1.1204 -2.7509
15088TIP3    H266756   1.440   1.181  15.587  0.2712 -0.8399 -0.4526
15089TIP3   OH266757   3.984   1.428   1.893 -0.0027 -0.0909 -0.6808
15089TIP3    H166758   4.026   1.451   1.976  1.2125 -2.1769 -0.6431
15089TIP3    H266759   3.919   1.362   1.916 -1.1543  0.8303 -1.1705
15090TIP3   OH266760   4.941   4.665   5.629  0.1318 -0.7736  0.1572
15090TIP3    H166761   4.981   4.652   5.543  2.8069  0.9900  0.9886
15090TIP3    H266762   4.857   4.620   5.624 -0.6384  0.7433 -3.9383
15091TIP3   OH266763   0.924   4.868  14.069  0.6318 -0.6626  0.7975
15091TIP3    H166764   0.935   4.784  14.025  1.6871 -0.2672  0.2709
15091TIP3    H266765   0.897   4.929  14.000 -2.6355 -1.0322  1.5939
15092TIP3   OH266766   5.570   2.413   1.612 -0.6329 -0.1615 -0.2978
15092TIP3    H166767   5.530   2.499   1.600 -2.0420 -0.7179  0.2244
15092TIP3    H266768   5.567   2.398   1.706 -0.1220 -0.6623 -0.3561
15093TIP3   OH266769   4.568   2.087   2.827 -0.4369 -0.2376 -0.3915
15093TIP3    H166770   4.625   2.157   2.860 -0.0974 -0.5674 -0.2701
15093TIP3    H266771   4.498   2.133   2.780 -0.9108  0.2304  0.7477
15094TIP3   OH266772   5.674   2.609   2.135  0.3083  0.3823  0.6344
15094TIP3    H166773   5.602   2.594   2.196 -1.6239  1.7202 -1.1656
15094TIP3    H266774   5.698   2.701   2.149  0.9799  0.2309  0.5146
15095TIP3   OH266775   4.563   0.568   4.796  0.3532 -0.5476 -0.0209
15095TIP3    H166776   4.583   0.657   4.825  0.3466 -0.6506  0.3035
15095TIP3    H266777   4.483   0.577   4.745 -1.4772 -0.7823  2.6142
15096TIP3   OH266778   2.620   6.582   2.778  0.1276 -0.1528 -0.0139
15096TIP3    H166779   2.544   6.613   2.828  1.7800  0.3796  2.3569
15096TIP3    H266780   2.682   6.654   2.782  1.5832 -1.3536 -0.0009
15097TIP3   OH266781   1.191   6.836   0.459  0.1431 -0.4397 -0.5143
15097TIP3    H166782   1.239   6.887   0.394  0.8527  2.2733  1.9242
15097TIP3    H266783   1.213   6.745   0.440 -0.5512  0.0920 -4.6350
15098TIP3   OH266784   2.387   3.486   0.381 -0.3835  0.0570  0.2092
15098TIP3    H166785   2.396   3.534   0.298  0.9496  0.1622  0.3968
15098TIP3    H266786   2.474   3.450   0.397 -0.3198  0.9303  2.0925
15099TIP3   OH266787   5.976   1.129   0.528  0.5796 -0.1171 -0.1409
15099TIP3    H166788   5.931   1.165   0.452 -0.0438 -2.1508 -0.7963
15099TIP3    H266789   5.920   1.151   0.602  0.3214  0.4132 -0.4934
15100TIP3   OH266790   6.740   1.754  13.425  0.0610  0.2582  0.2373
15100TIP3    H166791   6.715   1.673  13.380  0.6075 -0.9020  1.9238
15100TIP3    H266792   6.826   1.735  13.462 -0.5471  0.9822  2.1151
15101TIP3   OH266793   3.153   1.072   3.697 -0.1455 -0.0419  0.5982
15101TIP3    H166794   3.238   1.028   3.705  0.0232 -0.5201 -2.4129
15101TIP3    H266795   3.089   1.000   3.695 -0.3795  0.1676  0.5009
15102TIP3   OH266796   3.922   4.369  10.200 -0.2000 -0.5694 -0.0198
15102TIP3    H166797   3.889   4.451  10.165  0.3117 -0.9384 -1.4225
15102TIP3    H266798   3.851   4.307  10.188 -0.1557 -0.6097 -0.0757
15103TIP3   OH266799   1.047   0.884  11.413  0.1711 -0.2378 -0.0321
15103TIP3    H166800   1.031   0.825  11.339  2.0147 -0.3625 -0.3931
15103TIP3    H266801   1.079   0.827  11.483  1.0737  0.1918 -0.0769
15104TIP3   OH266802   4.958   0.064   4.254  0.3264  0.0376 -0.2673
15104TIP3    H166803   4.884   0.031   4.202 -1.4112  2.9813  0.0882
15104TIP3    H266804   4.959   0.158   4.236  2.5380  0.4398  1.5887
15105TIP3   OH266805   2.613   3.604  13.586 -0.4586 -0.4119  0.3445
15105TIP3    H166806   2.635   3.520  13.545  2.7422  0.7336 -0.6023
15105TIP3    H266807   2.632   3.669  13.519 -3.5473  1.1362  0.8149
15106TIP3   OH266808   3.211   1.783  13.594 -0.3747 -0.1837  0.5127
15106TIP3    H166809   3.297   1.782  13.552 -0.2762 -0.5806  0.7201
15106TIP3    H266810   3.180   1.873  13.585  0.2989  0.0894  0.9290
15107TIP3   OH266811   5.275   4.332  16.733 -0.3434 -0.1054 -0.0596
15107TIP3    H166812   5.262   4.405  16.793 -0.9469  1.7582 -2.3037
15107TIP3    H266813   5.369   4.317  16.733 -0.2647  0.3735  0.7762
15108TIP3   OH266814   0.612   0.501  15.990  0.0695  0.4609 -0.4793
15108TIP3    H166815   0.681   0.545  15.940  2.1179 -0.3193  1.4957
15108TIP3    H266816   0.588   0.564  16.058 -0.0472  0.1387 -0.2209
15109TIP3   OH266817   4.683   3.601  12.397 -0.3108  0.1879  0.5148
15109TIP3    H166818   4.662   3.555  12.317 -1.1415 -0.6769  1.2037
15109TIP3    H266819   4.687   3.693  12.372 -0.5378 -0.0761 -0.5147
15110TIP3   OH266820   3.711   1.885   4.405 -0.3728 -0.7624  0.0305
15110TIP3    H166821   3.704   1.954   4.340  1.3332 -1.6777 -1.1822
15110TIP3    H266822   3.757   1.926   4.478 -0.8788 -0.1727  0.0299
15111TIP3   OH266823   5.672   3.933   0.701 -0.0215 -0.0374 -0.1521
15111TIP3    H166824   5.687   3.842   0.674 -1.0659 -0.1039 -0.5604
15111TIP3    H266825   5.601   3.927   0.765 -0.2971  0.5153 -0.4039
15112TIP3   OH266826   2.057   0.533   3.999 -0.7843 -0.1949 -0.2356
15112TIP3    H166827   1.986   0.570   3.946 -3.5803 -2.6322  1.4200
15112TIP3    H266828   2.052   0.581   4.082 -2.4022 -2.0670  0.8301
15113TIP3   OH266829   0.273   5.838   1.104 -0.0368  0.0799  0.3558
15113TIP3    H166830   0.213   5.891   1.156  0.5134  0.8794  0.2026
15113TIP3    H266831   0.342   5.813   1.165 -0.5371 -0.8855  0.5460
15114TIP3   OH266832   2.711   1.767   3.718 -0.0149  0.3629 -0.1817
15114TIP3    H166833   2.646   1.700   3.740  2.1232 -1.8918 -0.1629
15114TIP3    H266834   2.706   1.831   3.789 -1.4770 -0.3134  0.3511
15115TIP3   OH266835   5.890   2.360   2.710 -0.4283  0.6275  0.2593
15115TIP3    H166836   5.898   2.382   2.618 -0.3448  1.0936  0.3781
15115TIP3    H266837   5.795   2.362   2.727 -0.3509  2.4135  0.6332
15116TIP3   OH266838   1.538   6.514   1.550  0.1157  0.0038  0.4410
15116TIP3    H166839   1.510   6.544   1.636 -0.3817  0.1064  0.2437
15116TIP3    H266840   1.568   6.594   1.505 -0.7152  0.1361  0.1053
15117TIP3   OH266841   4.999   6.106  12.263  0.1848  0.1956 -0.6481
15117TIP3    H166842   5.054   6.030  12.243  2.3317  1.1657  1.1113
15117TIP3    H266843   5.056   6.163  12.315 -1.9058  2.2218 -0.4443
15118TIP3   OH266844   3.122   5.916   2.740 -0.5608 -0.7002  0.3222
15118TIP3    H166845   3.151   5.853   2.806 -0.0722 -3.3937 -2.2527
15118TIP3    H266846   3.029   5.898   2.729 -0.6429 -0.2551  0.2737
15119TIP3   OH266847   1.717   4.703  13.224 -0.0295  0.4018  0.0748
15119TIP3    H166848   1.633   4.749  13.229 -0.1383  0.0965  1.7961
15119TIP3    H266849   1.781   4.773  13.212 -0.5159  0.6127 -1.5509
15120TIP3   OH266850   2.510   1.968  16.718 -0.1996  0.1637  0.1034
15120TIP3    H166851   2.549   1.938  16.636 -0.6411  0.7235 -0.3145
15120TIP3    H266852   2.457   2.044  16.694  1.6367  1.9086  1.2718
15121TIP3   OH266853   3.130   6.730   1.477  0.7521  0.1890  0.2678
15121TIP3    H166854   3.105   6.775   1.396 -1.5360 -1.7571 -0.2210
15121TIP3    H266855   3.099   6.640   1.465  1.5300 -0.5023  2.8069
15122TIP3   OH266856   1.345   1.405   1.822 -0.5109  0.9026 -0.3616
15122TIP3    H166857   1.319   1.340   1.756 -0.9828  1.4888 -0.7586
15122TIP3    H266858   1.438   1.421   1.803 -0.3292  0.1910 -0.1207
15123TIP3   OH266859   5.157   6.462   4.399  0.1621 -0.6482  0.0097
15123TIP3    H166860   5.179   6.537   4.343 -3.2039  1.0164  0.6299
15123TIP3    H266861   5.092   6.413   4.349 -1.1359 -0.4469  1.4116
15124TIP3   OH266862   5.290   2.756   2.501  0.4236  0.1476 -0.2113
15124TIP3    H166863   5.222   2.823   2.511 -1.1471 -1.0181 -2.3348
15124TIP3    H266864   5.366   2.804   2.469 -0.3245  1.0983 -0.6133
15125TIP3   OH266865   1.898   2.902  13.285  0.9426 -0.3714 -0.1330
15125TIP3    H166866   1.886   2.813  13.252  1.4599 -0.3426 -0.4160
15125TIP3    H266867   1.819   2.920  13.336  0.5182 -0.7270 -0.6599
15126TIP3   OH266868   5.758   5.522  13.422 -0.5971  0.4643  0.4468
15126TIP3    H166869   5.731   5.559  13.339 -1.7624 -0.1074  0.5509
15126TIP3    H266870   5.847   5.555  13.436 -0.6366  1.0812 -0.6998
15127TIP3   OH266871   5.913   4.011  16.010 -0.7449  0.3618 -0.0715
15127TIP3    H166872   5.970   4.087  16.000 -1.8289  1.3583  0.9291
15127TIP3    H266873   5.826   4.042  15.983 -1.4036 -0.2197  1.2867
15128TIP3   OH266874   5.662   2.213  16.465  0.2084  0.2677 -0.2089
15128TIP3    H166875   5.584   2.187  16.514 -0.5550  1.6041 -0.6621
15128TIP3    H266876   5.732   2.214  16.530 -0.4842  0.5953  0.5455
15129TIP3   OH266877   5.829   3.127   0.819 -0.1863  0.0824  0.7600
15129TIP3    H166878   5.827   3.033   0.834  1.0551 -0.0099  0.4639
15129TIP3    H266879   5.918   3.153   0.842  0.2220  0.7736 -1.3960
15130TIP3   OH266880   3.834   3.828   0.389 -0.2106  0.0382  0.0981
15130TIP3    H166881   3.899   3.759   0.400 -0.0718  0.2322  0.5111
15130TIP3    H266882   3.757   3.797   0.436 -0.7753 -0.6391 -1.2060
15131TIP3   OH266883   4.843   3.980   4.308 -0.5047  0.1216 -0.0134
15131TIP3    H166884   4.770   3.962   4.249 -0.9717  2.0593 -0.0851
15131TIP3    H266885   4.918   3.990   4.250 -0.3113 -1.0315  0.0000
15132TIP3   OH266886   3.876   0.240  13.535 -0.0739 -0.0959  0.2310
15132TIP3    H166887   3.784   0.214  13.543 -0.0406 -0.6211 -0.8867
15132TIP3    H266888   3.874   0.324  13.490 -0.0258  0.1183  0.6273
15133TIP3   OH266889   2.950   0.705  14.373  0.3344  0.2853 -0.0326
15133TIP3    H166890   3.015   0.776  14.372 -1.2178  1.7804 -0.5211
15133TIP3    H266891   2.956   0.666  14.286  2.3160 -1.3351  0.7539
15134TIP3   OH266892   4.053   0.906   2.670  0.2875  0.1060  0.0188
15134TIP3    H166893   4.062   0.969   2.597  1.6962  0.4427  0.4421
15134TIP3    H266894   4.125   0.929   2.729 -0.1812 -0.8728  0.9856
15135TIP3   OH266895   0.401   5.343  12.903  0.2862  0.5995  0.2034
15135TIP3    H166896   0.459   5.416  12.924 -0.0240  1.1431 -0.7332
15135TIP3    H266897   0.419   5.324  12.811  1.9400 -1.9946  0.9694
15136TIP3   OH266898   6.118   0.139  14.386 -0.0882  0.1742  0.3810
15136TIP3    H166899   6.183   0.072  14.365  0.9758  1.2499  0.0474
15136TIP3    H266900   6.116   0.195  14.309 -2.7827 -0.8195 -0.3491
15137TIP3   OH266901   4.703   0.030   1.614  0.5784 -0.6137  0.4296
15137TIP3    H166902   4.653  -0.034   1.564  0.8809 -0.2675 -0.3300
15137TIP3    H266903   4.649   0.109   1.613  1.1911 -0.1932 -0.5201
15138TIP3   OH266904   6.076   3.383  11.377  0.5595 -0.0829 -0.5798
15138TIP3    H166905   6.108   3.420  11.460 -0.5144  0.0042 -0.1927
15138TIP3    H266906   5.983   3.402  11.377  0.2582 -1.4564 -1.0867
15139TIP3   OH266907   2.244   6.315   3.648  0.2520 -0.3014 -0.3627
15139TIP3    H166908   2.222   6.320   3.555 -0.5685  0.5071 -0.1451
15139TIP3    H266909   2.232   6.405   3.680 -4.0280 -1.2687  1.4600
15140TIP3   OH266910   1.313   1.047   5.549  0.5563 -0.3276  0.0053
15140TIP3    H166911   1.343   0.971   5.500  1.4015  0.2138 -0.3472
15140TIP3    H266912   1.351   1.037   5.636  0.9500 -0.1402 -0.1437
15141TIP3   OH266913   1.941   1.539  17.068 -0.2684 -0.3746  0.6537
15141TIP3    H166914   1.986   1.482  17.007 -0.9964 -0.7863  0.4923
15141TIP3    H266915   1.929   1.621  17.020  0.9722  0.0022  0.9632
15142TIP3   OH266916   1.726   6.216  12.281 -0.1233  0.0900 -0.0201
15142TIP3    H166917   1.675   6.274  12.225 -0.2293 -0.1110 -0.1330
15142TIP3    H266918   1.756   6.147  12.223  0.0964  0.0914  0.0924
15143TIP3   OH266919   5.368   3.713  12.672 -0.0150 -0.5037  0.2860
15143TIP3    H166920   5.397   3.798  12.639  0.6718 -0.5379  0.7642
15143TIP3    H266921   5.277   3.706  12.644  0.2461 -0.1019 -0.7140
15144TIP3   OH266922   6.513   3.944  10.535  0.3592 -0.2242 -0.2497
15144TIP3    H166923   6.464   4.023  10.555  1.6712  0.3129  1.0154
15144TIP3    H266924   6.446   3.879  10.511 -0.8075  0.9555 -0.2805
15145TIP3   OH266925   5.843   5.982   0.901 -0.3251 -0.4667 -0.9208
15145TIP3    H166926   5.789   5.944   0.970  0.1663 -0.5872 -0.6000
15145TIP3    H266927   5.793   5.967   0.821 -1.9070  1.4932 -0.3934
15146TIP3   OH266928   0.442   4.310  12.354 -0.0373  0.4000  0.1077
15146TIP3    H166929   0.437   4.369  12.279  1.4727 -0.1247 -0.4499
15146TIP3    H266930   0.418   4.224  12.320 -1.7952  0.5626  0.8204
15147TIP3   OH266931   3.660   4.013  10.795  0.2676  0.0051 -0.0961
15147TIP3    H166932   3.627   3.953  10.861  1.1392  0.9346  1.2423
15147TIP3    H266933   3.723   3.961  10.745 -0.0097 -0.5651  0.1362
15148TIP3   OH266934   5.869   5.909   3.794  0.3631  0.1305  0.4263
15148TIP3    H166935   5.794   5.944   3.744  0.0314 -1.8389 -0.5402
15148TIP3    H266936   5.830   5.845   3.854  1.2927 -1.4219 -0.5629
15149TIP3   OH266937   1.395   5.593   3.507 -0.0004 -0.0719 -0.7473
15149TIP3    H166938   1.481   5.612   3.471 -0.5998  0.4559 -1.9709
15149TIP3    H266939   1.335   5.649   3.458 -1.1350 -0.9626 -0.4477
15150TIP3   OH266940   2.433   5.525  12.214  0.0599  0.2241  0.5725
15150TIP3    H166941   2.508   5.537  12.156 -0.8447  2.7411 -0.1742
15150TIP3    H266942   2.443   5.592  12.282 -1.5119  0.6322  0.4388
15151TIP3   OH266943   3.540   0.867  11.965 -0.0529 -0.3457  0.4619
15151TIP3    H166944   3.495   0.941  12.006 -1.2032 -0.8034  0.0623
15151TIP3    H266945   3.560   0.897  11.877  0.4520 -0.1369  0.6442
15152TIP3   OH266946   4.915   2.660   4.806 -0.0479  0.1505  0.2254
15152TIP3    H166947   4.978   2.602   4.762  0.4399  1.1961 -0.5011
15152TIP3    H266948   4.831   2.638   4.767  0.0794 -0.2962  0.1926
15153TIP3   OH266949   0.408   0.149   1.562 -0.2702  0.1122  0.2893
15153TIP3    H166950   0.364   0.065   1.553  1.7349 -0.8803 -0.9474
15153TIP3    H266951   0.498   0.132   1.533  0.5252  2.3860  1.2192
15154TIP3   OH266952   1.176   4.083   1.138  0.1798  0.4951 -0.0387
15154TIP3    H166953   1.252   4.124   1.097  0.8534 -0.6908 -0.0152
15154TIP3    H266954   1.131   4.155   1.183  0.2919  1.5309 -1.5145
15155TIP3   OH266955   5.794   2.269   5.592  0.5643 -0.4674 -0.6881
15155TIP3    H166956   5.715   2.221   5.566 -1.0027  0.5870  1.6994
15155TIP3    H266957   5.841   2.209   5.649 -0.4162  0.0673  0.7555
15156TIP3   OH266958   2.858   0.747  13.287  0.8461 -0.2860 -0.6098
15156TIP3    H166959   2.864   0.665  13.239 -0.2520 -0.3633 -0.6497
15156TIP3    H266960   2.820   0.809  13.225 -0.6935 -0.4134  0.1580
15157TIP3   OH266961   5.492   3.006   9.978 -0.1408 -0.1498 -0.1182
15157TIP3    H166962   5.502   2.934   9.915 -1.0664 -0.3493 -0.0612
15157TIP3    H266963   5.429   3.065   9.936  0.1756  0.3365  0.0888
15158TIP3   OH266964   3.982   6.540  11.022 -0.4289  0.2814  0.1407
15158TIP3    H166965   3.938   6.501  10.946  1.3225 -0.9296 -0.3299
15158TIP3    H266966   3.918   6.537  11.092 -1.9029  0.8905 -1.1216
15159TIP3   OH266967   2.499   4.883  12.958  0.2262 -0.5409  0.1974
15159TIP3    H166968   2.565   4.820  12.930  0.4546  0.1884 -0.9643
15159TIP3    H266969   2.530   4.968  12.925  0.1722  0.2978  2.1330
15160TIP3   OH266970   0.633   5.695  11.516 -0.5477 -0.1475  0.0346
15160TIP3    H166971   0.718   5.694  11.560  0.5506 -0.5003 -1.9631
15160TIP3    H266972   0.638   5.769  11.455 -1.1679 -0.9038 -0.9876
15161TIP3   OH266973   1.077   1.898  12.923  0.1097  0.1728  0.0760
15161TIP3    H166974   1.076   1.907  13.019  2.0225  1.5224  0.0389
15161TIP3    H266975   0.992   1.930  12.895 -0.9967 -1.4518  1.3783
15162TIP3   OH266976   3.299   5.320  13.118  0.4723 -0.8428 -0.1081
15162TIP3    H166977   3.365   5.388  13.104  0.1793 -0.9731 -2.4377
15162TIP3    H266978   3.254   5.312  13.034 -0.7662 -2.6064  0.6620
15163TIP3   OH266979   0.240   1.404  15.451 -0.5044  0.4950 -0.0748
15163TIP3    H166980   0.221   1.334  15.515 -1.8190  0.9807  0.0951
15163TIP3    H266981   0.197   1.375  15.371 -1.2674  1.2217  0.0674
15164TIP3   OH266982   5.206   5.888  15.778 -0.2955 -0.0408  0.2354
15164TIP3    H166983   5.166   5.914  15.696 -1.2214 -1.4951  0.1928
15164TIP3    H266984   5.143   5.828  15.818  1.6085 -2.1379  0.3504
15165TIP3   OH266985   5.000   0.248  16.135  0.4190 -0.4333 -0.1006
15165TIP3    H166986   4.914   0.211  16.151  0.6253 -0.7823  0.2086
15165TIP3    H266987   5.056   0.212  16.204  1.1550 -1.4156 -1.1677
15166TIP3   OH266988   1.064   4.051  13.586 -0.4478 -0.5360  0.0296
15166TIP3    H166989   1.123   3.977  13.571  1.3623  0.8687 -0.1219
15166TIP3    H266990   1.022   4.066  13.501 -0.4586 -1.0624 -0.0625
15167TIP3   OH266991   2.707   3.778  15.327  0.1467  0.2911  0.3844
15167TIP3    H166992   2.712   3.748  15.418  3.1746  2.2799  1.0229
15167TIP3    H266993   2.661   3.862  15.331  0.8755  0.7107  0.2225
15168TIP3   OH266994   6.185   3.792  13.308  0.0542  0.4691 -0.6140
15168TIP3    H166995   6.254   3.764  13.368 -0.1506  0.4599 -0.3815
15168TIP3    H266996   6.147   3.711  13.275 -0.5855  0.4609  0.1149
15169TIP3   OH266997   0.713   2.656  13.747 -0.0692  0.0037 -0.1593
15169TIP3    H166998   0.738   2.733  13.696 -0.8128  0.8520  0.7108
15169TIP3    H266999   0.626   2.634  13.714 -0.6758  0.7275  0.8876
15170TIP3   OH267000   3.123   3.757  11.703  0.7790 -0.4034  0.2860
15170TIP3    H167001   3.040   3.757  11.751 -0.7507  1.9548 -2.0520
15170TIP3    H267002   3.122   3.675  11.654 -0.7008  0.0093 -0.4376
15171TIP3   OH267003   2.193   1.428   4.120 -0.1048 -0.1814 -0.3428
15171TIP3    H167004   2.233   1.345   4.094  1.9877  0.6082  0.1747
15171TIP3    H267005   2.122   1.403   4.180  1.4910 -1.5552  1.0645
15172TIP3   OH267006   3.985   4.008  16.285 -0.6314  0.4940  0.4438
15172TIP3    H167007   3.932   3.958  16.222  0.6689  0.5169 -0.7162
15172TIP3    H267008   3.972   4.099  16.260  2.0539  0.4204 -1.7281
15173TIP3   OH267009   3.646   2.147  16.293 -0.1500 -0.6873  1.1135
15173TIP3    H167010   3.699   2.099  16.357  0.5098  0.7877  1.7035
15173TIP3    H267011   3.681   2.236  16.294  0.2389 -0.7088 -1.6610
15174TIP3   OH267012   6.148   0.412   5.123 -0.2522 -0.2605 -0.8235
15174TIP3    H167013   6.077   0.403   5.059 -0.9470 -0.9306  0.0109
15174TIP3    H267014   6.206   0.338   5.105 -0.4301 -0.4293 -0.7096
15175TIP3   OH267015   2.912   2.911  15.788 -0.0267 -0.2299  0.5165
15175TIP3    H167016   2.843   2.845  15.787  0.3261 -0.6483  1.6565
15175TIP3    H267017   2.933   2.921  15.881  0.0600  1.3548  0.3416
15176TIP3   OH267018   5.439   4.632  11.863 -0.0032 -0.0696  0.0694
15176TIP3    H167019   5.358   4.585  11.841  0.1901 -0.3134 -0.1187
15176TIP3    H267020   5.432   4.715  11.816  0.2861 -0.4770 -0.7116
15177TIP3   OH267021   2.586   6.689  13.437 -0.5446 -0.7285  0.3443
15177TIP3    H167022   2.626   6.633  13.504 -0.8452 -1.6536 -0.2352
15177TIP3    H267023   2.560   6.767  13.485 -0.4756 -1.2441  1.2558
15178TIP3   OH267024   6.760   0.265  12.035 -0.2382 -0.1089 -0.0311
15178TIP3    H167025   6.824   0.335  12.044 -0.7210  0.3609 -0.1929
15178TIP3    H267026   6.776   0.208  12.110  0.8296 -0.3836 -0.4595
15179TIP3   OH267027   2.581   0.305  11.767 -0.3598  0.0093 -0.4870
15179TIP3    H167028   2.595   0.216  11.798 -1.4455  0.1809  0.5823
15179TIP3    H267029   2.640   0.314  11.692 -0.3976 -1.6722 -0.7536
15180TIP3   OH267030   0.798   3.136  13.362 -0.1275 -0.4359 -0.0474
15180TIP3    H167031   0.840   3.072  13.304 -0.5074 -1.2217  0.5243
15180TIP3    H267032   0.871   3.184  13.401  0.1531 -0.3590 -0.6596
15181TIP3   OH267033   4.256   5.026  12.034  0.2034 -0.0549  0.5209
15181TIP3    H167034   4.170   5.066  12.024  0.0264 -0.1450  1.5698
15181TIP3    H267035   4.248   4.970  12.111  0.7527 -1.3094 -0.2819
15182TIP3   OH267036   4.469   5.268  15.140 -0.3133 -0.1306 -0.3977
15182TIP3    H167037   4.455   5.285  15.233 -0.9187  0.2843 -0.5584
15182TIP3    H267038   4.393   5.306  15.097 -2.4392 -4.2517 -0.7079
15183TIP3   OH267039   0.364   5.403  12.318  0.2494  0.2015 -0.2359
15183TIP3    H167040   0.417   5.383  12.240  0.9814  2.9740 -0.5633
15183TIP3    H267041   0.282   5.436  12.282 -0.4948 -1.0358  0.2576
15184TIP3   OH267042   5.807   0.666  11.321  0.3948  0.1653  0.6192
15184TIP3    H167043   5.792   0.679  11.228 -0.2917 -1.5487  0.4493
15184TIP3    H267044   5.841   0.577  11.328  2.4303  0.9722  1.8486
15185TIP3   OH267045   2.979   4.491  15.251  0.2661 -0.1483 -0.2385
15185TIP3    H167046   2.917   4.563  15.262  2.0025  1.1233  2.3714
15185TIP3    H267047   2.961   4.432  15.324  0.6994 -0.9042 -0.7282
15186TIP3   OH267048   1.088   3.554   5.956 -0.3460 -0.4552  0.2128
15186TIP3    H167049   0.994   3.546   5.937 -0.0393 -0.1141 -1.6723
15186TIP3    H267050   1.097   3.643   5.991 -0.7520 -0.5617  0.5943
15187TIP3   OH267051   0.401   5.325   4.344 -0.1972  0.2812  0.0285
15187TIP3    H167052   0.436   5.398   4.395 -1.3011  1.2433 -0.5347
15187TIP3    H267053   0.333   5.287   4.400  0.2523 -0.2208  0.2467
15188TIP3   OH267054   2.058   0.478  11.244 -0.2567  0.3617  0.0988
15188TIP3    H167055   2.051   0.573  11.236  2.1930  0.5486 -0.5296
15188TIP3    H267056   2.070   0.447  11.155  0.5466 -0.3643  0.4493
15189TIP3   OH267057   0.484   0.886   3.090  0.1142  0.0748  0.2831
15189TIP3    H167058   0.466   0.838   3.171 -0.4364  0.2414  0.2592
15189TIP3    H267059   0.579   0.879   3.079  0.4810  1.6969  1.9916
15190TIP3   OH267060   3.980   6.670   0.617 -0.1970  0.6348  0.1838
15190TIP3    H167061   4.002   6.762   0.623 -0.2248  0.6470  0.1010
15190TIP3    H267062   3.937   6.650   0.700 -0.9247  0.8992 -0.1195
15191TIP3   OH267063   5.192   2.172  15.774  0.4191 -0.2900 -0.5736
15191TIP3    H167064   5.216   2.206  15.860  0.7395  0.5040 -0.9616
15191TIP3    H267065   5.252   2.216  15.714  0.9318 -1.6359 -1.0984
15192TIP3   OH267066   0.529   0.315   2.841  0.4549  0.8531 -0.0808
15192TIP3    H167067   0.552   0.340   2.931 -0.0452  1.2122 -0.0469
15192TIP3    H267068   0.438   0.286   2.847  0.4791  0.7069 -0.4412
15193TIP3   OH267069   0.476   6.375   2.675  0.4437  0.7001  0.0819
15193TIP3    H167070   0.571   6.375   2.667  0.2640  1.1388 -3.1693
15193TIP3    H267071   0.453   6.468   2.679  0.0810  0.6321 -0.4050
15194TIP3   OH267072   1.497   6.011  13.086 -0.4369 -0.1572 -0.3566
15194TIP3    H167073   1.489   6.022  12.991  0.1664 -0.3592 -0.4373
15194TIP3    H267074   1.413   5.975  13.114 -0.4222 -0.6162 -0.8902
15195TIP3   OH267075   6.571   1.396   4.534  0.4453  0.4915  0.9001
15195TIP3    H167076   6.487   1.389   4.489 -0.2994 -2.5006  2.4919
15195TIP3    H267077   6.605   1.306   4.535  2.0435  1.0406  3.2605
15196TIP3   OH267078   2.289   0.327   1.159 -0.2855 -0.4811  0.0785
15196TIP3    H167079   2.383   0.313   1.165 -0.1419  0.4709  0.1624
15196TIP3    H267080   2.279   0.420   1.140 -1.2245 -0.4521  0.6310
15197TIP3   OH267081   2.818   2.960   4.809 -0.1833 -0.2562 -0.1354
15197TIP3    H167082   2.723   2.965   4.810 -0.2826 -0.9046 -2.3963
15197TIP3    H267083   2.843   2.970   4.901 -2.3026  1.6001  0.3244
15198TIP3   OH267084   6.773   2.695  12.340  0.1904  0.5405  0.3789
15198TIP3    H167085   6.825   2.772  12.314  1.5113 -0.9476 -1.6988
15198TIP3    H267086   6.768   2.642  12.261 -1.8410 -0.9142  1.4090
15199TIP3   OH267087   1.973   1.289   5.128 -0.3817 -0.2736 -0.2692
15199TIP3    H167088   1.978   1.373   5.081 -0.7366  0.5681  1.1474
15199TIP3    H267089   1.880   1.278   5.148 -0.0070  0.5076  2.1532
15200TIP3   OH267090   4.635   4.681  13.288  0.5563  0.0164  0.4643
15200TIP3    H167091   4.666   4.646  13.372 -0.0927 -1.4346  0.1351
15200TIP3    H267092   4.580   4.756  13.312  1.4749  0.4550  1.2419
15201TIP3   OH267093   4.074   5.729   3.674 -0.0498 -0.7145 -0.7389
15201TIP3    H167094   4.095   5.729   3.767  0.4281 -0.6902 -0.8409
15201TIP3    H267095   4.084   5.638   3.648 -0.7831 -0.8243 -0.6383
15202TIP3   OH267096   0.861   2.050  16.112  0.2694 -0.1343  0.0250
15202TIP3    H167097   0.864   1.966  16.157 -1.5410 -0.8688 -1.1051
15202TIP3    H267098   0.774   2.053  16.072  2.0436 -0.0481 -4.3554
15203TIP3   OH267099   6.619   1.714  15.135 -0.2102  0.3873 -0.3380
15203TIP3    H167100   6.615   1.772  15.211 -1.8215  1.5653 -1.2749
15203TIP3    H267101   6.596   1.770  15.061 -0.3396 -1.1229 -1.4731
15204TIP3   OH267102   0.342   4.640  10.758 -0.1028  0.5835  0.7065
15204TIP3    H167103   0.407   4.710  10.759  0.2546  0.2549  1.1294
15204TIP3    H267104   0.263   4.680  10.796  0.0663  0.7886  0.8443
15205TIP3   OH267105   4.392   3.627  16.548 -0.1136 -0.2264 -0.0115
15205TIP3    H167106   4.394   3.598  16.456 -1.6578 -0.5730  0.0357
15205TIP3    H267107   4.299   3.641  16.566  0.3179  1.6977  0.9454
15206TIP3   OH267108   6.778   6.624   1.554 -0.2622 -0.5179  0.0399
15206TIP3    H167109   6.723   6.700   1.534  0.7268 -0.2637 -1.9794
15206TIP3    H267110   6.826   6.607   1.473  1.8272 -1.3992  1.3750
15207TIP3   OH267111   4.738   4.071  14.572 -0.5174 -0.4171  0.4402
15207TIP3    H167112   4.686   4.102  14.498  0.1133 -0.6364 -0.1048
15207TIP3    H267113   4.674   4.057  14.643 -0.8867  1.8894  0.6506
15208TIP3   OH267114   3.219   6.151  14.610 -0.3870 -0.5456 -0.0856
15208TIP3    H167115   3.225   6.101  14.529 -1.7072 -0.2654 -0.3688
15208TIP3    H267116   3.183   6.235  14.585  1.3204  0.4088  0.4761
15209TIP3   OH267117   3.346   2.552   5.559 -0.2736 -0.2337  0.0578
15209TIP3    H167118   3.344   2.576   5.652  2.7554 -2.1085  0.7366
15209TIP3    H267119   3.394   2.623   5.518 -0.5149 -0.0217  0.1355
15210TIP3   OH267120   4.197   3.793  11.235 -0.0106  0.0761 -0.0851
15210TIP3    H167121   4.102   3.796  11.234 -0.0392 -0.2201  1.0292
15210TIP3    H267122   4.224   3.879  11.267  0.0119 -0.6415  1.9233
15211TIP3   OH267123   0.398   3.494  14.624 -0.1279 -0.0277  0.0674
15211TIP3    H167124   0.428   3.426  14.685  1.1139  0.9354  0.5600
15211TIP3    H267125   0.338   3.447  14.565  1.6747 -1.8648 -0.4228
15212TIP3   OH267126   2.996   3.927   4.222  0.0983  0.3436 -0.2873
15212TIP3    H167127   2.924   3.970   4.176 -0.5838  0.1653  0.5896
15212TIP3    H267128   2.976   3.834   4.216 -1.0621  0.3749  1.9931
15213TIP3   OH267129   5.028   2.635  15.638 -0.5641 -0.2091 -0.1276
15213TIP3    H167130   5.029   2.685  15.556  2.0218 -0.9097 -0.6363
15213TIP3    H267131   5.041   2.544  15.611 -1.2721 -0.6563  0.9862
15214TIP3   OH267132   2.846   1.936   4.676  0.0071  0.0800  0.0960
15214TIP3    H167133   2.939   1.954   4.687 -0.1621  1.2434 -0.2153
15214TIP3    H267134   2.818   1.901   4.761  0.7456 -0.4213  0.1457
15215TIP3   OH267135   6.076   3.569  12.553 -0.0685  0.1159  0.1523
15215TIP3    H167136   6.126   3.529  12.482 -0.1901 -0.6333  0.4822
15215TIP3    H267137   5.988   3.582  12.517  0.2659  1.1489 -0.3254
15216TIP3   OH267138   5.585   3.234   2.711  0.2797  0.5734 -0.2284
15216TIP3    H167139   5.624   3.188   2.785  0.0137 -1.9283 -1.5156
15216TIP3    H267140   5.492   3.235   2.730  0.1057 -0.8345 -0.8297
15217TIP3   OH267141   6.685   0.139  13.822 -0.4331 -0.2806  0.9023
15217TIP3    H167142   6.600   0.167  13.856 -0.3861 -1.5826  2.2241
15217TIP3    H267143   6.749   0.183  13.878 -0.2682 -0.2177  0.6637
15218TIP3   OH267144   6.678   4.434  12.110 -0.2130  0.5646 -0.1939
15218TIP3    H167145   6.704   4.462  12.022  0.4812  0.0720 -0.1578
15218TIP3    H267146   6.599   4.381  12.097  0.3108 -0.1360 -0.6158
15219TIP3   OH267147   0.212   1.648   4.012  0.2937  0.5953 -0.4475
15219TIP3    H167148   0.220   1.564   3.967 -1.4565  0.5902 -0.8093
15219TIP3    H267149   0.118   1.660   4.024  0.5107  2.5051 -0.3908
15220TIP3   OH267150   3.823   3.432  12.915  0.1709  0.1100 -0.1455
15220TIP3    H167151   3.875   3.490  12.971 -0.2327  0.1177  0.2253
15220TIP3    H267152   3.883   3.362  12.891  0.3585  0.1294  0.2630
15221TIP3   OH267153   0.952   4.374   0.960  0.4489  0.9853 -0.4167
15221TIP3    H167154   0.896   4.324   0.899  2.0159 -1.1067 -0.2586
15221TIP3    H267155   0.898   4.449   0.985 -1.3088  0.4301 -2.2117
15222TIP3   OH267156   2.672   0.535   6.020  0.4308  0.0319 -0.1050
15222TIP3    H167157   2.637   0.605   5.966 -0.6537  0.9414  1.6701
15222TIP3    H267158   2.767   0.551   6.021  0.4895 -0.0825 -1.7667
15223TIP3   OH267159   4.124   3.396  16.534  0.2086 -0.2919 -0.2944
15223TIP3    H167160   4.137   3.448  16.614  0.8019 -2.2690  0.9615
15223TIP3    H267161   4.031   3.408  16.513  0.2881  1.1046  0.0491
15224TIP3   OH267162   4.089   2.904  13.638 -0.0154  0.1307  0.1489
15224TIP3    H167163   4.170   2.869  13.675 -0.2132 -0.0450  0.4264
15224TIP3    H267164   4.043   2.942  13.713 -1.1485 -1.6144  0.4126
15225TIP3   OH267165   5.267   6.392  14.087 -0.2587 -0.7943 -0.2140
15225TIP3    H167166   5.306   6.403  14.001  1.4749 -1.4609  0.4397
15225TIP3    H267167   5.330   6.432  14.147 -1.3421 -0.5025  0.7789
15226TIP3   OH267168   0.043   0.878  14.826 -0.3255 -0.0736  0.2499
15226TIP3    H167169   0.054   0.844  14.737 -1.3258 -0.3470  0.2156
15226TIP3    H267170  -0.029   0.826  14.863 -0.1105  0.2271  1.1201
15227TIP3   OH267171   0.504   1.206   2.688  0.4567  0.4520  0.0848
15227TIP3    H167172   0.530   1.297   2.673  0.2940  0.5358  0.3060
15227TIP3    H267173   0.427   1.213   2.744  1.8590  0.1001  2.1654
15228TIP3   OH267174   5.745   0.159  15.195 -0.2195  0.6913  0.1859
15228TIP3    H167175   5.743   0.092  15.264  1.6374 -1.0353 -1.2900
15228TIP3    H267176   5.714   0.238  15.238  0.1225 -0.4658  2.8048
15229TIP3   OH267177   6.587   3.943   0.932  0.1854  0.2717  0.2895
15229TIP3    H167178   6.580   3.911   0.843 -0.1420 -1.2058  0.8123
15229TIP3    H267179   6.497   3.964   0.957  0.5031  2.6112 -0.3667
15230TIP3   OH267180   0.372   4.491   1.108 -0.4428  0.5755  0.3009
15230TIP3    H167181   0.278   4.488   1.130 -0.4786  0.3249  0.1143
15230TIP3    H267182   0.375   4.536   1.023 -0.2446  2.2386  1.1397
15231TIP3   OH267183   4.429   2.333   1.369  0.3145  0.4660  0.6218
15231TIP3    H167184   4.396   2.289   1.447 -3.5597  1.6710 -0.0942
15231TIP3    H267185   4.458   2.419   1.401  0.5518  0.2514  0.9864
15232TIP3   OH267186   2.352   5.924   6.142  0.0045  0.1307  0.2908
15232TIP3    H167187   2.380   5.849   6.195  2.7282  0.7675 -0.1355
15232TIP3    H267188   2.429   5.948   6.091 -1.8680  0.9278 -2.3846
15233TIP3   OH267189   1.453   6.655  14.774  0.6025 -0.0772  0.0992
15233TIP3    H167190   1.420   6.652  14.684  0.9616 -0.9725 -0.0191
15233TIP3    H267191   1.425   6.740  14.808  0.8605  0.4615 -1.0110
15234TIP3   OH267192   5.791   2.904  14.079  0.2008  0.3838  0.1690
15234TIP3    H167193   5.822   2.822  14.040 -0.5574  0.1548  0.0236
15234TIP3    H267194   5.796   2.967  14.007 -0.5339  0.1277 -0.1127
15235TIP3   OH267195   6.018   2.829   3.719  0.6823  0.3536  0.1042
15235TIP3    H167196   6.039   2.883   3.795  1.8199  0.0276  0.0396
15235TIP3    H267197   5.944   2.776   3.746  2.6321 -1.6630  1.9571
15236TIP3   OH267198   4.297   3.866  12.255  0.0008 -0.2969 -0.0522
15236TIP3    H167199   4.284   3.955  12.287  0.5706  0.2362 -1.2352
15236TIP3    H267200   4.353   3.876  12.178  1.4986 -1.8304  0.7653
15237TIP3   OH267201   5.963   1.818   3.095 -0.6681 -0.3063 -0.5603
15237TIP3    H167202   5.947   1.859   3.180 -0.9006 -0.4753 -0.5217
15237TIP3    H267203   5.921   1.877   3.032 -2.0470 -1.0816 -0.4046
15238TIP3   OH267204   2.668   3.497  14.057 -0.5665  0.4536 -0.5112
15238TIP3    H167205   2.639   3.554  13.986  3.3507  0.1282 -2.6182
15238TIP3    H267206   2.699   3.418  14.012 -1.0794 -1.2378  1.9288
15239TIP3   OH267207   3.088   1.558  10.331  0.4054  0.9177 -0.1954
15239TIP3    H167208   3.037   1.507  10.267  0.2370 -0.3844  0.9266
15239TIP3    H267209   3.038   1.638  10.343 -1.3795 -0.2701  0.7860
15240TIP3   OH267210   5.669   4.498  10.444  0.4120  0.1125  0.2888
15240TIP3    H167211   5.683   4.416  10.397 -1.3212  0.3498 -0.7330
15240TIP3    H267212   5.615   4.474  10.520  1.1265  0.0999  0.7984
15241TIP3   OH267213   5.903   6.273   5.580 -0.6580 -0.1595  0.1837
15241TIP3    H167214   5.942   6.221   5.650 -1.5743 -1.1084  0.0184
15241TIP3    H267215   5.977   6.300   5.525  0.3566  2.2922  2.5301
15242TIP3   OH267216   6.103   5.373  14.202  0.6682 -0.1046  0.2188
15242TIP3    H167217   6.082   5.285  14.233  0.0755  0.5321  1.7811
15242TIP3    H267218   6.172   5.404  14.261 -0.6847  1.2620  1.1769
15243TIP3   OH267219   0.587   0.272   3.400 -0.0138  0.7980  0.1122
15243TIP3    H167220   0.505   0.260   3.448 -0.7183  1.6690 -0.8226
15243TIP3    H267221   0.642   0.198   3.428 -2.3906 -1.9688 -1.8750
15244TIP3   OH267222   3.827   5.281  14.175  0.0641 -0.3818 -0.5624
15244TIP3    H167223   3.863   5.329  14.101  1.0375 -1.1766 -0.6352
15244TIP3    H267224   3.734   5.269  14.155  0.2402 -0.2511 -1.4604
15245TIP3   OH267225   3.774   1.322  16.379 -0.0215  0.8243 -0.1409
15245TIP3    H167226   3.823   1.354  16.455  0.4663  0.7605 -0.4199
15245TIP3    H267227   3.800   1.230  16.371  0.1771  0.9131 -0.5717
15246TIP3   OH267228   3.191   5.314   3.914 -0.0131  0.2578  0.2761
15246TIP3    H167229   3.209   5.292   3.822 -1.2988  0.2162  0.0132
15246TIP3    H267230   3.108   5.361   3.911  0.9049  2.0534  1.2238
15247TIP3   OH267231   2.619   4.775   1.109 -0.1586  0.0791  0.2698
15247TIP3    H167232   2.647   4.686   1.090  0.3574  0.3512 -0.2664
15247TIP3    H267233   2.543   4.789   1.053 -0.6569 -0.2506  0.8520
15248TIP3   OH267234   1.641   0.559  11.957  0.1814  0.1924 -0.4369
15248TIP3    H167235   1.568   0.619  11.972  0.0069 -0.2714  0.6728
15248TIP3    H267236   1.628   0.526  11.868 -0.8339  0.3008 -0.3369
15249TIP3   OH267237   2.440   1.792   3.062 -0.2168  0.2620  0.0143
15249TIP3    H167238   2.372   1.855   3.088  1.2913  1.6762  0.7121
15249TIP3    H267239   2.489   1.775   3.142  1.3317  0.6555 -0.8137
15250TIP3   OH267240   5.922   1.684  16.423 -0.0713 -0.0332  0.7333
15250TIP3    H167241   5.985   1.612  16.432 -0.3346 -0.7002 -1.8769
15250TIP3    H267242   5.977   1.761  16.407  0.1485 -0.4050 -0.3956
15251TIP3   OH267243   4.250   1.754  13.460  0.4839 -0.1616 -0.4794
15251TIP3    H167244   4.218   1.711  13.381  1.0803 -0.4325 -0.5790
15251TIP3    H267245   4.258   1.683  13.524  1.2355 -0.1691 -0.5714
15252TIP3   OH267246   1.107   0.696   1.690 -0.4303  0.1061  0.1725
15252TIP3    H167247   1.066   0.767   1.739 -2.1736 -2.6979  3.2130
15252TIP3    H267248   1.187   0.677   1.739 -1.3817 -1.7010  1.1300
15253TIP3   OH267249   1.255   3.849  14.111 -0.4379 -0.4317 -0.1271
15253TIP3    H167250   1.255   3.924  14.052 -3.9000 -0.9649 -1.0446
15253TIP3    H267251   1.209   3.780  14.062 -2.6720 -1.1857  2.7381
15254TIP3   OH267252   5.378   5.819   5.453 -0.2657  0.1889 -0.2768
15254TIP3    H167253   5.430   5.773   5.386 -0.5506  0.8659 -0.9818
15254TIP3    H267254   5.312   5.755   5.480  0.9121 -0.6976  0.6500
15255TIP3   OH267255   0.731   5.718  14.871 -0.3967  0.4236  0.4316
15255TIP3    H167256   0.664   5.730  14.938 -2.7846  1.0309 -1.8564
15255TIP3    H267257   0.744   5.806  14.835  2.4408  0.4970  1.4123
15256TIP3   OH267258   0.122   4.026   0.756 -0.0709  0.4152  0.0403
15256TIP3    H167259   0.068   3.948   0.740  1.0413 -0.2836 -0.4984
15256TIP3    H267260   0.085   4.066   0.834 -0.2810 -1.0418  0.7309
15257TIP3   OH267261   4.983   2.907  11.570  0.3225  0.0176 -0.0496
15257TIP3    H167262   4.952   2.949  11.490 -0.0228 -0.1213  0.0102
15257TIP3    H267263   4.915   2.844  11.592 -0.5304  1.3890  1.4241
15258TIP3   OH267264   2.138   1.056  16.603 -0.3484 -0.6396 -0.1693
15258TIP3    H167265   2.219   1.008  16.584 -0.5198 -0.4391 -1.5228
15258TIP3    H267266   2.120   1.106  16.523 -0.8187  0.7673  0.7599
15259TIP3   OH267267   1.266   4.304  15.988 -0.0887 -0.0696 -0.3273
15259TIP3    H167268   1.181   4.263  16.006  0.6194 -0.7629  1.8240
15259TIP3    H267269   1.244   4.391  15.956 -1.6114 -0.7300 -1.1829
15260TIP3   OH267270   0.186   1.250   3.127 -0.1543 -0.2635  0.3080
15260TIP3    H167271   0.179   1.338   3.163  1.1629 -0.8226  2.0804
15260TIP3    H267272   0.095   1.221   3.115 -0.6065  1.3676 -0.5121
15261TIP3   OH267273   2.623   2.587  16.111 -0.0137  0.1746 -0.5912
15261TIP3    H167274   2.677   2.661  16.140  1.3580  0.1104 -2.7382
15261TIP3    H267275   2.687   2.518  16.089 -0.9594 -0.1865 -2.4604
15262TIP3   OH267276   3.749   5.517   4.512 -0.2427 -0.5511  0.1372
15262TIP3    H167277   3.816   5.510   4.580  1.4579 -1.7806 -1.5731
15262TIP3    H267278   3.694   5.591   4.541  2.3516  1.1232  1.1888
15263TIP3   OH267279   6.664   2.160  15.514  0.1388  0.1306 -0.2624
15263TIP3    H167280   6.586   2.215  15.503 -0.3451 -0.5093 -0.0881
15263TIP3    H267281   6.737   2.218  15.493 -0.2032  1.4767  1.8847
15264TIP3   OH267282   3.373   4.477   5.034 -0.5206  1.3676  0.2292
15264TIP3    H167283   3.358   4.491   4.941  2.3208  0.3067 -0.4791
15264TIP3    H267284   3.444   4.413   5.038 -0.4777  1.4567  3.1394
15265TIP3   OH267285   1.912   5.787  14.808  0.0119 -0.2633  0.1046
15265TIP3    H167286   1.893   5.851  14.739 -1.1469 -1.1297 -0.4048
15265TIP3    H267287   1.987   5.825  14.855 -0.1260  1.0673 -0.6830
15266TIP3   OH267288   5.002   3.449   3.382 -0.1889 -0.0662  0.2991
15266TIP3    H167289   5.019   3.402   3.300  0.6833 -1.5599  1.2991
15266TIP3    H267290   5.081   3.436   3.434 -0.7368  0.8465  1.4042
15267TIP3   OH267291   6.700   1.893  12.681  0.1949 -0.2360 -0.5119
15267TIP3    H167292   6.614   1.916  12.647 -1.0752 -1.6570  1.4885
15267TIP3    H267293   6.738   1.977  12.709 -0.9072  0.3322 -0.6628
15268TIP3   OH267294   6.429   4.129   1.448 -0.0072 -0.3130 -0.2469
15268TIP3    H167295   6.361   4.183   1.406 -0.9574 -1.0166  0.3315
15268TIP3    H267296   6.387   4.097   1.528  0.5158 -1.9090 -0.5788
15269TIP3   OH267297   5.085   5.263  16.980  0.0661 -0.2489 -0.2927
15269TIP3    H167298   5.082   5.279  16.886  0.5480 -0.2973 -0.3194
15269TIP3    H267299   5.005   5.303  17.014  0.7704  1.3918 -0.4810
15270TIP3   OH267300   1.398   5.687  11.582 -0.6903 -0.6742  0.5312
15270TIP3    H167301   1.349   5.652  11.508 -0.3862 -0.0671  0.0382
15270TIP3    H267302   1.347   5.661  11.659 -1.5948 -0.3487  0.0517
15271TIP3   OH267303   5.574   5.192   5.730  0.1786  0.1714 -0.6450
15271TIP3    H167304   5.652   5.219   5.779  0.9167 -0.7043 -1.2920
15271TIP3    H267305   5.551   5.107   5.767 -0.5461  0.4714 -0.3885
15272TIP3   OH267306   2.538   3.582   1.425 -0.3126 -0.3366  0.1032
15272TIP3    H167307   2.480   3.513   1.392  0.3568 -2.0087  2.2037
15272TIP3    H267308   2.625   3.541   1.426  0.2881  0.9079  0.4217
15273TIP3   OH267309   4.968   0.658   3.047 -0.4467 -0.6107 -0.3905
15273TIP3    H167310   4.937   0.697   3.129 -0.5718 -2.4316  0.4788
15273TIP3    H267311   5.019   0.727   3.006 -0.1999  0.3016  1.3256
15274TIP3   OH267312   0.659   5.062   1.366  0.1952 -0.2127 -0.1322
15274TIP3    H167313   0.646   4.992   1.430 -1.3118  0.1032 -0.0338
15274TIP3    H267314   0.724   5.028   1.305 -0.1351 -1.5053  0.1972
15275TIP3   OH267315   0.064   1.919   5.709 -0.5959  0.4564  0.0064
15275TIP3    H167316  -0.006   1.982   5.726 -1.2468 -0.3482  0.3461
15275TIP3    H267317   0.104   1.950   5.627 -2.2713  0.1400 -0.9834
15276TIP3   OH267318   4.974   4.323  16.080 -0.4543 -0.1204 -0.2565
15276TIP3    H167319   4.915   4.392  16.111  0.5940  1.1522 -0.9909
15276TIP3    H267320   4.956   4.248  16.138 -1.1411  0.9777  1.0154
15277TIP3   OH267321   0.229   5.152  11.269 -0.4513  0.1358 -0.1286
15277TIP3    H167322   0.174   5.101  11.329  0.9286 -0.8338  0.3632
15277TIP3    H267323   0.274   5.215  11.325 -0.2358  0.1951 -0.3663
15278TIP3   OH267324   6.634   4.167  11.798  0.1921 -0.0055 -0.3470
15278TIP3    H167325   6.539   4.160  11.810  0.4279 -1.1396  1.2253
15278TIP3    H267326   6.649   4.259  11.780 -1.1469  0.3417  0.1719
15279TIP3   OH267327   1.413   3.939   4.858  0.4492 -0.1867  0.3460
15279TIP3    H167328   1.369   3.990   4.926  1.0889 -0.5000  1.0001
15279TIP3    H267329   1.506   3.947   4.878  0.6046 -0.9313 -0.0357
15280TIP3   OH267330   2.281   3.154   5.261  0.3342  0.2149  0.6454
15280TIP3    H167331   2.282   3.248   5.279 -1.6767  0.0309  2.1673
15280TIP3    H267332   2.214   3.143   5.194 -0.0437 -0.1840  1.0728
15281TIP3   OH267333   0.336   1.380   1.956  0.2287 -0.5076 -0.0710
15281TIP3    H167334   0.316   1.298   1.911  0.3698 -0.7571  0.3119
15281TIP3    H267335   0.251   1.420   1.971  0.2119 -0.1730 -1.0094
15282TIP3   OH267336   5.441   0.757   5.770 -0.0557  0.6182  0.7748
15282TIP3    H167337   5.409   0.841   5.737  0.9502  0.0066 -2.0456
15282TIP3    H267338   5.532   0.774   5.794 -0.5147  0.8310  2.4702
15283TIP3   OH267339   3.977   2.014  16.066 -0.2232  0.1117 -0.1798
15283TIP3    H167340   4.035   1.963  16.010  0.0790  0.6662 -0.3858
15283TIP3    H267341   3.971   2.099  16.022  0.3751  0.7097  0.8463
15284TIP3   OH267342   2.665   1.650  13.737 -0.0821  0.1565  0.2221
15284TIP3    H167343   2.691   1.699  13.659  1.9732 -0.0929  0.6965
15284TIP3    H267344   2.610   1.711  13.787 -0.8463  0.5518 -1.0665
15285TIP3   OH267345   2.417   2.908   1.042 -0.1522 -0.0147 -0.1939
15285TIP3    H167346   2.384   2.942   0.959  0.6746 -0.0936 -0.5655
15285TIP3    H267347   2.510   2.930   1.042 -0.0396 -0.4356  0.5002
15286TIP3   OH267348   3.631   2.772  11.614  0.3478  0.1156 -0.1972
15286TIP3    H167349   3.706   2.749  11.670  0.6567 -1.5137 -1.2169
15286TIP3    H267350   3.671   2.816  11.539  0.2118 -0.1768 -0.4396
15287TIP3   OH267351   5.266   5.934   3.840 -0.6035 -0.0100  0.2253
15287TIP3    H167352   5.252   5.853   3.791 -0.7356 -0.4347  0.9514
15287TIP3    H267353   5.290   5.998   3.773 -2.5215 -0.1231 -0.6530
15288TIP3   OH267354   5.589   4.248  16.726 -0.6230 -0.5392  0.4485
15288TIP3    H167355   5.589   4.201  16.643  0.4044 -0.2273  0.2565
15288TIP3    H267356   5.596   4.340  16.701 -0.7088 -0.4145  0.8749
15289TIP3   OH267357   6.522   0.805  15.332  0.0570 -0.3077 -0.2583
15289TIP3    H167358   6.600   0.834  15.286  0.3999 -1.9841 -0.7963
15289TIP3    H267359   6.481   0.886  15.363  0.8594  0.7362 -1.8040
15290TIP3   OH267360   5.226   1.655   0.889  0.1333 -0.3945  0.3230
15290TIP3    H167361   5.185   1.732   0.929 -0.3530  0.0674 -1.0307
15290TIP3    H267362   5.320   1.670   0.897  0.0403 -0.0393  0.7616
15291TIP3   OH267363   2.212   2.311   3.002  0.5046  1.0023  0.7800
15291TIP3    H167364   2.159   2.249   3.052 -0.1020  0.3018 -0.6697
15291TIP3    H267365   2.178   2.397   3.027  0.5649  0.7015  1.9330
15292TIP3   OH267366   2.140   0.659   5.300  0.3670 -0.0931 -0.9739
15292TIP3    H167367   2.108   0.737   5.255  0.9455 -0.4590 -2.0543
15292TIP3    H267368   2.213   0.690   5.353 -0.7289  0.4620  0.3089
15293TIP3   OH267369   2.459   6.072  16.255 -0.3749  0.8676  0.1183
15293TIP3    H167370   2.537   6.115  16.291  0.0365  0.6031 -0.4477
15293TIP3    H267371   2.462   6.090  16.162 -2.1202  2.6022  0.3502
15294TIP3   OH267372   2.232   1.778   1.897  0.4676 -0.0513  0.0288
15294TIP3    H167373   2.149   1.746   1.862  0.8889 -0.3666 -0.6982
15294TIP3    H267374   2.284   1.700   1.911  0.0288 -0.0052  2.1607
15295TIP3   OH267375   3.634   1.201  12.222  0.7465 -0.0036 -0.2899
15295TIP3    H167376   3.633   1.167  12.312 -3.6678  0.9137  0.2096
15295TIP3    H267377   3.681   1.284  12.228  1.3935 -0.4293  0.9091
15296TIP3   OH267378   5.020   3.239   2.711 -0.1616  1.1522 -0.2503
15296TIP3    H167379   4.981   3.286   2.637 -0.5663 -0.8514 -1.3788
15296TIP3    H267380   4.969   3.158   2.717  1.0087  0.4849  1.1186
15297TIP3   OH267381   0.885   2.797   1.694 -0.4277 -0.6002  0.0486
15297TIP3    H167382   0.806   2.851   1.702 -0.5400 -0.9823  1.9882
15297TIP3    H267383   0.864   2.716   1.741  0.8039 -1.0762 -0.1879
15298TIP3   OH267384   3.502   5.417   2.777 -0.1017  0.3893 -0.0640
15298TIP3    H167385   3.488   5.360   2.853  1.8495  0.5315  0.4333
15298TIP3    H267386   3.451   5.376   2.707  0.4684 -1.4092  0.5410
15299TIP3   OH267387   2.565   2.881  14.575 -0.5384 -0.4108 -0.2455
15299TIP3    H167388   2.575   2.792  14.609 -0.2297 -0.6292 -0.9004
15299TIP3    H267389   2.534   2.870  14.486 -0.3611  0.1399 -0.3782
15300TIP3   OH267390   0.588   2.399   0.124  0.3852  0.2074 -0.3014
15300TIP3    H167391   0.565   2.489   0.102  2.5936  1.0914  0.7062
15300TIP3    H267392   0.529   2.345   0.071 -0.3895  2.2255 -1.5981
15301TIP3   OH267393   4.827   3.836   4.532 -0.3085 -0.2995  0.1973
15301TIP3    H167394   4.811   3.906   4.595 -1.8203  0.1925 -0.6845
15301TIP3    H267395   4.832   3.880   4.447  0.1061 -1.1127 -0.2111
15302TIP3   OH267396   2.305   5.624   5.458  0.5562 -0.0100 -0.1874
15302TIP3    H167397   2.303   5.534   5.488  0.4387 -0.0912 -0.4396
15302TIP3    H267398   2.369   5.625   5.387  0.6798  0.1395 -0.0767
15303TIP3   OH267399   5.797   1.991  16.659 -0.4707  0.1385  0.3155
15303TIP3    H167400   5.842   1.922  16.610 -0.6987  0.9991 -1.1539
15303TIP3    H267401   5.808   1.966  16.751  2.4780 -0.0227  0.0203
15304TIP3   OH267402   3.045   1.893  12.055 -0.0808  0.2215 -0.4713
15304TIP3    H167403   3.126   1.942  12.069  0.6807 -0.7204 -1.3820
15304TIP3    H267404   3.029   1.849  12.139  0.7986 -0.2018 -0.5051
15305TIP3   OH267405   4.633   4.706  15.589  0.0251 -0.2814 -0.1179
15305TIP3    H167406   4.643   4.614  15.565 -0.6071  0.0950 -1.9258
15305TIP3    H267407   4.567   4.706  15.658  1.6291 -1.3562  1.5171
15306TIP3   OH267408   1.857   3.962   4.423  0.1430 -0.1781  0.2659
15306TIP3    H167409   1.908   3.882   4.411  0.2200 -0.0421 -0.3730
15306TIP3    H267410   1.901   4.010   4.493  0.1566 -0.6449  0.5786
15307TIP3   OH267411   1.742   1.797  12.491 -0.1247 -0.0691 -0.2443
15307TIP3    H167412   1.718   1.844  12.571 -1.0670 -0.1759 -0.4593
15307TIP3    H267413   1.737   1.704  12.515 -0.6882 -0.1082 -0.4980
15308TIP3   OH267414   5.527   6.720  15.189  0.3605  0.3236  0.2155
15308TIP3    H167415   5.472   6.737  15.112 -2.1820 -1.4753  1.4732
15308TIP3    H267416   5.617   6.732  15.157 -0.6537  2.7275 -2.1548
15309TIP3   OH267417   3.872   3.168   0.776 -0.0023 -0.4428 -0.0757
15309TIP3    H167418   3.918   3.165   0.859  2.9273 -0.3958 -1.5620
15309TIP3    H267419   3.935   3.207   0.715 -1.7438 -1.1380 -2.4794
15310TIP3   OH267420   1.162   6.186   2.775 -0.7635 -0.2627  0.0902
15310TIP3    H167421   1.137   6.094   2.778 -1.9764  0.0705  0.8544
15310TIP3    H267422   1.089   6.230   2.730  0.0602  0.2626 -0.7891
15311TIP3   OH267423   3.451   5.693  13.501  0.1479  0.1844  0.2980
15311TIP3    H167424   3.358   5.699  13.478  0.4801  0.6466 -1.0193
15311TIP3    H267425   3.478   5.783  13.520  0.6886  0.3011 -0.9221
15312TIP3   OH267426   1.177   5.927   1.408 -0.1960  0.4360  0.0659
15312TIP3    H167427   1.201   5.838   1.385 -0.1675  0.5925 -0.5256
15312TIP3    H267428   1.114   5.917   1.480  0.1981 -0.0349  0.3491
15313TIP3   OH267429   3.148   0.818  11.209  0.4442 -0.0309  0.4273
15313TIP3    H167430   3.244   0.811  11.217  0.5680  0.6810 -0.2810
15313TIP3    H267431   3.135   0.879  11.137 -0.5655 -0.7060  0.0251
15314TIP3   OH267432   3.530   2.456  11.955 -0.0852 -0.1012 -0.1490
15314TIP3    H167433   3.549   2.418  12.041 -1.4954  0.1393  0.2983
15314TIP3    H267434   3.487   2.385  11.907 -0.1733  0.0632 -0.3142
15315TIP3   OH267435   1.260   3.198  17.045 -0.2993  0.0125  0.3843
15315TIP3    H167436   1.335   3.208  17.104 -0.0946  1.8058 -0.1158
15315TIP3    H267437   1.299   3.192  16.958 -0.7297  1.2074  0.1000
15316TIP3   OH267438   2.335   5.681  16.857  0.0667  0.3532 -0.6123
15316TIP3    H167439   2.325   5.748  16.790 -0.3095  1.0949  0.1614
15316TIP3    H267440   2.291   5.604  16.821 -0.9030  1.0010 -0.8625
15317TIP3   OH267441   2.321   5.676  16.024  0.4314  0.7243  0.2369
15317TIP3    H167442   2.348   5.599  15.974  1.6901  0.8582  0.6649
15317TIP3    H267443   2.318   5.747  15.959  3.2763  1.1761  0.4614
15318TIP3   OH267444   5.594   2.804   0.359 -0.3043  0.0862 -0.2324
15318TIP3    H167445   5.647   2.863   0.305 -0.5133 -1.1008 -1.8241
15318TIP3    H267446   5.513   2.793   0.309 -1.2878  0.3798  1.2470
15319TIP3   OH267447   5.931   6.719   5.599  0.4630 -0.1641  0.3267
15319TIP3    H167448   5.984   6.646   5.566  0.3920 -0.1825  0.2517
15319TIP3    H267449   5.964   6.795   5.551 -0.3785 -0.3633 -0.6100
15320TIP3   OH267450   4.251   6.603   1.864  0.9341  0.2419  0.5029
15320TIP3    H167451   4.345   6.584   1.860  0.8543 -0.5034  1.6599
15320TIP3    H267452   4.246   6.698   1.874  1.5427  0.3460 -0.1473
15321TIP3   OH267453   2.802   0.165   2.942  0.2419 -0.1371  0.4047
15321TIP3    H167454   2.733   0.159   3.008  0.0138 -0.4081  0.1424
15321TIP3    H267455   2.802   0.257   2.916  1.1752  0.2591  1.6776
15322TIP3   OH267456   2.779   2.631  14.690 -0.2734 -0.4326  0.2346
15322TIP3    H167457   2.699   2.582  14.671  1.1986 -2.5090 -1.1054
15322TIP3    H267458   2.804   2.671  14.607  0.4429 -0.4260  0.4425
15323TIP3   OH267459   3.816   4.886  11.320 -0.1908 -0.0010 -0.3823
15323TIP3    H167460   3.887   4.826  11.344 -1.0908 -0.8558  0.2001
15323TIP3    H267461   3.736   4.834  11.331 -1.0010  1.3433  0.2392
15324TIP3   OH267462   1.187   1.357  15.192  0.0726  0.1302 -0.1181
15324TIP3    H167463   1.180   1.374  15.098 -0.6663 -0.2482 -0.1413
15324TIP3    H267464   1.117   1.410  15.231 -1.1682 -1.4952 -0.0285
15325TIP3   OH267465   1.448   1.437  15.457  0.1759  0.1820  0.6003
15325TIP3    H167466   1.513   1.456  15.389 -0.3897  1.4145  0.3730
15325TIP3    H267467   1.470   1.349  15.489  0.7188 -0.2361 -0.8710
15326TIP3   OH267468   5.648   6.274  14.567 -0.1596  0.0488 -0.3679
15326TIP3    H167469   5.579   6.213  14.539  0.3446 -0.5057 -0.4051
15326TIP3    H267470   5.704   6.284  14.490 -0.1865  0.4965 -0.3333
15327TIP3   OH267471   2.263   0.187   1.984  0.5015  0.5150  0.4472
15327TIP3    H167472   2.318   0.250   1.936 -0.5407  0.4860 -0.8236
15327TIP3    H267473   2.187   0.174   1.928 -0.6399  0.2550  1.9964
15328TIP3   OH267474   6.817   0.297  14.345 -0.1665 -0.3343 -0.1503
15328TIP3    H167475   6.753   0.331  14.408  1.1391 -1.2312  1.7329
15328TIP3    H267476   6.767   0.237  14.291 -0.7898 -1.8245  1.9568
15329TIP3   OH267477   3.857   6.459  16.701  0.0324  0.0360 -0.0732
15329TIP3    H167478   3.830   6.548  16.725  0.2870 -0.2044  1.1532
15329TIP3    H267479   3.942   6.447  16.742  0.7395 -0.2241 -1.5640
15330TIP3   OH267480   1.673   1.679  10.826  0.5483 -0.4718  0.2262
15330TIP3    H167481   1.616   1.690  10.902  1.6537  1.9031  0.7784
15330TIP3    H267482   1.614   1.684  10.750 -0.6047 -3.1380  0.8161
15331TIP3   OH267483   0.973   1.111  11.222  0.0458 -0.3690 -0.5029
15331TIP3    H167484   1.054   1.095  11.271 -0.5840  1.0521  1.1247
15331TIP3    H267485   0.977   1.203  11.198 -1.4174 -0.0646  0.2974
15332TIP3   OH267486   2.043   2.237  16.854 -0.6131 -0.0544  0.5145
15332TIP3    H167487   2.053   2.206  16.944  2.3817 -0.8043  0.0209
15332TIP3    H267488   2.120   2.291  16.838 -1.0096 -0.0285 -1.6541
15333TIP3   OH267489   0.448   1.792   4.721  0.4525 -0.1287  0.4744
15333TIP3    H167490   0.398   1.871   4.744  0.7777  0.7290 -1.5072
15333TIP3    H267491   0.539   1.818   4.729  0.6398  0.7838 -3.0930
15334TIP3   OH267492   3.509   1.781   2.851  0.0950 -0.3222  0.0523
15334TIP3    H167493   3.457   1.860   2.832 -0.2977 -0.9068 -1.4404
15334TIP3    H267494   3.446   1.709   2.846  0.6186 -0.8196  0.5128
15335TIP3   OH267495   5.086   5.821   5.786 -0.5019 -0.4665  0.1386
15335TIP3    H167496   5.093   5.885   5.715 -1.6759 -1.3031 -0.7806
15335TIP3    H267497   5.053   5.871   5.860 -1.3014  0.0230 -0.5309
15336TIP3   OH267498   2.556   5.527  15.848  0.4836 -0.7407 -0.0697
15336TIP3    H167499   2.518   5.553  15.764 -1.0973 -0.5602  0.6737
15336TIP3    H267500   2.532   5.435  15.858 -1.2651 -0.1885  1.1639
15337TIP3   OH267501   4.323   0.500   0.454 -0.7188 -0.1510  0.3632
15337TIP3    H167502   4.267   0.558   0.507  0.5187  0.8848  0.5811
15337TIP3    H267503   4.347   0.554   0.379 -0.1699 -0.6553  0.1791
15338TIP3   OH267504   1.160   1.098   4.452 -0.0691 -0.4487  0.2572
15338TIP3    H167505   1.112   1.174   4.485 -0.1110 -0.1977 -0.3726
15338TIP3    H267506   1.250   1.113   4.480 -0.4526 -1.3290  2.1818
15339TIP3   OH267507   0.964   5.324  16.948  0.2569  0.0502  0.3738
15339TIP3    H167508   0.929   5.301  16.862  1.2283  0.7435 -0.2312
15339TIP3    H267509   1.052   5.285  16.949  0.3058  0.1691  0.9901
15340TIP3   OH267510   2.697   6.216   3.403 -0.1308 -0.2534 -0.3727
15340TIP3    H167511   2.739   6.131   3.418 -0.1361 -0.4938 -1.6013
15340TIP3    H267512   2.636   6.226   3.476  0.7121 -0.7617  0.4218
15341TIP3   OH267513   2.983   2.493  14.188 -0.7877  0.2115  0.2194
15341TIP3    H167514   3.068   2.511  14.147 -0.3631  1.7441  1.6647
15341TIP3    H267515   2.995   2.409  14.230  0.3657  0.8319  1.1985
15342TIP3   OH267516   5.915   5.148  14.084 -0.8017  0.7950  0.1557
15342TIP3    H167517   5.830   5.190  14.099 -0.5241  1.6953 -0.6734
15342TIP3    H267518   5.896   5.055  14.084 -2.1065  1.0117 -1.7449
15343TIP3   OH267519   6.136   2.549  16.924  0.3598 -0.0882 -0.2295
15343TIP3    H167520   6.185   2.579  17.001 -0.4528  2.4336 -0.5775
15343TIP3    H267521   6.143   2.454  16.926  1.4394 -0.0359  2.2366
15344TIP3   OH267522   4.433   1.234  14.944 -0.6139  0.1251  0.3013
15344TIP3    H167523   4.479   1.157  14.912  0.0656  0.9636 -0.8542
15344TIP3    H267524   4.465   1.305  14.888 -0.9561  1.3037  1.5490
15345TIP3   OH267525   3.519   0.941   4.390 -0.0161 -0.0296 -0.1431
15345TIP3    H167526   3.433   0.980   4.401  0.4274  0.5536  1.4712
15345TIP3    H267527   3.579   1.015   4.391  0.6358 -0.5539  0.5157
15346TIP3   OH267528   4.585   0.002   1.181 -0.2460 -0.3480  0.6837
15346TIP3    H167529   4.603  -0.043   1.099 -1.8502  1.0002 -0.4758
15346TIP3    H267530   4.667   0.047   1.202  0.5700 -1.7088  0.5125
15347TIP3   OH267531   6.739   3.271  14.459 -1.0350 -0.1188  0.2835
15347TIP3    H167532   6.817   3.227  14.424 -0.4493 -0.1401  1.5654
15347TIP3    H267533   6.667   3.211  14.437 -0.9433  0.5348 -2.1160
15348TIP3   OH267534   4.955   6.362   4.209 -0.4596 -0.0460  0.1160
15348TIP3    H167535   4.878   6.395   4.255 -0.9559 -0.9908 -0.0063
15348TIP3    H267536   4.919   6.315   4.133  0.3365  1.7833 -1.4895
15349TIP3   OH267537   1.494   5.218   2.294  0.1197 -0.4367  0.1385
15349TIP3    H167538   1.409   5.257   2.317 -1.0752 -1.5171 -2.1343
15349TIP3    H267539   1.516   5.257   2.210  0.3322 -2.4042 -0.7618
15350TIP3   OH267540   1.235   3.984  15.492  0.0469  0.1502  0.1693
15350TIP3    H167541   1.254   4.062  15.544  1.5355 -0.3004  0.3416
15350TIP3    H267542   1.222   4.018  15.403 -0.8519  0.7415  0.5116
15351TIP3   OH267543   2.428   2.144  13.678  0.8019  0.2483  0.4158
15351TIP3    H167544   2.347   2.109  13.715 -0.2075 -0.1661 -1.9482
15351TIP3    H267545   2.420   2.239  13.686  0.3556  0.1859  0.7273
15352TIP3   OH267546   5.975   3.525   5.830  0.2208 -0.2523 -0.2417
15352TIP3    H167547   5.935   3.610   5.846 -1.3725 -0.8721 -0.7366
15352TIP3    H267548   5.907   3.462   5.854  1.6698 -1.4370  0.9590
15353TIP3   OH267549   3.504   2.780  10.831  0.7089 -0.1941  0.1653
15353TIP3    H167550   3.449   2.717  10.785 -0.0333  0.0155  0.7288
15353TIP3    H267551   3.463   2.865  10.813  1.0540  0.0027  0.3006
15354TIP3   OH267552   6.477   3.417  14.263  0.0326 -0.0038 -0.2199
15354TIP3    H167553   6.401   3.465  14.230  0.1879 -0.3017 -1.0184
15354TIP3    H267554   6.544   3.484  14.276 -0.7688  0.4875  1.8222
15355TIP3   OH267555   4.764   1.899  12.222  0.4433  0.0024  0.5625
15355TIP3    H167556   4.700   1.892  12.151  0.8653  0.0915  0.1737
15355TIP3    H267557   4.723   1.852  12.295  0.8570 -1.8304 -0.3252
15356TIP3   OH267558   6.443   5.633   0.864  0.3467 -0.4263 -0.3999
15356TIP3    H167559   6.481   5.627   0.951 -0.0074 -0.2038 -0.2287
15356TIP3    H267560   6.516   5.656   0.807  0.4109  0.2999 -0.0273
15357TIP3   OH267561   6.188   2.386  12.880 -0.1743  0.1846 -0.2911
15357TIP3    H167562   6.169   2.458  12.819 -1.4875  1.3735  1.4022
15357TIP3    H267563   6.232   2.429  12.954 -0.2923 -0.8916  0.4161
15358TIP3   OH267564   3.310   3.655  10.957 -0.3717  0.4594 -0.3404
15358TIP3    H167565   3.261   3.593  11.013 -0.7038 -0.6102 -1.7543
15358TIP3    H267566   3.271   3.644  10.870  1.8485  0.1309 -1.3684
15359TIP3   OH267567   1.680   6.797   4.158  0.5605 -0.0452  0.4989
15359TIP3    H167568   1.719   6.725   4.109 -1.5778 -1.8719  1.2832
15359TIP3    H267569   1.647   6.857   4.091  1.3148 -0.4024 -0.2003
15360TIP3   OH267570   1.724   6.613  14.078  0.0860 -0.4957 -0.2441
15360TIP3    H167571   1.750   6.584  14.166 -0.0961  0.1124  0.0124
15360TIP3    H267572   1.658   6.549  14.051  1.0637 -1.4487 -0.4804
15361TIP3   OH267573   2.075   0.486  15.734  0.0616  0.3560  0.2347
15361TIP3    H167574   2.024   0.514  15.810 -2.2153 -1.8434 -0.3611
15361TIP3    H267575   2.012   0.481  15.662  0.8083 -3.1709 -0.3611
15362TIP3   OH267576   4.614   3.388   0.776  0.4323 -0.9220  0.4678
15362TIP3    H167577   4.548   3.441   0.731  0.4996 -0.7373  0.5868
15362TIP3    H267578   4.590   3.298   0.755  0.5059 -0.8353 -0.0033
15363TIP3   OH267579   3.899   1.648  11.761  0.6813  0.7047  0.0578
15363TIP3    H167580   3.954   1.589  11.710 -0.9340  1.1186 -2.3484
15363TIP3    H267581   3.828   1.593  11.794  1.0686  0.6659  0.8373
15364TIP3   OH267582   5.212   5.514   2.172  0.2495 -0.4690 -0.1277
15364TIP3    H167583   5.121   5.497   2.197  1.0321 -0.9642  2.7687
15364TIP3    H267584   5.251   5.555   2.249  2.9383 -1.9580 -0.5667
15365TIP3   OH267585   5.971   2.473  13.235  0.5332 -0.1334 -0.3031
15365TIP3    H167586   5.989   2.507  13.148  1.7705 -0.0268 -0.0247
15365TIP3    H267587   6.016   2.389  13.238 -1.6366 -1.3550 -0.6272
15366TIP3   OH267588   4.081   4.419   3.110  0.5483  0.7638 -0.1964
15366TIP3    H167589   4.137   4.489   3.144 -0.8060  2.6687 -1.6690
15366TIP3    H267590   4.043   4.456   3.030 -2.0247 -0.8134  0.2062
15367TIP3   OH267591   2.716   1.627  12.453  0.0742 -0.0266 -0.1571
15367TIP3    H167592   2.688   1.569  12.382 -0.2244 -0.5505  0.3795
15367TIP3    H267593   2.810   1.610  12.462  0.4679  1.2869 -1.5531
15368TIP3   OH267594   6.134   6.029  12.135  0.1943  0.0071 -0.2598
15368TIP3    H167595   6.180   5.982  12.066 -1.4832 -0.8789 -0.8304
15368TIP3    H267596   6.150   6.122  12.117  1.4056 -0.2586 -0.6439
15369TIP3   OH267597   2.614   2.078  15.906 -0.0366  0.2084 -0.1111
15369TIP3    H167598   2.559   2.047  15.977  0.8595  1.8146  1.3592
15369TIP3    H267599   2.581   2.166  15.886  1.2385  0.7475  0.0392
15370TIP3   OH267600   0.246   5.708   5.436  0.0462 -0.7105  0.0217
15370TIP3    H167601   0.306   5.715   5.510  0.5136  1.9107 -0.5044
15370TIP3    H267602   0.299   5.729   5.359 -1.4059  1.3326 -0.4982
15371TIP3   OH267603   6.540   0.360  10.924 -0.1302  0.4326 -0.1166
15371TIP3    H167604   6.594   0.347  10.846  0.0170 -0.3127  0.1068
15371TIP3    H267605   6.572   0.442  10.962  1.9963 -0.8145  0.9396
15372TIP3   OH267606   2.637   4.549   0.490 -0.1731 -0.0284 -0.5194
15372TIP3    H167607   2.570   4.506   0.542  0.1357 -0.5467 -0.5463
15372TIP3    H267608   2.609   4.641   0.486 -0.5209 -0.1057  0.0367
15373TIP3   OH267609   1.334   1.319  12.911  0.2332  0.6539  0.1868
15373TIP3    H167610   1.255   1.270  12.886  1.6271 -1.4634 -0.4248
15373TIP3    H267611   1.316   1.351  12.999 -0.5643 -1.6136  0.9301
15374TIP3   OH267612   1.012   5.613  11.001 -0.2202  0.2479  0.4655
15374TIP3    H167613   1.075   5.638  10.934 -0.2940  0.3819  0.4462
15374TIP3    H267614   0.945   5.681  10.998 -0.8724 -0.3938 -0.1917
15375TIP3   OH267615   1.272   0.115  12.697 -0.3903  0.7431 -0.6839
15375TIP3    H167616   1.276   0.020  12.691 -1.4060  0.6577 -0.2660
15375TIP3    H267617   1.359   0.141  12.729  0.3926  0.1013 -2.2129
15376TIP3   OH267618   4.636   6.796  10.431 -0.3858  0.1558  0.1367
15376TIP3    H167619   4.686   6.870  10.395 -1.9245  0.6377 -1.1156
15376TIP3    H267620   4.583   6.835  10.501 -1.4364  0.3301 -0.7373
15377TIP3   OH267621   3.447   3.175   5.563  0.3853 -0.2451 -0.3034
15377TIP3    H167622   3.373   3.209   5.613 -0.9234 -2.1364 -0.8700
15377TIP3    H267623   3.421   3.185   5.471  1.9106  1.3260 -0.6280
15378TIP3   OH267624   0.683   1.417  15.136 -0.9456  0.3972 -0.3319
15378TIP3    H167625   0.748   1.411  15.206  0.7095  0.3568 -1.7917
15378TIP3    H267626   0.607   1.457  15.176 -0.0433  0.3764  1.4736
15379TIP3   OH267627   3.017   2.366   1.647  0.1449  0.0553  0.2472
15379TIP3    H167628   2.969   2.391   1.726  1.7701  1.7725  0.7679
15379TIP3    H267629   2.985   2.426   1.580  0.6243  0.3589  0.2828
15380TIP3   OH267630   4.141   3.065  13.413  0.7158  0.3070 -0.1653
15380TIP3    H167631   4.164   3.158  13.423  1.5503  0.0027  0.9003
15380TIP3    H267632   4.124   3.035  13.502  3.2507 -1.2682 -0.1078
15381TIP3   OH267633   3.479   4.871   0.430 -0.3465  0.3258 -0.1213
15381TIP3    H167634   3.422   4.940   0.396  1.7921  0.4664 -3.9706
15381TIP3    H267635   3.462   4.795   0.374 -0.3885 -1.3476  2.0222
15382TIP3   OH267636   1.191   2.611   5.449  0.3395  0.6865 -0.3323
15382TIP3    H167637   1.252   2.574   5.385  0.5957  0.4283  0.0596
15382TIP3    H267638   1.180   2.542   5.514  0.2952  1.0533  0.0522
15383TIP3   OH267639   0.547   2.140  16.664 -0.4221  0.5175  0.1133
15383TIP3    H167640   0.529   2.175  16.752 -0.5339 -1.0271  0.7458
15383TIP3    H267641   0.633   2.176  16.642 -1.0314  2.1012  0.2077
15384TIP3   OH267642   2.638   6.802   5.911  0.1279  0.5977  0.2731
15384TIP3    H167643   2.685   6.726   5.876 -1.1630 -0.4456  0.7233
15384TIP3    H267644   2.706   6.856   5.952  0.7483 -1.9454  2.8981
15385TIP3   OH267645   0.801   2.019  13.035 -0.3164  0.4928 -0.5560
15385TIP3    H167646   0.737   2.075  13.079 -1.6795 -1.3515 -0.0312
15385TIP3    H267647   0.748   1.961  12.980  0.8006 -1.5025  0.3574
15386TIP3   OH267648   2.013   4.404   3.299  0.2126 -0.1812  0.1575
15386TIP3    H167649   2.095   4.437   3.262 -0.1425  0.9888  0.3963
15386TIP3    H267650   1.947   4.469   3.275 -0.2473  0.0190  1.8262
15387TIP3   OH267651   4.324   0.246  14.570 -0.0136  0.2824 -0.2894
15387TIP3    H167652   4.335   0.158  14.534 -0.1220  0.1059  0.0942
15387TIP3    H267653   4.386   0.300  14.521  0.2239 -0.0543 -0.3690
15388TIP3   OH267654   2.776   4.238  12.348  0.3810 -0.0803  0.0636
15388TIP3    H167655   2.777   4.180  12.425 -0.2832  0.0089  0.1394
15388TIP3    H267656   2.747   4.182  12.276  0.3759 -0.0041  0.0060
15389TIP3   OH267657   6.553   3.839   3.034  0.1379 -0.6801  0.0019
15389TIP3    H167658   6.619   3.772   3.014  0.6591 -0.2388  0.2194
15389TIP3    H267659   6.508   3.805   3.112  0.3399 -0.8240  0.0577
15390TIP3   OH267660   4.573   0.610  15.081  0.1228  0.1595  0.2791
15390TIP3    H167661   4.591   0.694  15.039  0.9171  0.3132  0.8943
15390TIP3    H267662   4.480   0.611  15.100  0.2828  1.3043  1.1053
15391TIP3   OH267663   2.989   1.546   2.814  0.2432 -0.2728 -0.1871
15391TIP3    H167664   3.041   1.617   2.852 -3.1360  1.1811  2.2653
15391TIP3    H267665   2.964   1.579   2.728  1.2451  0.1439 -0.3291
15392TIP3   OH267666   5.717   5.375  11.490  0.2212 -0.4360 -0.5388
15392TIP3    H167667   5.652   5.434  11.452  0.9014  1.0689  0.5489
15392TIP3    H267668   5.788   5.432  11.520  0.6727 -1.7487  1.0621
15393TIP3   OH267669   1.756   2.775  17.156  0.3799 -0.5675  0.5517
15393TIP3    H167670   1.707   2.837  17.102  0.5683  2.0554  3.1792
15393TIP3    H267671   1.847   2.783  17.127  0.3049 -0.1044  0.4494
15394TIP3   OH267672   0.853   4.873  10.981 -0.0026 -0.0711  0.0842
15394TIP3    H167673   0.911   4.872  11.058 -1.2650 -0.2020  1.0615
15394TIP3    H267674   0.775   4.920  11.010  0.3879  1.9415 -1.8318
15395TIP3   OH267675   6.791   5.639   0.464  0.0129  0.2174 -0.2744
15395TIP3    H167676   6.700   5.617   0.487  0.4796 -0.8152  0.6860
15395TIP3    H267677   6.838   5.635   0.546  1.2028 -0.6710 -0.9684
15396TIP3   OH267678   5.206   2.382   0.996 -0.4464  0.1083 -0.1933
15396TIP3    H167679   5.142   2.395   1.065 -2.5632  0.2661 -2.0653
15396TIP3    H267680   5.262   2.460   1.000 -1.2541  0.6667  0.6308
15397TIP3   OH267681   2.558   3.286   0.495 -0.1793  0.1704  0.8006
15397TIP3    H167682   2.622   3.215   0.490 -1.3748 -0.8934 -2.4694
15397TIP3    H267683   2.473   3.241   0.495 -0.9514  1.5875  0.3940
15398TIP3   OH267684   2.315   6.193  16.703  0.5949 -0.0828  0.8558
15398TIP3    H167685   2.301   6.221  16.794 -1.4061 -0.3710  0.6836
15398TIP3    H267686   2.264   6.256  16.651 -1.2777 -2.0027  0.2282
15399TIP3   OH267687   0.588   4.863  15.262 -0.5176  0.2301  0.3754
15399TIP3    H167688   0.636   4.932  15.217 -0.0027 -0.8158 -0.7266
15399TIP3    H267689   0.632   4.782  15.237 -1.3175 -0.5439  1.3614
15400TIP3   OH267690   3.167   5.087   4.344  0.5963 -0.1222 -0.2526
15400TIP3    H167691   3.198   5.154   4.405  2.6372 -1.3024  0.0891
15400TIP3    H267692   3.148   5.011   4.400 -3.8626  0.6975 -0.3126
15401TIP3   OH267693   6.608   6.553   1.010  0.1535  0.4569  0.0133
15401TIP3    H167694   6.524   6.517   1.041 -2.2124  2.7253 -3.0660
15401TIP3    H267695   6.631   6.497   0.936 -0.8964  2.1261 -1.6610
15402TIP3   OH267696   0.327   5.061  11.040 -0.4800 -0.0340  0.3582
15402TIP3    H167697   0.249   5.086  10.991 -1.5886 -0.3737  1.8798
15402TIP3    H267698   0.302   5.070  11.132 -0.2661 -4.4379  1.0501
15403TIP3   OH267699   0.105   1.331   4.525  0.0517  0.0824 -0.4634
15403TIP3    H167700   0.091   1.424   4.545  0.1993  0.2407 -1.0706
15403TIP3    H267701   0.027   1.287   4.559  0.3852  0.3083  0.6253
15404TIP3   OH267702   0.954   0.123  11.267  0.2673 -0.1871  0.3994
15404TIP3    H167703   1.041   0.161  11.255  0.1129  0.3577  0.9235
15404TIP3    H267704   0.919   0.115  11.179  0.4649  0.5351  0.2427
15405TIP3   OH267705   1.307   3.120   1.727 -0.1886  0.0025 -0.0421
15405TIP3    H167706   1.359   3.050   1.767 -1.9658 -1.3053  0.0909
15405TIP3    H267707   1.235   3.075   1.685 -1.5126  1.7792  0.2175
15406TIP3   OH267708   0.082   5.490   4.076  0.0696  0.6145 -0.4939
15406TIP3    H167709   0.094   5.558   4.142  1.8950  0.2515 -0.3953
15406TIP3    H267710   0.159   5.434   4.085 -1.8861 -2.2297  0.2823
15407TIP3   OH267711   3.269   3.448  16.306 -0.1619  0.3648 -0.0319
15407TIP3    H167712   3.248   3.429  16.215 -0.4648 -0.3055  0.1756
15407TIP3    H267713   3.269   3.544  16.311 -0.2043  0.4049 -0.7158
15408TIP3   OH267714   5.027   3.328   0.545  0.1541 -0.1124  0.3268
15408TIP3    H167715   4.982   3.411   0.529 -2.0358 -1.3434 -0.3644
15408TIP3    H267716   5.013   3.278   0.464  0.3024 -1.6187  1.2037
15409TIP3   OH267717   5.173   6.195  14.638 -0.0114  0.1649  0.4972
15409TIP3    H167718   5.144   6.137  14.709  0.4825 -1.1063 -0.3119
15409TIP3    H267719   5.146   6.150  14.558  1.5341  0.4027 -0.1928
15410TIP3   OH267720   5.165   4.594   0.118  0.7220  0.1113 -0.0520
15410TIP3    H167721   5.135   4.584   0.028  0.8021  3.4133 -0.5596
15410TIP3    H267722   5.089   4.626   0.166 -0.2702 -4.5376  1.9673
15411TIP3   OH267723   1.494   6.005  11.937 -0.0366  0.1453  0.2963
15411TIP3    H167724   1.531   6.042  11.857  0.3296  0.4471  0.6011
15411TIP3    H267725   1.567   5.956  11.977  0.5709  2.0671  1.7299
15412TIP3   OH267726   4.644   4.744  11.166 -0.1257  0.5060  0.7010
15412TIP3    H167727   4.697   4.776  11.093 -1.1085  0.1790 -0.1666
15412TIP3    H267728   4.579   4.813  11.180  1.2436  1.5002  2.5859
15413TIP3   OH267729   0.894   5.839   1.853  0.2652  0.2451 -0.0158
15413TIP3    H167730   0.962   5.813   1.914  0.1523 -0.3186 -0.1249
15413TIP3    H267731   0.835   5.894   1.905  0.3091 -0.0166  0.3166
15414TIP3   OH267732   3.708   0.961   0.976 -0.3470 -0.5147 -0.0038
15414TIP3    H167733   3.761   0.968   1.055  0.7185  0.8881 -0.7888
15414TIP3    H267734   3.718   0.871   0.948  0.4062 -0.6593  0.6904
15415TIP3   OH267735   6.626   1.926  15.306 -0.3070 -0.4438  0.1433
15415TIP3    H167736   6.669   2.006  15.334 -0.3465  0.2943 -1.7788
15415TIP3    H267737   6.532   1.946  15.308 -0.2563  0.8183 -3.5766
15416TIP3   OH267738   3.772   0.631  13.806 -0.0559  0.2465  0.8124
15416TIP3    H167739   3.736   0.712  13.770 -0.7117  0.0537  1.0159
15416TIP3    H267740   3.697   0.571  13.810  0.5951 -0.6853 -0.2315
15417TIP3   OH267741   5.613   5.997  13.678 -0.4058 -0.7549 -0.4632
15417TIP3    H167742   5.518   6.005  13.690 -0.0454  0.4120  2.4435
15417TIP3    H267743   5.632   5.905  13.695 -1.0049 -1.0464 -1.2956
15418TIP3   OH267744   4.120   2.680  15.189  0.6203 -0.1506  0.2059
15418TIP3    H167745   4.085   2.611  15.133 -1.4945  0.7390  0.3670
15418TIP3    H267746   4.096   2.654  15.278  0.8093  0.2367  0.3759
15419TIP3   OH267747   5.204   3.340  11.109  0.2852 -0.3715  0.7792
15419TIP3    H167748   5.232   3.405  11.174 -0.1347 -0.2032  0.7927
15419TIP3    H267749   5.161   3.391  11.041 -2.1799 -0.8018  1.8889
15420TIP3   OH267750   3.897   5.266  15.818  0.1156  0.6986  0.0494
15420TIP3    H167751   3.818   5.222  15.848  0.7640  0.0203  0.8310
15420TIP3    H267752   3.903   5.345  15.873  2.4490 -1.5924  3.5393
15421TIP3   OH267753   1.599   5.167   3.429 -0.1977 -0.0172 -0.3866
15421TIP3    H167754   1.513   5.199   3.458  0.4080  0.9671  0.3696
15421TIP3    H267755   1.654   5.174   3.507  1.0524  1.0979 -1.3458
15422TIP3   OH267756   0.840   5.465   2.371 -0.6708 -0.6719  0.3047
15422TIP3    H167757   0.882   5.549   2.353 -1.0671 -0.6141 -0.4185
15422TIP3    H267758   0.905   5.400   2.344 -1.4065 -0.5912 -1.9190
15423TIP3   OH267759   6.720   4.662   0.650 -0.9685  0.0791  0.2086
15423TIP3    H167760   6.784   4.701   0.709 -1.9973  2.2517 -0.0412
15423TIP3    H267761   6.771   4.632   0.575  0.0382 -0.5008  1.1054
15424TIP3   OH267762   4.185   0.603  14.228 -0.2514  0.1348  0.2692
15424TIP3    H167763   4.232   0.676  14.188  0.1318 -0.2206  0.0724
15424TIP3    H267764   4.110   0.645  14.271 -1.8203  0.3427 -2.4585
15425TIP3   OH267765   5.054   5.963   5.301 -0.0969 -0.8262 -0.2454
15425TIP3    H167766   5.034   5.877   5.264 -0.5742 -1.1588  0.7558
15425TIP3    H267767   5.080   6.016   5.226 -0.8753 -1.5248 -1.0202
15426TIP3   OH267768   5.423   2.562  10.648 -0.7839 -0.5720 -0.2802
15426TIP3    H167769   5.510   2.529  10.623 -0.0318  1.0720  0.0083
15426TIP3    H267770   5.362   2.512  10.594  0.4070 -1.0717 -1.2108
15427TIP3   OH267771   0.342   6.340  12.731  0.2723  0.7861 -0.0043
15427TIP3    H167772   0.419   6.285  12.744  0.0935  0.9516  2.0113
15427TIP3    H267773   0.300   6.304  12.652  2.5884  0.9682 -1.3924
15428TIP3   OH267774   6.589   0.839   0.449  0.4583  0.9553  0.6020
15428TIP3    H167775   6.619   0.871   0.364 -1.7061  3.2966  0.5923
15428TIP3    H267776   6.612   0.746   0.449 -1.1730  0.3471 -3.4060
15429TIP3   OH267777   2.448   6.590   5.829 -0.5003 -0.3128 -0.2090
15429TIP3    H167778   2.459   6.666   5.885 -0.5528  0.1011 -0.7505
15429TIP3    H267779   2.479   6.516   5.882  0.3019  0.1837  0.0278
15430TIP3   OH267780   4.380   3.955   1.495  0.1205  0.1140 -0.2738
15430TIP3    H167781   4.405   4.009   1.420 -0.3625  0.0678 -0.4721
15430TIP3    H267782   4.455   3.898   1.509  0.2814  0.2345 -0.6253
15431TIP3   OH267783   3.705   3.132  12.125  0.4445  0.4237 -0.6124
15431TIP3    H167784   3.632   3.193  12.111  0.1426  0.4128  0.8098
15431TIP3    H267785   3.783   3.188  12.128  0.1046  0.8549  1.3150
15432TIP3   OH267786   5.085   3.684  12.733  0.9586  0.1122  0.3188
15432TIP3    H167787   5.060   3.685  12.825 -1.3780  0.5778 -0.2345
15432TIP3    H267788   5.004   3.661  12.687  2.0504 -0.0530 -1.6144
15433TIP3   OH267789   0.403   2.194  13.006  0.5408  0.3243 -0.2270
15433TIP3    H167790   0.338   2.177  13.075  1.5420  0.4624  0.7955
15433TIP3    H267791   0.471   2.128  13.021 -0.2384 -1.0836 -2.4985
15434TIP3   OH267792   5.186   2.229   2.355 -0.1714  0.8808  0.8295
15434TIP3    H167793   5.099   2.242   2.317 -0.8129  0.3616  2.0425
15434TIP3    H267794   5.187   2.287   2.432 -0.1359 -0.4251  1.8433
15435TIP3   OH267795   6.778   4.073  11.104 -0.1289  0.6784 -0.0800
15435TIP3    H167796   6.786   4.138  11.174 -0.6399  1.2326 -0.5224
15435TIP3    H267797   6.850   4.012  11.120  0.5276  1.5016  0.1958
15436TIP3   OH267798   3.317   4.413  16.201  0.1429  0.5855 -0.2753
15436TIP3    H167799   3.243   4.469  16.226 -0.9605 -0.9419  0.0402
15436TIP3    H267800   3.381   4.425  16.272  0.1832  1.8578 -0.5062
15437TIP3   OH267801   1.773   0.961   5.702  0.6895 -0.2979 -0.0046
15437TIP3    H167802   1.802   0.871   5.691  2.3520  0.3317 -1.0638
15437TIP3    H267803   1.684   0.962   5.667  0.9062 -1.3705 -0.6033
15438TIP3   OH267804   6.069   3.377  13.858  0.2273  0.7739 -0.4077
15438TIP3    H167805   6.014   3.400  13.783  1.8070  1.5800 -1.3774
15438TIP3    H267806   6.158   3.371  13.822  0.6752 -1.5713  0.8763
15439TIP3   OH267807   0.282   4.707   2.980  0.3598 -0.4078  0.1238
15439TIP3    H167808   0.368   4.671   2.959 -0.0294 -1.2142 -0.1053
15439TIP3    H267809   0.228   4.631   3.000 -0.4090  0.0670 -0.1165
15440TIP3   OH267810   1.371   2.418  16.778 -0.5822  0.2319  0.0282
15440TIP3    H167811   1.390   2.476  16.705 -0.0016  0.7380  0.5673
15440TIP3    H267812   1.276   2.421  16.787 -0.4753  2.9633  1.4974
15441TIP3   OH267813   5.019   1.613   4.684  0.7664  0.3101  0.5203
15441TIP3    H167814   4.964   1.672   4.735 -0.8545 -0.8705  0.2075
15441TIP3    H267815   5.054   1.552   4.748 -1.5634 -1.3999  0.2693
15442TIP3   OH267816   1.341   4.998   5.779 -0.1981  0.3427 -0.1687
15442TIP3    H167817   1.422   5.034   5.813 -0.4672  2.0132 -1.1963
15442TIP3    H267818   1.325   4.919   5.832  0.3560  1.7653  2.2504
15443TIP3   OH267819   2.177   6.317  13.974 -0.0590 -0.0094 -0.2375
15443TIP3    H167820   2.171   6.394  14.030 -1.6989 -0.3717  0.1201
15443TIP3    H267821   2.204   6.352  13.889  0.1000  0.8453  0.1511
15444TIP3   OH267822   5.437   2.739  10.847  0.3461  0.3013 -0.0058
15444TIP3    H167823   5.444   2.688  10.767  0.8706  0.9904 -0.4151
15444TIP3    H267824   5.409   2.677  10.913 -2.4983  0.1764 -1.1921
15445TIP3   OH267825   4.615   1.243   2.591 -0.0042  0.0048 -0.5517
15445TIP3    H167826   4.547   1.309   2.582  1.4127  1.5258 -0.5765
15445TIP3    H267827   4.583   1.184   2.659 -0.5124  1.8016  0.8425
15446TIP3   OH267828   6.001   6.680   1.310  0.1806  0.3822  0.5676
15446TIP3    H167829   6.058   6.659   1.236 -0.5956  1.0825 -0.2757
15446TIP3    H267830   5.989   6.598   1.357  1.3645  0.1035  0.4012
15447TIP3   OH267831   1.610   3.294  11.141 -0.1654  0.2726 -0.0156
15447TIP3    H167832   1.687   3.335  11.180 -0.2959 -0.1241  0.6949
15447TIP3    H267833   1.639   3.265  11.054  0.5468 -0.0265  0.3066
15448TIP3   OH267834   5.729   0.738  15.476  0.3225 -0.2027  0.1402
15448TIP3    H167835   5.725   0.739  15.380 -0.1369  0.0526  0.1574
15448TIP3    H267836   5.805   0.793  15.497  0.2265  0.0177 -0.0725
15449TIP3   OH267837   6.766   2.687  16.058  0.4063 -0.6646 -0.7693
15449TIP3    H167838   6.802   2.598  16.059  0.3005 -0.7376 -2.0261
15449TIP3    H267839   6.671   2.675  16.056  0.1451 -0.4708  2.9699
15450TIP3   OH267840   3.021   1.483   3.587 -0.8269 -0.1539  0.4226
15450TIP3    H167841   3.002   1.559   3.531 -0.4420  1.1446  1.9625
15450TIP3    H267842   2.970   1.412   3.549 -1.4436  0.9419 -0.9150
15451TIP3   OH267843   6.458   4.882   4.401  0.2668 -0.2489  0.7534
15451TIP3    H167844   6.377   4.931   4.409 -0.3504 -0.8614 -1.2369
15451TIP3    H267845   6.464   4.832   4.483 -1.8042 -0.8270  0.6069
15452TIP3   OH267846   0.833   4.725  11.701  0.3844  0.0553  0.0889
15452TIP3    H167847   0.902   4.687  11.646  1.5458  2.0071  0.0728
15452TIP3    H267848   0.838   4.676  11.783  2.9614  1.1475  0.6838
15453TIP3   OH267849   4.384   5.035   2.449 -0.0226 -0.0306 -0.4097
15453TIP3    H167850   4.411   5.084   2.371  0.4474 -0.3549 -0.4535
15453TIP3    H267851   4.331   4.963   2.415 -2.6823  1.6965 -0.2085
15454TIP3   OH267852   4.001   0.743  15.595  0.0330  0.1011  0.7967
15454TIP3    H167853   4.064   0.775  15.660  0.6917  0.9471 -0.2334
15454TIP3    H267854   3.916   0.773  15.628  0.2561 -0.2741  1.7363
15455TIP3   OH267855   5.605   5.081   4.880  0.5470 -0.2644 -0.1463
15455TIP3    H167856   5.668   5.022   4.921  1.8731  1.2093  0.0266
15455TIP3    H267857   5.601   5.053   4.789 -0.7701 -2.1726  0.4276
15456TIP3   OH267858   3.849   1.224   5.060  0.3455 -0.0601 -0.4453
15456TIP3    H167859   3.765   1.180   5.052 -0.0432 -0.0816  2.6745
15456TIP3    H267860   3.829   1.317   5.048  0.0231 -0.1482 -0.5952
15457TIP3   OH267861   2.470   0.187  12.695 -0.3570 -0.2217 -0.1540
15457TIP3    H167862   2.488   0.094  12.705  1.7620  0.2112  0.6058
15457TIP3    H267863   2.494   0.206  12.604  0.0029 -0.2733 -0.0725
15458TIP3   OH267864   5.685   6.538  12.760 -0.6554 -0.3559  0.1457
15458TIP3    H167865   5.610   6.540  12.819 -0.0136 -1.0151  1.0355
15458TIP3    H267866   5.677   6.454  12.714 -0.6475 -0.2774  0.0035
15459TIP3   OH267867   1.448   2.021  15.617 -0.2545  0.0903 -0.4762
15459TIP3    H167868   1.492   1.977  15.543  0.2268 -1.5115  0.7081
15459TIP3    H267869   1.490   2.107  15.622  1.8719 -0.9090 -0.1943
15460TIP3   OH267870   6.140   3.298   2.017  0.1139 -0.3504  0.1303
15460TIP3    H167871   6.182   3.289   1.931  1.4071  1.1326  0.5550
15460TIP3    H267872   6.072   3.363   2.004 -0.2758 -0.7634  0.0575
15461TIP3   OH267873   2.754   0.189  15.433  0.0210 -0.0658  0.1393
15461TIP3    H167874   2.734   0.107  15.479  3.0140 -1.5074 -0.8135
15461TIP3    H267875   2.745   0.167  15.340 -0.2227  1.0385 -0.1140
15462TIP3   OH267876   6.273   3.443   2.619 -0.6567  0.2696  0.1141
15462TIP3    H167877   6.217   3.508   2.660 -1.4161 -1.2517  1.5927
15462TIP3    H267878   6.322   3.403   2.691  0.4715 -0.1944 -0.8509
15463TIP3   OH267879   4.450   0.350   3.563  0.1814  0.1088 -0.1074
15463TIP3    H167880   4.443   0.415   3.493  1.2757  0.5427  0.1530
15463TIP3    H267881   4.420   0.268   3.524 -1.6140  0.8254 -0.3286
15464TIP3   OH267882   5.943   5.979   5.603  0.8296 -0.0026  0.0559
15464TIP3    H167883   6.021   5.928   5.581 -0.0487 -0.6975 -1.6788
15464TIP3    H267884   5.913   6.014   5.518 -1.3839 -0.7296  0.4818
15465TIP3   OH267885   3.286   1.434   5.826  0.3286 -0.2769 -0.0359
15465TIP3    H167886   3.373   1.428   5.864  0.0440 -1.7043  0.4551
15465TIP3    H267887   3.249   1.346   5.835 -1.6136  0.5577  0.8179
15466TIP3   OH267888   4.272   2.879  13.844 -0.0777  0.2288 -0.3043
15466TIP3    H167889   4.265   2.826  13.923 -1.4951  1.6858  0.6192
15466TIP3    H267890   4.297   2.966  13.876 -1.0633  0.9411 -1.3938
15467TIP3   OH267891   6.344   1.186   6.337 -0.0008 -0.0887  0.1913
15467TIP3    H167892   6.428   1.151   6.307 -1.0561 -0.3184 -2.7748
15467TIP3    H267893   6.298   1.109   6.373  0.6200 -0.1602  0.8644
15468TIP3   OH267894   1.214   0.878   4.111  0.4108 -0.1790  0.7880
15468TIP3    H167895   1.153   0.898   4.182  1.3382  3.1035  0.8207
15468TIP3    H267896   1.171   0.912   4.032  1.3962  0.5666  0.5516
15469TIP3   OH267897   0.821   5.502  16.283 -0.3566 -0.0435  0.2631
15469TIP3    H167898   0.878   5.427  16.270  0.9949  1.1100 -0.8029
15469TIP3    H267899   0.743   5.483  16.232 -0.4070 -1.0906  0.7128
15470TIP3   OH267900   2.806   4.699   0.225  0.5650  0.2962  0.1073
15470TIP3    H167901   2.793   4.717   0.132 -2.6138 -0.4591  0.2716
15470TIP3    H267902   2.747   4.759   0.269  0.5470 -0.6911  1.4988
15471TIP3   OH267903   1.460   0.481   0.228  0.4864  0.4610 -0.2526
15471TIP3    H167904   1.386   0.449   0.279  0.0287 -0.1650 -1.2744
15471TIP3    H267905   1.422   0.538   0.162  1.2870  3.1973  1.4812
15472TIP3   OH267906   3.530   4.181  15.175  0.4058  0.2103 -0.1711
15472TIP3    H167907   3.506   4.265  15.214 -1.2435  0.1402 -0.9592
15472TIP3    H267908   3.619   4.195  15.141 -0.1186  1.8669 -0.9473
15473TIP3   OH267909   0.178   1.287  16.587  0.6823 -0.5041  0.3586
15473TIP3    H167910   0.223   1.205  16.567  0.5092 -0.1774 -1.5083
15473TIP3    H267911   0.241   1.356  16.565  0.0048 -0.0960 -0.3732
15474TIP3   OH267912   3.964   6.108   2.677 -0.3910  0.5830  0.1480
15474TIP3    H167913   3.965   6.015   2.697  1.2905  0.7761  1.1659
15474TIP3    H267914   4.025   6.118   2.604 -1.0241  0.8302 -0.3653
15475TIP3   OH267915   2.681   2.781   4.653 -0.5428  0.3496 -0.3317
15475TIP3    H167916   2.738   2.822   4.718  0.4695  0.2563 -1.1222
15475TIP3    H267917   2.732   2.705   4.622 -1.3569 -0.0859 -0.6278
15476TIP3   OH267918   0.933   4.880  12.283  0.3954 -0.0197 -0.0354
15476TIP3    H167919   1.002   4.827  12.244 -1.5896 -1.6769 -1.5815
15476TIP3    H267920   0.910   4.944  12.215  1.8290  2.0673  1.3067
15477TIP3   OH267921   4.832   2.382  10.854 -0.0495  0.1246 -0.0793
15477TIP3    H167922   4.916   2.424  10.837 -0.2735  0.3818 -0.5697
15477TIP3    H267923   4.851   2.317  10.922  0.3911  0.7037  0.3572
15478TIP3   OH267924   1.715   5.400  16.257  0.1613  0.0680 -0.2890
15478TIP3    H167925   1.707   5.456  16.179 -1.2907 -1.9526 -1.7005
15478TIP3    H267926   1.728   5.312  16.222 -4.3533 -1.5852  1.4472
15479TIP3   OH267927   3.080   1.609   3.223 -0.6368  0.1496 -0.1938
15479TIP3    H167928   3.121   1.682   3.177 -0.8723  0.7695  0.5511
15479TIP3    H267929   3.054   1.548   3.154 -1.9707  1.5463 -0.9710
15480TIP3   OH267930   6.348   0.008   5.730 -0.2487 -0.0059 -0.0158
15480TIP3    H167931   6.374   0.004   5.822 -0.0146 -1.3196 -0.1129
15480TIP3    H267932   6.418   0.058   5.687 -0.2884  0.4923  0.5020
15481TIP3   OH267933   1.244   0.115   5.559  0.2720  0.3814  0.3024
15481TIP3    H167934   1.322   0.060   5.565  1.0011  1.3666  0.1189
15481TIP3    H267935   1.276   0.204   5.571 -0.7177  0.8834 -0.5697
15482TIP3   OH267936   5.973   2.201   2.921  0.1117  0.5501 -0.0050
15482TIP3    H167937   5.937   2.253   2.849  0.3158  0.8764  0.1276
15482TIP3    H267938   5.906   2.135   2.938 -0.4422  1.1664  0.2514
15483TIP3   OH267939   0.181   0.402  14.131  0.2126  0.2992 -0.8206
15483TIP3    H167940   0.121   0.328  14.121  0.6704 -0.2333  0.2510
15483TIP3    H267941   0.129   0.479  14.106 -0.6202 -0.2595 -0.8212
15484TIP3   OH267942   2.536   5.317   4.373  0.6475  0.1941 -0.0591
15484TIP3    H167943   2.564   5.405   4.398  1.3224 -0.4273  1.4534
15484TIP3    H267944   2.595   5.258   4.420 -0.0251 -1.0855 -0.7587
15485TIP3   OH267945   1.427   2.549  10.111 -0.2013 -0.4435 -0.3306
15485TIP3    H167946   1.451   2.457  10.123 -0.5625 -0.5748 -0.6182
15485TIP3    H267947   1.375   2.550  10.031 -2.9637 -0.5157  1.3117
15486TIP3   OH267948   4.297   5.748  11.632 -0.2254  0.3921  0.4370
15486TIP3    H167949   4.333   5.816  11.689  3.2732 -1.7409  1.0415
15486TIP3    H267950   4.339   5.763  11.547 -1.5717  0.5597 -0.2274
15487TIP3   OH267951   2.093   1.697   0.585  0.2789 -0.4167  0.2546
15487TIP3    H167952   2.157   1.754   0.542 -0.0820 -0.2918 -0.1215
15487TIP3    H267953   2.058   1.643   0.514  0.0492 -0.5603  0.4777
15488TIP3   OH267954   3.489   3.174  12.939 -0.1556  0.4497 -0.0223
15488TIP3    H167955   3.534   3.095  12.906  0.6648  0.6769  0.5258
15488TIP3    H267956   3.477   3.157  13.032 -0.7736  0.6116 -0.0686
15489TIP3   OH267957   1.605   3.631   3.996 -0.3234  0.0835  0.6833
15489TIP3    H167958   1.659   3.557   4.024 -0.7170 -1.8481 -2.9750
15489TIP3    H267959   1.515   3.601   4.009 -0.5186  0.9897  1.5088
15490TIP3   OH267960   5.941   0.003   1.718 -0.3200  0.2233  0.0183
15490TIP3    H167961   6.013   0.002   1.655 -0.3799  0.6506 -0.0614
15490TIP3    H267962   5.960   0.078   1.775 -0.1245 -0.3146  0.6730
15491TIP3   OH267963   2.833   4.326   4.752  0.0788 -0.1363 -0.4361
15491TIP3    H167964   2.845   4.366   4.665 -0.2512 -0.5318 -0.6677
15491TIP3    H267965   2.773   4.253   4.736 -1.9819  1.2662  0.5388
15492TIP3   OH267966   3.787   1.885   3.559 -0.1152  0.3292 -0.1575
15492TIP3    H167967   3.770   1.972   3.522 -0.1115  0.3406 -0.1320
15492TIP3    H267968   3.710   1.834   3.537  0.1062  0.1921 -0.6256
15493TIP3   OH267969   3.927   2.362  14.809 -0.1619 -0.0717  0.5625
15493TIP3    H167970   3.836   2.330  14.814 -0.0887 -0.3138  0.3372
15493TIP3    H267971   3.979   2.283  14.797  0.1500 -0.0100  1.4316
15494TIP3   OH267972   2.585   0.464  16.523 -0.2146 -0.5638 -0.1475
15494TIP3    H167973   2.502   0.510  16.516 -0.8074 -1.4188  0.9265
15494TIP3    H267974   2.650   0.533  16.538 -0.8835  0.0291  0.0620
15495TIP3   OH267975   4.204   2.255   0.934  0.0884 -0.1412 -0.2845
15495TIP3    H167976   4.180   2.331   0.882 -0.3816 -1.4360 -2.0429
15495TIP3    H267977   4.272   2.287   0.993  0.5494  1.4320 -1.5936
15496TIP3   OH267978   1.893   0.720   5.681 -0.0153 -0.0271  0.1669
15496TIP3    H167979   1.983   0.724   5.649  0.1758  0.9320  0.7613
15496TIP3    H267980   1.874   0.626   5.687  1.1616 -0.2639  0.6159
15497TIP3   OH267981   0.582   0.798  12.603  0.2157  0.1252 -0.0389
15497TIP3    H167982   0.525   0.865  12.566  1.3334  1.5579  0.7363
15497TIP3    H267983   0.618   0.753  12.527 -0.5545  0.3854 -0.5752
15498TIP3   OH267984   4.849   0.937  12.900 -0.0859  0.1191  0.1672
15498TIP3    H167985   4.766   0.981  12.920 -0.5181  0.4198 -2.0220
15498TIP3    H267986   4.825   0.845  12.888 -0.2440  0.2924 -1.0023
15499TIP3   OH267987   1.467   2.671   0.324 -0.0891 -0.0230 -0.0238
15499TIP3    H167988   1.381   2.673   0.365  0.0325 -0.0497  0.2317
15499TIP3    H267989   1.450   2.646   0.233 -0.2483 -1.1608  0.3097
15500TIP3   OH267990   5.119   1.471   5.724 -0.2321 -0.1945  0.5489
15500TIP3    H167991   5.088   1.550   5.680 -0.1432  0.1664  1.1177
15500TIP3    H267992   5.153   1.416   5.654  2.5199  1.5422  0.3735
15501TIP3   OH267993   5.340   3.229   0.426 -0.4905  0.3564 -0.2566
15501TIP3    H167994   5.387   3.152   0.392 -1.3619 -0.3560  0.1093
15501TIP3    H267995   5.370   3.238   0.516  1.2652  1.8031 -0.9194
15502TIP3   OH267996   4.407   5.086  14.864  0.3660 -0.2814 -0.2273
15502TIP3    H167997   4.344   5.014  14.866 -0.3748  0.2925  3.2501
15502TIP3    H267998   4.363   5.158  14.908  2.6030  0.9458  0.1503
15503TIP3   OH267999   6.547   1.771   5.234 -0.1024  0.1225  0.2782
15503TIP3    H168000   6.473   1.729   5.280 -1.8563  2.5689 -0.0816
15503TIP3    H268001   6.505   1.829   5.171  2.2367 -0.5818 -2.0832
15504TIP3   OH268002   5.774   1.143  12.401 -0.1025  0.1416  0.1033
15504TIP3    H168003   5.687   1.104  12.394 -0.0785 -0.1931  1.4118
15504TIP3    H268004   5.760   1.225  12.448  0.0946  0.8570 -1.0555
15505TIP3   OH268005   4.458   3.261   3.657  0.0189  0.3190  0.4143
15505TIP3    H168006   4.504   3.194   3.607 -1.2538  0.4062 -0.9518
15505TIP3    H268007   4.481   3.344   3.614 -0.0343  0.5390  0.8061
15506TIP3   OH268008   4.791   1.167  14.811 -0.0326 -0.1440  0.8782
15506TIP3    H168009   4.726   1.173  14.741  0.5309 -0.8572  0.2740
15506TIP3    H268010   4.854   1.237  14.792  1.2519 -1.6049 -0.5634
15507TIP3   OH268011   5.221   0.106   5.164  0.0121 -0.5542  0.2073
15507TIP3    H168012   5.279   0.074   5.234  0.5396 -1.8958 -0.7921
15507TIP3    H268013   5.177   0.181   5.203  0.0243 -1.4466  2.1052
15508TIP3   OH268014   4.145   5.482  13.752  0.1183  1.3773  0.3405
15508TIP3    H168015   4.238   5.502  13.742  0.1015  1.1379 -0.3560
15508TIP3    H268016   4.140   5.433  13.834  1.2003 -2.0076 -1.4119
15509TIP3   OH268017   2.925   6.744  11.503  0.1510 -0.5597 -0.2456
15509TIP3    H168018   2.941   6.802  11.578 -0.1901 -0.6048 -0.1376
15509TIP3    H268019   2.925   6.803  11.427 -1.3753 -0.2274 -0.0192
15510TIP3   OH268020   5.643   3.047  14.552  0.4905  0.1755 -0.3353
15510TIP3    H168021   5.728   3.028  14.592 -0.2158  1.1547  1.7843
15510TIP3    H268022   5.662   3.116  14.488  1.2703  0.5836  0.3128
15511TIP3   OH268023   1.038   0.254  15.398 -0.1089  0.1368  0.4862
15511TIP3    H168024   1.004   0.212  15.319  0.8397 -1.4724  0.8905
15511TIP3    H268025   1.096   0.323  15.366  1.7792 -1.7203 -0.3123
15512TIP3   OH268026   2.243   0.854  14.757 -0.2709  0.3072  0.1923
15512TIP3    H168027   2.240   0.949  14.747  0.3676  0.3398  0.2904
15512TIP3    H268028   2.331   0.829  14.730 -1.0992 -0.5209 -1.9536
15513TIP3   OH268029   2.754   3.210  16.545  0.1780 -0.2397  0.1071
15513TIP3    H168030   2.778   3.299  16.569  2.1025 -1.0023  1.2418
15513TIP3    H268031   2.833   3.174  16.505 -1.1620 -0.8744 -2.1287
15514TIP3   OH268032   0.072   6.772  14.642 -0.3460  0.9685  0.2327
15514TIP3    H168033   0.117   6.707  14.588  1.0541  1.4978  0.6977
15514TIP3    H268034  -0.021   6.753  14.631  0.0099 -0.7986 -0.0214
15515TIP3   OH268035   2.421   5.590   1.170  0.8133 -0.2208  0.0308
15515TIP3    H168036   2.340   5.613   1.214 -0.8245  1.1080 -3.2992
15515TIP3    H268037   2.490   5.633   1.220 -0.4549 -1.2465  2.8543
15516TIP3   OH268038   5.591   2.218   4.180 -0.1395 -0.1487 -0.1076
15516TIP3    H168039   5.517   2.267   4.146  0.8169  0.1535 -1.8767
15516TIP3    H268040   5.581   2.130   4.142  0.1752 -0.2282 -0.0093
15517TIP3   OH268041   0.330   2.122  11.442  0.0004 -0.0777  0.0041
15517TIP3    H168042   0.334   2.160  11.530  0.9801 -0.1151 -0.0140
15517TIP3    H268043   0.237   2.110  11.426 -0.1887 -2.9923  2.3432
15518TIP3   OH268044   4.942   2.242   2.255 -0.0485 -0.0682  0.5064
15518TIP3    H168045   4.865   2.298   2.267 -0.7471 -0.6738 -0.8534
15518TIP3    H268046   4.912   2.154   2.280 -0.6259 -0.7809 -2.3577
15519TIP3   OH268047   0.061   6.310   6.103  0.2735 -0.0772 -0.3596
15519TIP3    H168048   0.104   6.337   6.185  0.0765 -0.2441 -0.2015
15519TIP3    H268049  -0.016   6.260   6.131  0.1777 -0.0937 -0.6469
15520TIP3   OH268050   6.546   5.555   0.528 -1.0907 -0.1068  0.1749
15520TIP3    H168051   6.472   5.520   0.479 -0.4205 -0.0033 -0.9404
15520TIP3    H268052   6.551   5.500   0.606 -0.7222 -1.8689 -1.0238
15521TIP3   OH268053   6.573   1.913   1.131 -0.0222  0.0287 -0.1227
15521TIP3    H168054   6.548   1.899   1.222  0.3808 -0.6003 -0.1054
15521TIP3    H268055   6.667   1.898   1.129 -0.3911 -2.8777 -1.1550
15522TIP3   OH268056   6.696   0.253   2.718  0.3896 -0.1162 -0.2652
15522TIP3    H168057   6.703   0.241   2.624  0.8330 -0.0836 -0.2369
15522TIP3    H268058   6.604   0.272   2.733  0.5044  0.9147 -0.8077
15523TIP3   OH268059   3.752   5.962  13.085 -1.0925 -0.0222 -0.5829
15523TIP3    H168060   3.773   5.938  12.995  0.8892 -0.5717 -0.0107
15523TIP3    H268061   3.764   6.056  13.089 -1.6019  0.0650 -0.9803
15524TIP3   OH268062   0.749   4.161  16.003  0.0604 -0.6255  0.0400
15524TIP3    H168063   0.822   4.191  15.949  0.1238 -1.3498 -0.2797
15524TIP3    H268064   0.673   4.166  15.945  0.3382 -2.6583 -0.5556
15525TIP3   OH268065   5.886   3.402  15.165 -0.4721 -0.0394 -0.1083
15525TIP3    H168066   5.924   3.425  15.251 -1.5877  0.5736  0.2432
15525TIP3    H268067   5.838   3.321  15.181  0.8768 -0.9853 -0.6267
15526TIP3   OH268068   4.545   4.689  15.233 -0.2493  0.9136  0.5093
15526TIP3    H168069   4.545   4.716  15.325 -1.1009 -0.2909  0.9010
15526TIP3    H268070   4.636   4.693  15.206  0.0236  1.1939  1.4335
15527TIP3   OH268071   0.629   1.731   5.332 -0.2773 -0.8200  0.6153
15527TIP3    H168072   0.696   1.765   5.392 -1.0295 -0.8645  1.5136
15527TIP3    H268073   0.658   1.642   5.312  0.5372 -0.4372  0.0407
15528TIP3   OH268074   3.020   4.002   4.822  0.5278  0.1540 -0.4358
15528TIP3    H168075   3.055   3.913   4.819 -0.3415 -0.1813 -0.9298
15528TIP3    H268076   2.950   4.002   4.757 -1.9257  0.1426  2.0398
15529TIP3   OH268077   5.349   4.671   5.185  0.9600  0.2954  0.2806
15529TIP3    H168078   5.396   4.726   5.122  1.0491  0.3638  0.4049
15529TIP3    H268079   5.392   4.689   5.269  1.1268 -0.1183  0.2895
15530TIP3   OH268080   1.210   2.936  14.733  0.2033 -0.2107  0.4210
15530TIP3    H168081   1.148   2.958  14.803  0.9227 -2.3881  1.8185
15530TIP3    H268082   1.269   3.012  14.729  0.7762 -0.4352  2.9418
15531TIP3   OH268083   2.999   0.418   3.123 -0.1451  0.2575  0.1072
15531TIP3    H168084   2.959   0.452   3.203 -0.8246  0.9196 -0.4871
15531TIP3    H268085   2.940   0.448   3.053  0.7888  0.2628 -0.6977
15532TIP3   OH268086   3.217   2.584   1.590 -0.0373  0.2356  0.0909
15532TIP3    H168087   3.304   2.545   1.580 -0.2162  0.1410 -1.2809
15532TIP3    H268088   3.182   2.543   1.669  0.3197 -1.4020 -0.5523
15533TIP3   OH268089   6.374   1.575  13.773 -0.9031 -0.5057  0.9353
15533TIP3    H168090   6.382   1.640  13.703  0.2923 -0.6983  0.8828
15533TIP3    H268091   6.374   1.490  13.728 -0.1440 -0.6307  1.1674
15534TIP3   OH268092   0.572   4.154   5.246  0.0367  0.6773  0.1595
15534TIP3    H168093   0.615   4.232   5.210  0.1549  1.1468  1.2770
15534TIP3    H268094   0.489   4.149   5.200  0.4679  0.8678 -0.6520
15535TIP3   OH268095   2.171   0.275  15.957  0.0248  0.2137 -0.2543
15535TIP3    H168096   2.184   0.183  15.980  0.6784  0.4902  0.5348
15535TIP3    H268097   2.080   0.280  15.929  0.3713 -0.9525 -1.7075
15536TIP3   OH268098   6.045   5.195   5.404 -0.0725 -0.0027 -0.1073
15536TIP3    H168099   5.970   5.138   5.415  0.9897 -1.0283  2.8584
15536TIP3    H268100   6.086   5.166   5.322 -0.6263 -2.2271  0.3451
15537TIP3   OH268101   1.328   5.478   1.993  0.1335 -0.3926 -0.0269
15537TIP3    H168102   1.309   5.549   1.931  0.1809 -0.3764 -0.0230
15537TIP3    H268103   1.274   5.405   1.963  0.1511 -0.3822 -0.0829
15538TIP3   OH268104   6.528   3.109  15.003 -0.8556 -0.0849  0.1037
15538TIP3    H168105   6.544   3.203  15.015  0.1923  0.0287 -1.8671
15538TIP3    H268106   6.453   3.091  15.060 -0.7935  1.8344  0.8828
15539TIP3   OH268107   2.068   0.358  11.005 -0.1599  0.1124  0.2491
15539TIP3    H168108   1.981   0.323  10.988 -0.2199  0.1331  0.5030
15539TIP3    H268109   2.095   0.399  10.923 -0.0671 -0.5807 -0.0679
15540TIP3   OH268110   3.830   2.452   4.837  0.1673  0.3543 -0.1754
15540TIP3    H168111   3.783   2.536   4.832 -0.3901  0.0707  0.1319
15540TIP3    H268112   3.864   2.449   4.926 -0.2651  0.0190 -0.0208
15541TIP3   OH268113   1.851   6.169   3.333  0.7764 -0.0869 -0.2116
15541TIP3    H168114   1.918   6.112   3.370 -0.3859 -1.3797 -0.0439
15541TIP3    H268115   1.770   6.119   3.340  0.3884 -0.2889 -4.1296
15542TIP3   OH268116   5.880   5.606  14.490 -0.2937 -0.5235 -0.0786
15542TIP3    H168117   5.882   5.696  14.523 -1.9700  0.4141 -2.2885
15542TIP3    H268118   5.796   5.571  14.521  0.2581 -1.2924  0.5985
15543TIP3   OH268119   2.469   0.106   4.406 -0.7245  0.2895  0.5298
15543TIP3    H168120   2.400   0.092   4.470 -0.1027  0.3260  1.2273
15543TIP3    H268121   2.536   0.155   4.454 -0.1263  0.0781 -0.0755
15544TIP3   OH268122   0.569   4.442   5.554 -0.6048 -0.2920 -0.1552
15544TIP3    H168123   0.646   4.389   5.535 -0.9498 -0.0014 -2.7007
15544TIP3    H268124   0.496   4.380   5.553 -0.8468 -0.0372 -1.8427
15545TIP3   OH268125   3.285   2.142   2.055  0.0305 -0.3400  0.9307
15545TIP3    H168126   3.230   2.075   2.095 -1.8208 -0.0485 -0.9481
15545TIP3    H268127   3.237   2.224   2.071  0.2674  0.0185 -0.1503
15546TIP3   OH268128   0.572   1.485   2.741 -0.2158  0.1111  0.5207
15546TIP3    H168129   0.520   1.499   2.819  0.2768  3.6384  0.3602
15546TIP3    H268130   0.593   1.573   2.709  2.8076 -1.1293 -1.4288
15547TIP3   OH268131   1.939   3.254  16.866 -0.2854 -0.3670 -0.1738
15547TIP3    H168132   1.977   3.330  16.823 -1.8147 -0.0468 -1.0300
15547TIP3    H268133   2.012   3.194  16.880  1.0973  1.5454  1.2027
15548TIP3   OH268134   2.303   2.617   4.469 -0.2147 -0.6236 -0.4570
15548TIP3    H168135   2.270   2.686   4.411  0.1909 -0.7134 -0.8027
15548TIP3    H268136   2.346   2.663   4.540 -1.6415 -0.4893  0.3572
15549TIP3   OH268137   4.383   4.829  14.219  0.0465 -0.6708  0.2886
15549TIP3    H168138   4.460   4.812  14.272  1.1667 -0.2983 -1.1732
15549TIP3    H268139   4.382   4.924  14.206  0.3523 -0.8353 -1.1271
15550TIP3   OH268140   5.130   4.042   4.475 -0.1489  0.1196 -0.1945
15550TIP3    H168141   5.147   4.014   4.564 -2.1423  0.8175  0.4685
15550TIP3    H268142   5.087   3.968   4.433 -2.4757  0.9469  0.5761
15551TIP3   OH268143   5.131   1.077  16.158  0.1998 -0.2955  0.0020
15551TIP3    H168144   5.136   1.025  16.078  1.1738 -1.0110  0.5065
15551TIP3    H268145   5.128   1.012  16.228 -0.8135  0.3206  0.5566
15552TIP3   OH268146   6.680   0.693  14.910 -0.7894 -0.5584 -0.1293
15552TIP3    H168147   6.641   0.660  14.829 -0.8779 -0.4850 -0.1170
15552TIP3    H268148   6.609   0.689  14.974 -0.3344 -1.9594  0.3202
15553TIP3   OH268149   3.899   0.474  13.364  0.7394 -0.6074 -0.3688
15553TIP3    H168150   3.838   0.457  13.292  3.1974  0.7500 -3.0018
15553TIP3    H268151   3.877   0.563  13.393  0.7767 -0.5317 -0.5701
15554TIP3   OH268152   0.055   4.657  10.537  0.4730  0.0318 -0.2738
15554TIP3    H168153   0.074   4.645  10.445  1.5460  0.6580 -0.1489
15554TIP3    H268154  -0.034   4.623  10.548  0.5994 -0.6844 -1.3841
15555TIP3   OH268155   3.195   0.515  16.474  0.1027 -0.1517  0.2082
15555TIP3    H168156   3.284   0.508  16.440  1.2769 -0.3197  3.0294
15555TIP3    H268157   3.169   0.425  16.494  0.9152  0.1033  2.9100
15556TIP3   OH268158   0.439   1.151  16.428  0.0629 -0.1484 -0.1413
15556TIP3    H168159   0.365   1.132  16.370 -0.2637 -0.8778  0.4821
15556TIP3    H268160   0.446   1.246  16.429 -0.8113 -0.0754 -0.2941
15557TIP3   OH268161   6.634   6.799   1.285  0.2685 -0.4849  0.2217
15557TIP3    H168162   6.595   6.713   1.298 -2.0299  0.6224  1.1433
15557TIP3    H268163   6.618   6.846   1.366  0.1989  1.2685 -0.7432
15558TIP3   OH268164   3.006   4.835   0.811 -0.0588 -0.2357  0.4215
15558TIP3    H168165   2.940   4.891   0.770  0.5429  0.0497 -0.1704
15558TIP3    H268166   2.976   4.746   0.793  0.5203 -0.1317 -1.2384
15559TIP3   OH268167   5.054   1.739  16.858 -0.4030  0.6951  0.3035
15559TIP3    H168168   5.100   1.817  16.828 -1.8035  1.4638  0.0424
15559TIP3    H268169   4.991   1.720  16.788 -0.1279 -0.6270  0.4013
15560TIP3   OH268170   3.776   0.693  13.438 -0.1563  0.0627 -0.3006
15560TIP3    H168171   3.681   0.694  13.425 -0.0596  0.7947 -1.1076
15560TIP3    H268172   3.801   0.786  13.438  0.4629 -0.0874  0.7626
15561TIP3   OH268173   0.812   1.019   4.562  0.2550  0.2102 -0.0333
15561TIP3    H168174   0.898   1.050   4.533  1.1104 -1.2998  0.7626
15561TIP3    H268175   0.760   1.018   4.482  0.8684  1.4534 -0.4793
15562TIP3   OH268176   4.441   3.291   4.523  0.3831 -0.1757 -0.0532
15562TIP3    H168177   4.508   3.314   4.588  1.3369 -2.1259 -0.2664
15562TIP3    H268178   4.404   3.375   4.496  0.4930  0.7504  2.4296
15563TIP3   OH268179   1.980   5.673   4.826 -0.3606 -0.6628 -0.4816
15563TIP3    H168180   2.007   5.616   4.754 -1.8992 -0.0110 -1.6309
15563TIP3    H268181   2.026   5.639   4.903  2.9259 -0.1453 -2.0916
15564TIP3   OH268182   5.706   2.431   4.035  0.2017 -0.1211  0.0110
15564TIP3    H168183   5.658   2.504   3.997 -1.4573 -1.6014 -0.8671
15564TIP3    H268184   5.646   2.393   4.100  0.7069 -1.1786 -0.1063
15565TIP3   OH268185   5.268   2.933  12.287  0.0214  0.1854 -0.3534
15565TIP3    H168186   5.259   3.026  12.271 -0.1968  0.0251 -1.2217
15565TIP3    H268187   5.362   2.919  12.299 -0.0739  0.7395  1.3761
15566TIP3   OH268188   2.849   4.400   3.866 -0.1359 -0.1590 -0.9393
15566TIP3    H168189   2.924   4.394   3.924 -1.1797  0.1819  0.5227
15566TIP3    H268190   2.833   4.495   3.858 -1.6075 -0.2469  0.4563
15567TIP3   OH268191   1.602   5.570  14.863  0.4924 -0.3066 -0.3838
15567TIP3    H168192   1.619   5.642  14.924 -1.2722  0.0495 -0.2776
15567TIP3    H268193   1.560   5.502  14.916 -0.2840 -0.3382 -1.0319
15568TIP3   OH268194   1.162   3.695  12.781  0.2423  0.1723 -0.3323
15568TIP3    H168195   1.188   3.604  12.774 -0.4393  0.0665 -2.2828
15568TIP3    H268196   1.237   3.745  12.750  0.0224  0.1669 -0.8841
15569TIP3   OH268197   2.744   4.469  13.159  0.5816  0.5906 -0.1876
15569TIP3    H168198   2.732   4.513  13.243 -0.5774 -0.7488  0.3944
15569TIP3    H268199   2.662   4.484  13.112  1.1654  1.2055 -1.0445
15570TIP3   OH268200   4.726   6.394   2.749 -0.3158 -0.1842  0.0764
15570TIP3    H168201   4.783   6.319   2.761 -1.7102 -0.9974  2.1802
15570TIP3    H268202   4.763   6.462   2.806 -1.1549 -0.5582  1.0847
15571TIP3   OH268203   3.144   4.686   2.771 -0.1241 -0.3547 -0.3024
15571TIP3    H168204   3.128   4.626   2.698  2.0404 -1.3759 -0.0162
15571TIP3    H268205   3.105   4.643   2.847 -1.1357  0.0353 -0.5843
15572TIP3   OH268206   3.800   3.677  15.173 -0.5076 -0.2769 -0.2570
15572TIP3    H168207   3.714   3.662  15.133 -1.2816  1.7502  0.5117
15572TIP3    H268208   3.794   3.765  15.210  2.0692  0.1014 -0.5641
15573TIP3   OH268209   0.289   0.110  10.979  0.1664  0.0281  0.3485
15573TIP3    H168210   0.309   0.199  10.951 -0.8014  0.1750  0.0944
15573TIP3    H268211   0.215   0.084  10.925  0.5776 -1.0183  0.2656
15574TIP3   OH268212   6.762   0.762   2.350 -1.0681  0.4474 -0.1652
15574TIP3    H168213   6.712   0.834   2.388 -0.6484  0.6005  0.1027
15574TIP3    H268214   6.789   0.794   2.264  1.3806  1.6958  0.9523
15575TIP3   OH268215   6.397   5.325  13.444 -0.8310 -0.2267  0.4132
15575TIP3    H168216   6.359   5.393  13.387  0.7044  1.0590  0.8494
15575TIP3    H268217   6.434   5.262  13.383  0.4163  0.9206 -0.0682
15576TIP3   OH268218   1.191   0.992   3.149  0.2542  0.5696  0.1697
15576TIP3    H168219   1.228   0.919   3.099 -0.9890 -0.0340  0.0795
15576TIP3    H268220   1.114   0.954   3.192  0.5830  1.3951  1.5358
15577TIP3   OH268221   1.966   5.776  15.802  0.4646  0.2995  0.4213
15577TIP3    H168222   1.901   5.773  15.873 -0.8102 -0.8303 -0.7522
15577TIP3    H268223   1.935   5.712  15.738  3.6414 -1.5540  0.5410
15578TIP3   OH268224   6.700   5.183   3.814 -0.2149 -0.9862  0.4631
15578TIP3    H168225   6.626   5.227   3.773 -0.8442 -1.5257  1.0082
15578TIP3    H268226   6.760   5.253   3.837  0.8959 -0.7010 -2.7114
15579TIP3   OH268227   5.014   6.543   4.759 -0.0484 -0.4277 -0.1905
15579TIP3    H168228   5.038   6.583   4.843 -0.2598  1.1580 -0.8352
15579TIP3    H268229   4.995   6.618   4.702 -0.9693 -1.4964 -1.3405
15580TIP3   OH268230   5.036   3.989   5.123  0.3679 -0.3941 -0.0104
15580TIP3    H168231   4.971   3.922   5.105  0.3411 -0.1675 -0.7606
15580TIP3    H268232   5.120   3.949   5.100  0.2084  0.3903 -2.1104
15581TIP3   OH268233   2.597   6.493  13.226 -0.0964 -0.4917  0.7204
15581TIP3    H168234   2.598   6.536  13.312 -1.4407  1.6026 -0.2373
15581TIP3    H268235   2.689   6.473  13.209  0.3064 -0.0876  2.2235
15582TIP3   OH268236   6.504   4.546   1.948 -0.3928  0.6325  0.3917
15582TIP3    H168237   6.598   4.535   1.937 -0.3175  1.2583  0.3304
15582TIP3    H268238   6.496   4.617   2.013 -0.8224 -0.4710  1.5894
15583TIP3   OH268239   1.025   0.634   0.249  0.5877  0.2654 -0.0329
15583TIP3    H168240   0.951   0.574   0.256  1.3015 -0.6307  0.0453
15583TIP3    H268241   1.102   0.577   0.241  1.3993  1.1440  1.0937
15584TIP3   OH268242   1.087   4.151  16.371  0.0025  0.7768  0.0982
15584TIP3    H168243   1.087   4.073  16.315  1.2657  1.5124 -0.9779
15584TIP3    H268244   1.003   4.193  16.354 -0.2363  0.2156 -0.1320
15585TIP3   OH268245   5.268   0.185  12.276 -0.4318  0.3116  0.0972
15585TIP3    H168246   5.356   0.151  12.259 -0.1247  2.0599 -2.2489
15585TIP3    H268247   5.252   0.164  12.368  1.8338 -1.3166  0.2076
15586TIP3   OH268248   3.880   3.623  12.395  0.1939  0.0166 -0.1642
15586TIP3    H168249   3.957   3.663  12.353  0.5125  0.3161  0.6726
15586TIP3    H268250   3.809   3.686  12.378  0.0528 -0.3924 -1.1746
15587TIP3   OH268251   3.735   4.488   2.638  0.1261 -0.2143 -0.1046
15587TIP3    H168252   3.776   4.517   2.557  1.7427 -1.7751  0.1013
15587TIP3    H268253   3.743   4.563   2.697  0.3454  0.3931 -0.8957
15588TIP3   OH268254   2.413   1.504  10.625 -0.2562  0.4799  0.2167
15588TIP3    H168255   2.482   1.519  10.561  1.3113 -3.7338  0.6057
15588TIP3    H268256   2.387   1.413  10.612 -2.5498  0.5571  3.0921
15589TIP3   OH268257   0.806   4.249  12.982  0.5384  0.1711  0.5185
15589TIP3    H168258   0.846   4.326  13.024  0.5818  0.6339 -0.3358
15589TIP3    H268259   0.866   4.226  12.912 -0.1983  0.2693 -0.1659
15590TIP3   OH268260   1.377   6.630  16.452  0.1565  0.0914  0.8124
15590TIP3    H168261   1.343   6.541  16.460  0.7248 -0.0228  2.1119
15590TIP3    H268262   1.405   6.654  16.540 -0.4672  1.7612  0.6012
15591TIP3   OH268263   4.711   4.504  12.565 -0.3262 -0.0690  0.1978
15591TIP3    H168264   4.791   4.550  12.540  1.6171 -2.2245  1.9980
15591TIP3    H268265   4.732   4.412  12.555 -2.3482 -0.7176  1.4023
15592TIP3   OH268266   1.306   6.636  15.302  0.0818 -0.4455  0.2629
15592TIP3    H168267   1.307   6.543  15.280 -0.4566 -0.0505 -1.5778
15592TIP3    H268268   1.362   6.678  15.237  1.2281  0.4371  1.7239
15593TIP3   OH268269   3.369   3.447   4.524 -0.5027 -0.0809  0.0060
15593TIP3    H168270   3.450   3.416   4.483 -0.0480  1.7401 -0.5525
15593TIP3    H268271   3.306   3.450   4.453 -1.0327 -1.2486  0.3917
15594TIP3   OH268272   4.487   6.124  14.577  0.0070 -0.1839 -0.1953
15594TIP3    H168273   4.473   6.043  14.626  1.0265 -0.6066 -0.5761
15594TIP3    H268274   4.414   6.127  14.515 -0.6407 -0.2438  0.5566
15595TIP3   OH268275   6.784   0.417   1.217 -0.5670  0.2609 -0.1166
15595TIP3    H168276   6.793   0.511   1.203 -1.2464  0.1235 -1.6796
15595TIP3    H268277   6.690   0.403   1.228 -0.3461 -0.0799  1.5548
15596TIP3   OH268278   1.610   4.956  14.237 -1.1407 -0.6660  0.1376
15596TIP3    H168279   1.694   4.951  14.283 -0.3343  1.0570 -1.0463
15596TIP3    H268280   1.555   4.891  14.280  1.0676 -2.4918  0.3909
15597TIP3   OH268281   6.136   0.115   2.060  0.1309 -0.0221  0.2080
15597TIP3    H168282   6.154   0.179   2.129 -0.4343  0.0843  0.2623
15597TIP3    H268283   6.056   0.147   2.017  0.6955  0.1264 -0.7633
15598TIP3   OH268284   2.080   4.706   4.754 -0.1870 -0.0920  0.4974
15598TIP3    H168285   2.125   4.739   4.676 -0.4167  1.4600  0.9996
15598TIP3    H268286   1.996   4.673   4.720 -0.3278  0.6606  0.0859
15599TIP3   OH268287   5.476   1.880  15.308 -0.6323 -0.3540  0.0266
15599TIP3    H168288   5.439   1.909  15.224 -0.2855  2.0598  0.6206
15599TIP3    H268289   5.428   1.931  15.373  1.6393  0.6239  1.0274
15600TIP3   OH268290   3.608   4.632   4.802 -0.1060 -0.5613 -0.2249
15600TIP3    H168291   3.562   4.674   4.729 -1.5316 -0.9761  0.4015
15600TIP3    H268292   3.628   4.703   4.863 -1.7571 -0.6155  0.4356
15601TIP3   OH268293   6.065   3.948  11.447  0.2674 -0.3548  0.2062
15601TIP3    H168294   6.016   3.885  11.395 -0.3674  0.0534  0.2940
15601TIP3    H268295   6.157   3.933  11.424  0.0013 -0.1844 -1.0129
15602TIP3   OH268296   4.193   2.602   4.106  0.2478 -0.0171 -0.0131
15602TIP3    H168297   4.209   2.607   4.200 -1.9091  0.6048  0.3832
15602TIP3    H268298   4.217   2.512   4.082  1.3033 -0.0209  1.0163
15603TIP3   OH268299   0.750   0.445   1.184  0.5259 -0.5325 -0.4949
15603TIP3    H168300   0.827   0.414   1.232  0.3181 -3.4474 -1.8360
15603TIP3    H268301   0.676   0.420   1.239  0.4052  1.9800  0.6375
15604TIP3   OH268302   1.000   3.826  15.405 -0.1029  0.1402  0.3311
15604TIP3    H168303   1.020   3.849  15.315  1.9594 -1.4632  0.2967
15604TIP3    H268304   1.083   3.835  15.452 -0.4988 -1.5266  1.4722
15605TIP3   OH268305   3.817   0.232   0.945  0.3007 -0.7250 -0.4531
15605TIP3    H168306   3.855   0.260   1.028  2.6630  0.9837 -1.9890
15605TIP3    H268307   3.748   0.295   0.927 -0.9779 -1.7570  0.6882
15606TIP3   OH268308   3.950   0.663   6.060  0.2303 -0.0388 -0.5412
15606TIP3    H168309   3.902   0.719   5.999 -1.0596  0.6660  1.0159
15606TIP3    H268310   3.979   0.723   6.129  0.7834 -0.9503  0.0344
15607TIP3   OH268311   2.657   6.121  12.965  0.2519 -0.1481 -0.7066
15607TIP3    H168312   2.746   6.127  13.000  0.5806 -0.4459 -1.4655
15607TIP3    H268313   2.652   6.033  12.928 -0.9177 -0.7842  0.7935
15608TIP3   OH268314   2.117   3.193  14.991 -0.4925  0.0305 -0.2994
15608TIP3    H168315   2.183   3.233  15.047 -1.5674  0.5008  0.6874
15608TIP3    H268316   2.043   3.177  15.049 -0.7369 -1.8280 -1.0429
15609TIP3   OH268317   1.925   1.173   6.224  0.2271  0.0120 -0.3284
15609TIP3    H168318   1.918   1.267   6.244  1.8076 -0.2072  1.6072
15609TIP3    H268319   1.845   1.135   6.259  0.7985  0.3237  1.4132
15610TIP3   OH268320   1.111   1.183  12.857  0.0711  0.0286 -0.4308
15610TIP3    H168321   1.024   1.182  12.897 -0.3872 -0.1964 -1.3968
15610TIP3    H268322   1.095   1.163  12.765  0.9277  1.8567 -1.0331
15611TIP3   OH268323   3.963   2.637   1.603  0.0408  0.6974 -0.2025
15611TIP3    H168324   4.058   2.627   1.614  0.3687 -0.6135 -3.1362
15611TIP3    H268325   3.928   2.549   1.613 -0.6899  0.9495 -0.4649
15612TIP3   OH268326   6.620   0.728  10.780 -0.1842  0.1442 -0.5345
15612TIP3    H168327   6.571   0.665  10.727 -1.2527  0.7050 -0.2654
15612TIP3    H268328   6.567   0.738  10.859  1.1094 -0.2681  0.4067
15613TIP3   OH268329   3.138   3.852   2.475 -0.3960  0.1892  0.4838
15613TIP3    H168330   3.230   3.855   2.447  0.7009 -2.8011  3.1779
15613TIP3    H268331   3.138   3.891   2.562 -2.0197  1.3530  0.0082
15614TIP3   OH268332   1.343   0.964   0.104 -0.4452  0.3528  0.8076
15614TIP3    H168333   1.344   1.060   0.100  0.1212  0.3244  0.0178
15614TIP3    H268334   1.413   0.937   0.045 -0.2270 -0.5427  1.4566
15615TIP3   OH268335   2.268   4.659  10.862 -0.4001  0.4671  0.2151
15615TIP3    H168336   2.325   4.716  10.811  1.4746 -1.4963 -0.0262
15615TIP3    H268337   2.184   4.663  10.816  0.9622 -0.5335 -2.6550
15616TIP3   OH268338   6.632   2.499   4.626 -0.0494 -0.4889 -0.4020
15616TIP3    H168339   6.578   2.420   4.622 -0.3337 -0.4283  1.3910
15616TIP3    H268340   6.710   2.472   4.675  1.0569 -0.2734 -1.9673
15617TIP3   OH268341   0.319   3.160   4.291  0.4400  0.0268 -0.5445
15617TIP3    H168342   0.338   3.186   4.201  1.0479  0.6681 -0.2438
15617TIP3    H268343   0.312   3.065   4.288 -0.3637  0.1055 -1.4136
15618TIP3   OH268344   0.952   3.697   3.761 -1.2783 -0.2071  0.1139
15618TIP3    H168345   0.955   3.699   3.665 -0.9762 -2.3772  0.0247
15618TIP3    H268346   1.003   3.773   3.788  0.6742 -0.8636 -1.4797
15619TIP3   OH268347   5.321   4.937  15.415  0.2795 -0.4347  0.3038
15619TIP3    H168348   5.261   4.928  15.488  0.1063 -0.0108  0.2154
15619TIP3    H268349   5.350   5.029  15.418  0.4048 -0.4582 -0.0516
15620TIP3   OH268350   3.784   3.686  16.890 -0.6923 -0.5465 -0.1258
15620TIP3    H168351   3.736   3.629  16.950 -1.6735  0.7460  0.3437
15620TIP3    H268352   3.729   3.763  16.879  0.9469  0.6972 -0.1084
15621TIP3   OH268353   5.385   3.519   3.123 -0.3825  0.1849  0.2010
15621TIP3    H168354   5.380   3.437   3.074 -1.9738  0.4123 -0.0864
15621TIP3    H268355   5.409   3.493   3.212 -0.5439 -0.5675  0.0340
15622TIP3   OH268356   5.159   2.754  13.514 -0.4440  0.6446  0.3067
15622TIP3    H168357   5.252   2.775  13.500 -0.5387  1.3565  0.7358
15622TIP3    H268358   5.145   2.768  13.607 -0.6410 -0.8668  0.5298
15623TIP3   OH268359   3.473   5.369  11.715 -0.3860  0.2769 -0.1335
15623TIP3    H168360   3.495   5.350  11.806 -0.0225  1.1159 -0.0386
15623TIP3    H268361   3.550   5.340  11.665 -1.3817 -2.0948 -0.4224
15624TIP3   OH268362   1.418   6.131  15.747  0.2836  0.5424  0.5641
15624TIP3    H168363   1.506   6.169  15.745  0.5113  0.0873  1.3487
15624TIP3    H268364   1.371   6.176  15.677  0.9356  1.2948  0.5924
15625TIP3   OH268365   2.095   1.812  13.071 -0.6528  0.0911  0.1872
15625TIP3    H168366   2.170   1.834  13.017  0.2326  1.7012  1.9559
15625TIP3    H268367   2.019   1.827  13.014  0.2463  1.3451 -0.7308
15626TIP3   OH268368   5.957   3.420  13.453 -0.3596  0.1167  0.6231
15626TIP3    H168369   5.883   3.388  13.401  0.2626  2.2726 -1.7457
15626TIP3    H268370   5.922   3.426  13.542 -2.6177 -0.1875 -0.1674
15627TIP3   OH268371   5.788   1.287  15.566 -0.2487 -0.0251 -0.6288
15627TIP3    H168372   5.772   1.381  15.560 -0.6048 -0.1643 -2.1038
15627TIP3    H268373   5.843   1.277  15.643 -1.5172  1.2171  0.4994
15628TIP3   OH268374   2.131   5.027  12.025  0.1990 -0.0281  0.3987
15628TIP3    H168375   2.059   4.971  12.054  0.0888  0.0559  0.2912
15628TIP3    H268376   2.126   5.103  12.083 -0.7995  0.7206 -0.6166
15629TIP3   OH268377   1.668   4.685   2.156  0.3162  0.7907 -0.1926
15629TIP3    H168378   1.645   4.728   2.239  1.0750 -3.1473  2.2923
15629TIP3    H268379   1.584   4.660   2.118  0.0141 -0.0007  0.9573
15630TIP3   OH268380   5.329   5.885  15.435 -0.4103  0.0912 -0.2123
15630TIP3    H168381   5.350   5.810  15.491 -0.6227 -0.8284 -1.3140
15630TIP3    H268382   5.413   5.912  15.398 -0.4324 -0.1054 -0.4101
15631TIP3   OH268383   6.488   6.188  14.836 -0.3357  0.3552 -0.1207
15631TIP3    H168384   6.504   6.216  14.746 -2.2184  1.1416 -0.2705
15631TIP3    H268385   6.563   6.221  14.885  0.0082  1.1987 -1.1707
15632TIP3   OH268386   5.712   4.555  11.896 -0.1464 -1.0204 -0.5260
15632TIP3    H168387   5.765   4.612  11.841 -1.1842  0.4085 -0.1198
15632TIP3    H268388   5.622   4.585  11.882 -0.5667 -1.5482  0.8680
15633TIP3   OH268389   4.655   2.311  10.657  0.5722  0.4716 -0.2358
15633TIP3    H168390   4.692   2.341  10.740 -0.7230  0.4962  0.3649
15633TIP3    H268391   4.620   2.390  10.616 -0.3063  0.2253  0.0123
15634TIP3   OH268392   0.037   2.048  11.426 -0.6879 -0.0191  0.3763
15634TIP3    H168393  -0.052   2.071  11.452 -0.6115  0.9588 -0.2139
15634TIP3    H268394   0.039   1.952  11.432 -2.6017 -0.3278 -2.1097
15635TIP3   OH268395   5.357   3.077  12.633  0.1885 -0.4240 -0.5646
15635TIP3    H168396   5.362   2.986  12.663 -0.3475 -0.1269  0.4770
15635TIP3    H268397   5.288   3.077  12.566 -3.1515 -0.0514  2.5589
15636TIP3   OH268398   4.889   4.319   0.281 -0.6101 -0.1633  0.1147
15636TIP3    H168399   4.905   4.300   0.373  1.1623  1.2181  0.1548
15636TIP3    H268400   4.975   4.310   0.239 -1.3501 -0.6018 -1.3751
15637TIP3   OH268401   2.255   0.425  10.688  0.0135 -0.1924  0.4818
15637TIP3    H168402   2.247   0.445  10.595 -1.8331  1.4315  0.9167
15637TIP3    H268403   2.349   0.427  10.706  0.3258  0.5724 -1.1005
15638TIP3   OH268404   0.736   3.649   4.326 -0.6590 -0.0895  0.1796
15638TIP3    H168405   0.721   3.566   4.281  1.4333 -0.9579  0.9496
15638TIP3    H268406   0.682   3.712   4.279  0.0972 -1.2668 -2.4254
15639TIP3   OH268407   1.984   4.115   3.863  0.3648  0.0423  0.1392
15639TIP3    H168408   1.944   4.180   3.806  0.2355  1.3972  1.7062
15639TIP3    H268409   2.073   4.148   3.878  0.3358 -0.1882  0.8594
15640TIP3   OH268410   5.307   0.823  10.563 -0.6286  0.3951  0.8131
15640TIP3    H168411   5.274   0.757  10.624  1.6550 -1.6429 -0.0137
15640TIP3    H268412   5.350   0.773  10.494 -1.7648  2.6645 -1.7359
15641TIP3   OH268413   1.576   6.042   4.368  0.3736  0.3647 -0.4759
15641TIP3    H168414   1.556   5.956   4.330  1.1442 -0.3304  0.6437
15641TIP3    H268415   1.656   6.028   4.419  0.2530  1.6456  0.1038
15642TIP3   OH268416   3.524   5.695   2.912 -0.0755  0.2747 -0.8962
15642TIP3    H168417   3.525   5.599   2.909 -0.5045  0.1616  1.1472
15642TIP3    H268418   3.606   5.718   2.955  0.1620  0.8612 -1.6465
15643TIP3   OH268419   1.402   3.497   0.523 -0.1984  0.2123  0.1866
15643TIP3    H168420   1.361   3.552   0.457  0.0366  0.2463  0.0667
15643TIP3    H268421   1.390   3.408   0.492 -0.9943  0.1685  0.6194
15644TIP3   OH268422   2.034   0.014  13.751 -0.2878 -0.0816 -0.2508
15644TIP3    H168423   2.035   0.084  13.685 -4.1308 -1.9157 -2.6467
15644TIP3    H268424   2.044  -0.066  13.700  2.4990 -1.5007  2.2361
15645TIP3   OH268425   3.521   3.326  13.428 -0.6032  0.2492  0.1293
15645TIP3    H168426   3.522   3.261  13.357  1.2831  1.9118 -1.4909
15645TIP3    H268427   3.613   3.347  13.442 -1.1052  1.8467  1.3072
15646TIP3   OH268428   2.441   2.331  10.725  0.1860  0.2260 -0.1723
15646TIP3    H168429   2.449   2.253  10.780  1.4738  0.5363  0.1324
15646TIP3    H268430   2.467   2.302  10.638 -0.4987  0.0515 -0.3229
15647TIP3   OH268431   2.491   4.980   0.746 -0.3859 -0.3840 -0.4269
15647TIP3    H168432   2.452   4.907   0.793 -0.7886  0.5760  0.7777
15647TIP3    H268433   2.514   4.944   0.660 -1.3648 -1.6796 -0.1703
15648TIP3   OH268434   2.993   4.934   1.865 -0.3723  0.0817  0.1915
15648TIP3    H168435   2.916   4.968   1.819 -1.0707  0.4750  1.5781
15648TIP3    H268436   2.959   4.862   1.918  0.6033 -1.0216 -0.6367
15649TIP3   OH268437   0.025   4.670  16.816  0.1577 -0.5401 -0.5014
15649TIP3    H168438  -0.011   4.758  16.801  1.7469 -0.0391 -1.6920
15649TIP3    H268439  -0.032   4.612  16.767 -0.2138 -0.0207 -0.6942
15650TIP3   OH268440   0.500   3.365  15.680 -0.0008 -0.4280 -0.1617
15650TIP3    H168441   0.567   3.317  15.729 -1.0331 -1.3063  0.4392
15650TIP3    H268442   0.501   3.326  15.593  1.2590  0.5669 -0.6307
15651TIP3   OH268443   2.699   6.181  10.859 -0.0433 -0.6485 -0.3739
15651TIP3    H168444   2.706   6.122  10.785 -0.1564 -1.0322 -0.0792
15651TIP3    H268445   2.763   6.249  10.841  0.1610 -0.9152 -0.6616
15652TIP3   OH268446   2.748   1.584  14.069 -0.1272 -0.6288  0.0722
15652TIP3    H168447   2.655   1.608  14.060 -0.2035 -1.1394 -0.5573
15652TIP3    H268448   2.795   1.661  14.037 -0.3286 -0.4018  0.3098
15653TIP3   OH268449   5.021   3.070  10.932 -0.3106 -0.4129  0.0036
15653TIP3    H168450   5.096   3.111  10.890 -0.2983 -1.0389 -0.5859
15653TIP3    H268451   5.040   2.976  10.931 -0.6686 -0.5046  0.7033
15654TIP3   OH268452   5.797   3.270   2.537 -0.0998  0.0843  0.1712
15654TIP3    H168453   5.855   3.201   2.569 -0.6895 -0.2432  0.5776
15654TIP3    H268454   5.722   3.267   2.598  0.2152  1.5961  0.6555
15655TIP3   OH268455   0.276   1.496   5.843 -0.4182  0.2006  0.0860
15655TIP3    H168456   0.195   1.538   5.812  0.1288  0.6259 -0.8016
15655TIP3    H268457   0.260   1.480   5.936 -1.4992  0.3358 -0.0576
15656TIP3   OH268458   1.864   0.835  13.133 -0.4120 -0.6663 -0.2366
15656TIP3    H168459   1.790   0.896  13.138 -0.7274 -1.0592 -0.0340
15656TIP3    H268460   1.927   0.878  13.076  0.4753  1.0269  1.9175
15657TIP3   OH268461   2.406   1.291   3.745  0.1345  1.0119 -0.4070
15657TIP3    H168462   2.393   1.360   3.810 -2.5225 -1.7017  2.3344
15657TIP3    H268463   2.498   1.266   3.753 -0.3024 -0.0255  3.4851
15658TIP3   OH268464   5.771   0.600  14.367 -0.5423  0.3799 -0.3076
15658TIP3    H168465   5.843   0.536  14.369 -0.8815 -0.0031  1.5950
15658TIP3    H268466   5.797   0.667  14.429 -1.6514  0.4350  0.1155
15659TIP3   OH268467   2.078   2.940  16.198  0.6172 -0.1089  0.4450
15659TIP3    H168468   2.009   2.992  16.156 -0.3210 -3.6345 -3.0523
15659TIP3    H268469   2.159   2.978  16.166  0.0311  0.1954 -0.7513
15660TIP3   OH268470   2.446   6.458  15.825 -0.4457  0.7612 -0.1265
15660TIP3    H168471   2.480   6.377  15.788 -0.8872  0.4982  0.0290
15660TIP3    H268472   2.437   6.440  15.919  0.4656  1.3500  0.0910
15661TIP3   OH268473   5.756   5.093  16.410 -0.5274  0.1578  0.1605
15661TIP3    H168474   5.724   5.087  16.500 -3.2000  0.6066 -0.6632
15661TIP3    H268475   5.705   5.163  16.371  0.7732  0.1686 -1.6510
15662TIP3   OH268476   5.010   2.738   0.517 -0.2495  0.5870  0.4739
15662TIP3    H168477   5.049   2.659   0.478 -2.6773 -0.0380 -0.9304
15662TIP3    H268478   5.046   2.810   0.466 -0.3373  0.0844 -0.3182
15663TIP3   OH268479   5.414   1.453  16.181  0.3265  0.2581  0.2688
15663TIP3    H168480   5.414   1.548  16.195  2.7738  0.2855  0.3890
15663TIP3    H268481   5.431   1.443  16.087 -0.0960 -0.0797  0.2266
15664TIP3   OH268482   4.250   5.687   4.986  0.8196 -0.3611  0.5382
15664TIP3    H168483   4.315   5.737   4.936  1.3382  0.5675  2.0650
15664TIP3    H268484   4.288   5.600   4.996  1.4686 -0.0630  0.7091
15665TIP3   OH268485   3.117   4.431  15.905 -0.4089 -0.4405 -0.8605
15665TIP3    H168486   3.141   4.521  15.882 -0.5208  0.5716  2.5348
15665TIP3    H268487   3.183   4.405  15.970 -2.3143 -1.5068  0.7508
15666TIP3   OH268488   0.293   6.019  14.410  0.5210 -0.4875 -0.1966
15666TIP3    H168489   0.348   6.096  14.397  0.7705 -0.5336  0.5341
15666TIP3    H268490   0.214   6.037  14.359  0.4913  0.3432  0.1246
15667TIP3   OH268491   3.835   2.094   3.791  0.2713 -0.1169  0.2121
15667TIP3    H168492   3.814   2.020   3.735  1.4045  0.2335 -0.7275
15667TIP3    H268493   3.759   2.151   3.786 -0.1181 -0.6515 -0.0223
15668TIP3   OH268494   6.796   1.904   5.089  0.1936 -0.4056  0.2540
15668TIP3    H168495   6.785   1.994   5.058  1.7349 -0.7234 -1.4497
15668TIP3    H268496   6.710   1.877   5.119 -0.0013  2.0858  2.1413
15669TIP3   OH268497   1.258   3.015   3.937  0.1558 -0.2217 -0.6155
15669TIP3    H168498   1.266   3.038   3.844  0.9860 -1.6940 -0.9357
15669TIP3    H268499   1.348   2.999   3.965 -0.0900  0.2407  0.4742
15670TIP3   OH268500   0.742   6.115  15.492 -0.1402 -0.5038 -0.2500
15670TIP3    H168501   0.785   6.181  15.437  0.6185 -0.2278  0.6503
15670TIP3    H268502   0.767   6.032  15.452  2.5448 -0.4454  1.0666
15671TIP3   OH268503   2.844   0.605  15.287  0.3061  0.4172  1.0407
15671TIP3    H168504   2.866   0.697  15.300 -0.1332  0.6808  0.0278
15671TIP3    H268505   2.886   0.559  15.360  2.5745  1.1028  0.2320
15672TIP3   OH268506   6.663   1.552  11.271  0.2045 -0.5097  0.3080
15672TIP3    H168507   6.574   1.528  11.299 -1.7182  0.8291 -3.7776
15672TIP3    H268508   6.690   1.481  11.214  0.0689  0.7664 -1.4246
15673TIP3   OH268509   5.108   3.875   3.318  0.4156 -0.4503 -0.4214
15673TIP3    H168510   5.126   3.808   3.384 -0.0962 -0.3202 -0.1477
15673TIP3    H268511   5.065   3.828   3.247 -0.7342 -0.2814  0.1349
15674TIP3   OH268512   5.900   6.830  11.646  0.1614 -0.1386 -0.2504
15674TIP3    H168513   5.847   6.840  11.725  1.8126 -0.3387  0.9506
15674TIP3    H268514   5.948   6.748  11.660 -1.1813 -1.4213 -2.5403
15675TIP3   OH268515   0.870   4.155  15.447 -0.2637  0.5389 -0.0339
15675TIP3    H168516   0.900   4.131  15.359  2.8705  0.4753  0.9324
15675TIP3    H268517   0.894   4.248  15.456  0.8407  0.1791  1.1898
15676TIP3   OH268518   6.469   6.278  15.951  0.2199  0.0614  0.2473
15676TIP3    H168519   6.388   6.330  15.945  0.6116  0.8096  1.1079
15676TIP3    H268520   6.490   6.279  16.044  1.6269  0.5148 -0.0503
15677TIP3   OH268521   4.399   0.275  11.427  0.6904 -0.3772  0.0876
15677TIP3    H168522   4.424   0.367  11.435  1.2859 -0.4943 -0.3198
15677TIP3    H268523   4.457   0.229  11.488  0.6044 -0.5119  0.0680
15678TIP3   OH268524   6.454   1.513  14.224  0.1625 -0.1123  0.2757
15678TIP3    H168525   6.549   1.520  14.217  0.1273  0.0640 -0.0264
15678TIP3    H268526   6.438   1.497  14.317  0.5036 -0.3927  0.2885
15679TIP3   OH268527   6.253   5.406   0.732  0.2782 -0.7869  0.3342
15679TIP3    H168528   6.230   5.393   0.823 -0.9637  2.7747  0.6647
15679TIP3    H268529   6.349   5.405   0.731  0.2986 -1.3345  1.5744
15680TIP3   OH268530   4.508   3.245  12.641 -0.2463  0.4484  0.6791
15680TIP3    H168531   4.471   3.286  12.563 -0.5102 -1.5892 -0.3156
15680TIP3    H268532   4.576   3.306  12.670  0.6568  0.7395 -1.8171
15681TIP3   OH268533   6.154   1.571  11.940  0.6871 -0.2242 -0.1833
15681TIP3    H168534   6.109   1.497  11.981  2.1785 -1.1377 -0.1174
15681TIP3    H268535   6.230   1.586  11.995  1.1073  0.5009 -0.9481
15682TIP3   OH268536   0.975   1.620  13.835 -0.0743  0.0935  0.2435
15682TIP3    H168537   1.040   1.580  13.892 -0.2071 -0.5867 -0.0676
15682TIP3    H268538   0.891   1.591  13.870 -0.1450 -0.6248 -0.5038
15683TIP3   OH268539   5.143   0.127   3.222  0.3010 -0.1148 -0.5021
15683TIP3    H168540   5.169   0.056   3.282 -3.4066 -3.3909 -2.3250
15683TIP3    H268541   5.175   0.098   3.136 -1.3407  0.3558 -1.2989
15684TIP3   OH268542   3.360   3.929  14.285  0.2922  0.1065  0.1276
15684TIP3    H168543   3.285   3.988  14.299 -0.6584 -1.3575  1.5110
15684TIP3    H268544   3.327   3.843  14.309  2.0040 -0.8313 -0.7345
15685TIP3   OH268545   1.913   3.893  12.534  0.3572  0.2803  0.0015
15685TIP3    H168546   1.999   3.915  12.571 -0.5676  1.7663  1.4450
15685TIP3    H268547   1.887   3.813  12.579  0.7593  0.1257 -0.0398
15686TIP3   OH268548   4.236   6.093  13.422 -0.2576  0.2975  0.3911
15686TIP3    H168549   4.232   6.117  13.514 -1.2710 -0.0743  0.4540
15686TIP3    H268550   4.285   6.164  13.381  0.5282  0.2817  1.2650
15687TIP3   OH268551   6.606   3.302   0.503 -0.2934 -0.3885 -0.3380
15687TIP3    H168552   6.661   3.351   0.442  1.2539 -0.1965  1.1356
15687TIP3    H268553   6.668   3.259   0.562 -1.6880 -1.9105  0.1017
15688TIP3   OH268554   2.653   3.402   3.340  0.7253  0.4573  0.2157
15688TIP3    H168555   2.712   3.434   3.408 -0.3133 -1.4817  2.1890
15688TIP3    H268556   2.708   3.391   3.263  2.1257  2.0044  0.9404
15689TIP3   OH268557   3.803   0.265  10.470 -0.0079 -0.3951 -0.0437
15689TIP3    H168558   3.821   0.331  10.538 -0.5390  1.2126 -1.4015
15689TIP3    H268559   3.751   0.312  10.404 -2.0314 -2.6620 -0.2083
15690TIP3   OH268560   3.252   3.862  12.870 -0.1647 -0.5418  0.2103
15690TIP3    H168561   3.216   3.939  12.826 -0.1934 -1.4397 -1.4190
15690TIP3    H268562   3.176   3.804  12.881  0.1523 -1.0274 -0.1237
15691TIP3   OH268563   0.633   4.841  13.593 -0.3374 -0.1019  0.6448
15691TIP3    H168564   0.572   4.854  13.666 -1.7544 -1.6397 -0.1933
15691TIP3    H268565   0.582   4.865  13.516  0.8354  0.5852  0.0633
15692TIP3   OH268566   5.516   0.321  13.625 -0.1108 -0.2267  0.7332
15692TIP3    H168567   5.567   0.260  13.573  0.3783  1.3123 -0.6700
15692TIP3    H268568   5.559   0.322  13.711  1.5264  0.1400 -0.0525
15693TIP3   OH268569   1.504   3.282   3.330 -0.4230 -0.2783  0.4444
15693TIP3    H168570   1.483   3.266   3.422 -1.2723  0.0079  0.3104
15693TIP3    H268571   1.520   3.377   3.326 -2.3828  0.0813 -0.0504
15694TIP3   OH268572   2.313   0.179   0.569 -0.0585  0.1855 -0.3614
15694TIP3    H168573   2.239   0.150   0.623  0.7853  0.4174  0.9809
15694TIP3    H268574   2.348   0.099   0.531  0.7316 -0.3180  1.3205
15695TIP3   OH268575   6.461   5.442   3.581  0.1153 -0.1494 -0.2008
15695TIP3    H168576   6.406   5.517   3.559 -2.2067 -1.8575 -0.5961
15695TIP3    H268577   6.481   5.454   3.674  0.4984  1.3671 -0.4552
15696TIP3   OH268578   3.267   5.937  16.437 -0.2313  0.3418 -0.0965
15696TIP3    H168579   3.231   6.019  16.401  0.2555  0.0830 -1.1999
15696TIP3    H268580   3.272   5.953  16.532 -0.9387  1.2738 -0.1963
15697TIP3   OH268581   0.687   1.031  11.328  0.1548 -0.4321  0.0655
15697TIP3    H168582   0.687   0.948  11.375  1.2707 -0.3810  0.1879
15697TIP3    H268583   0.772   1.033  11.284 -0.0072  0.4807 -0.2208
15698TIP3   OH268584   2.274   4.614   4.163 -0.5309 -0.3710 -0.1501
15698TIP3    H168585   2.205   4.658   4.113  1.0148 -0.1156 -2.2029
15698TIP3    H268586   2.248   4.522   4.162 -1.0270 -0.2336 -0.5858
15699TIP3   OH268587   6.544   2.653  13.316 -0.8758 -0.5845 -0.3354
15699TIP3    H168588   6.619   2.609  13.277 -1.5460 -0.9853 -1.2069
15699TIP3    H268589   6.545   2.626  13.408 -1.1238 -2.2179 -0.7844
15700TIP3   OH268590   2.086   0.921  10.790  0.2137 -0.2536  0.3378
15700TIP3    H168591   2.000   0.897  10.824  0.5565 -0.2937  1.2122
15700TIP3    H268592   2.088   0.884  10.702 -0.4550 -0.7269  0.5138
15701TIP3   OH268593   1.998   0.361   1.599  0.0067  0.8475 -0.2931
15701TIP3    H168594   2.034   0.397   1.518 -0.6146  2.4156  0.0768
15701TIP3    H268595   1.972   0.438   1.649 -0.8930 -0.1333  0.8052
15702TIP3   OH268596   3.519   2.685  16.449 -0.9664  0.2881 -0.1914
15702TIP3    H168597   3.555   2.763  16.407 -0.5672  0.4135  0.3578
15702TIP3    H268598   3.478   2.636  16.379  2.7662 -1.3598 -1.5128
15703TIP3   OH268599   5.012   2.136   4.804 -0.0889  0.5405  0.0931
15703TIP3    H168600   5.054   2.056   4.834  3.5735  1.0737 -2.7979
15703TIP3    H268601   5.008   2.192   4.881  1.7186 -0.7740  1.2088
15704TIP3   OH268602   0.137   1.170  14.219 -0.0488 -0.1066 -0.1902
15704TIP3    H168603   0.187   1.250  14.198  0.5457 -0.7643 -1.3483
15704TIP3    H268604   0.102   1.141  14.135 -1.8173 -0.0723  0.4917
15705TIP3   OH268605   3.431   0.529  14.293  0.3377  0.2651  0.1699
15705TIP3    H168606   3.475   0.467  14.352 -0.0947  0.2269  0.4514
15705TIP3    H268607   3.450   0.615  14.331 -1.6018  0.1487  1.5228
15706TIP3   OH268608   0.522   5.324  14.020  0.3598 -0.0804  0.0601
15706TIP3    H168609   0.488   5.254  13.965 -0.1449 -0.0852  0.3807
15706TIP3    H268610   0.531   5.399  13.960 -0.1966 -0.0836 -0.0272
15707TIP3   OH268611   6.186   5.909  12.604 -0.4855 -0.4234 -0.1654
15707TIP3    H168612   6.099   5.941  12.629 -0.6508 -1.1010  0.1546
15707TIP3    H268613   6.247   5.963  12.656 -0.8108 -1.5343  1.4474
15708TIP3   OH268614   4.611   6.787   0.653  0.8241  0.0232 -0.2768
15708TIP3    H168615   4.692   6.828   0.682  1.5336 -0.4377 -1.4890
15708TIP3    H268616   4.603   6.812   0.561 -0.2239 -0.2349 -0.2738
15709TIP3   OH268617   5.336   1.454   1.312 -0.2384  0.6066  0.2953
15709TIP3    H168618   5.315   1.361   1.301  0.1713  0.4531  0.7875
15709TIP3    H268619   5.264   1.500   1.268 -0.5329  0.0619  0.1973
15710TIP3   OH268620   3.565   3.483  17.062  0.2878  0.1128  0.3546
15710TIP3    H168621   3.483   3.513  17.025  0.8038  0.6380 -0.3873
15710TIP3    H268622   3.582   3.399  17.018  2.6477  2.2940 -3.4314
15711TIP3   OH268623   6.384   1.722   3.252 -0.3475  1.0123 -0.5147
15711TIP3    H168624   6.433   1.700   3.331 -1.8006 -2.3166 -0.4060
15711TIP3    H268625   6.313   1.779   3.282 -0.3445  0.5219  0.4380
15712TIP3   OH268626   4.356   6.550  16.863  0.4527  0.0214 -0.3361
15712TIP3    H168627   4.383   6.628  16.815 -1.4882 -0.1296 -1.7883
15712TIP3    H268628   4.438   6.508  16.890  1.6046  0.7850 -2.4368
15713TIP3   OH268629   3.698   6.010   4.947  0.1816  0.4183 -0.0876
15713TIP3    H168630   3.707   6.103   4.927 -0.2186  0.2381 -1.1700
15713TIP3    H268631   3.626   5.980   4.891  0.1254 -0.4846  0.4478
15714TIP3   OH268632   1.182   1.677  16.610 -0.3366 -0.2308  0.3666
15714TIP3    H168633   1.199   1.595  16.656  0.4958  0.1331  0.7267
15714TIP3    H268634   1.268   1.718  16.601 -0.2422 -0.8812 -2.6694
15715TIP3   OH268635   5.817   0.738   0.599  0.0071  0.3761  0.0221
15715TIP3    H168636   5.733   0.692   0.596 -0.3110  0.9490 -0.0713
15715TIP3    H268637   5.820   0.787   0.516 -0.2254  1.4837  0.6430
15716TIP3   OH268638   0.602   4.961  14.035 -1.0704  0.1309  0.3599
15716TIP3    H168639   0.617   4.883  14.087 -2.8334  0.3499  1.2567
15716TIP3    H268640   0.689   4.985  14.001  0.1493 -0.0541  3.1481
15717TIP3   OH268641   1.253   0.512   5.842 -0.3115  0.3167 -0.6130
15717TIP3    H168642   1.167   0.555   5.851  0.6410  2.2605 -0.2859
15717TIP3    H268643   1.313   0.583   5.822  1.4089 -0.8461  0.1958
15718TIP3   OH268644   3.890   5.733  16.259  0.9312 -0.2634  0.1056
15718TIP3    H168645   3.930   5.761  16.341 -0.0874 -0.8891  0.8322
15718TIP3    H268646   3.848   5.813  16.225  2.0114  0.1858 -0.2329
15719TIP3   OH268647   6.147   2.521  15.903 -0.0011 -0.3883  0.4720
15719TIP3    H168648   6.137   2.577  15.980  0.0562  0.7203 -0.3165
15719TIP3    H268649   6.141   2.580  15.829 -0.9553 -1.5604 -0.4279
15720TIP3   OH268650   4.814   2.682   1.597 -0.0426 -0.1740 -0.4843
15720TIP3    H168651   4.753   2.755   1.594  0.2575  0.0988 -0.0608
15720TIP3    H268652   4.895   2.719   1.631  0.2817 -0.5900 -0.7875
15721TIP3   OH268653   3.024   1.554  12.765 -0.0708  0.2140 -0.3675
15721TIP3    H168654   2.941   1.590  12.796  0.1959 -0.6868  1.4915
15721TIP3    H268655   3.083   1.558  12.840  0.3476 -2.8276 -0.4013
15722TIP3   OH268656   4.796   5.678   3.328 -0.2308 -0.1686  0.0350
15722TIP3    H168657   4.826   5.765   3.302  2.3478  0.2818  3.6968
15722TIP3    H268658   4.873   5.622   3.320 -1.4029 -1.7600 -0.6848
15723TIP3   OH268659   4.062   3.408   3.759 -0.6426 -0.8339 -0.2276
15723TIP3    H168660   4.007   3.461   3.817 -1.2757 -1.0570 -0.6119
15723TIP3    H268661   4.151   3.428   3.786 -0.7632  1.6668 -1.3975
15724TIP3   OH268662   3.384   5.192  12.637  0.6914 -0.0891 -0.3710
15724TIP3    H168663   3.443   5.267  12.629 -0.0352  0.6380  0.8246
15724TIP3    H268664   3.428   5.133  12.698  2.1375 -1.5684 -2.6864
15725TIP3   OH268665   6.582   0.963   3.488  0.0552  0.9340 -0.2141
15725TIP3    H168666   6.615   0.948   3.400 -0.2092 -3.4085  0.1960
15725TIP3    H268667   6.632   0.902   3.543 -3.8822 -1.0888  1.5063
15726TIP3   OH268668   6.346   5.193   5.852 -0.7800 -0.5695  0.5615
15726TIP3    H168669   6.421   5.214   5.797 -0.2267  0.0596  1.5425
15726TIP3    H268670   6.278   5.166   5.790  0.1637 -0.9081 -0.3515
15727TIP3   OH268671   0.364   1.030  16.669  0.2783 -0.1021 -0.0340
15727TIP3    H168672   0.421   1.049  16.743 -0.2653 -0.7138  0.5510
15727TIP3    H268673   0.411   1.065  16.593  0.1210  1.9832  0.7618
15728TIP3   OH268674   1.111   6.396  13.057  0.1887  0.6784 -0.1706
15728TIP3    H168675   1.197   6.356  13.071 -0.2542  0.0282  0.8037
15728TIP3    H268676   1.110   6.472  13.116 -0.6672 -0.5261  1.4603
15729TIP3   OH268677   1.584   4.536  11.020 -0.8693  0.4702 -0.5942
15729TIP3    H168678   1.606   4.599  10.952  1.1922 -0.3960 -0.8034
15729TIP3    H268679   1.657   4.474  11.020 -1.5319 -0.3972  1.4026
15730TIP3   OH268680   1.577   1.839  17.093  0.1663  0.6627 -0.0595
15730TIP3    H168681   1.492   1.832  17.136 -0.4288 -2.0152 -1.4051
15730TIP3    H268682   1.568   1.913  17.033 -0.2680  2.0139  1.5802
15731TIP3   OH268683   2.739   2.086   5.647  0.0187 -0.9090 -0.0016
15731TIP3    H168684   2.666   2.145   5.669 -0.1978 -1.1467 -0.0726
15731TIP3    H268685   2.818   2.135   5.670 -0.1498 -0.4590 -0.3695
15732TIP3   OH268686   6.112   4.903   0.228 -0.8293 -0.0305 -0.6108
15732TIP3    H168687   6.124   4.894   0.323  1.1974  0.5027 -0.7722
15732TIP3    H268688   6.115   4.998   0.212  2.0367 -0.1768 -1.4908
15733TIP3   OH268689   6.442   1.207  12.574 -0.2948 -0.3099  0.2212
15733TIP3    H168690   6.354   1.242  12.589 -0.6071 -1.5348  1.3966
15733TIP3    H268691   6.430   1.137  12.510 -0.0616 -0.0203 -0.1441
15734TIP3   OH268692   6.562   2.431   4.307  0.5327 -0.2655  0.3591
15734TIP3    H168693   6.492   2.372   4.332  1.3072 -0.8741  1.1716
15734TIP3    H268694   6.638   2.401   4.358  1.4094  0.2928 -0.5655
15735TIP3   OH268695   2.263   2.226   5.001  0.4527 -0.3020 -0.6761
15735TIP3    H168696   2.288   2.200   5.090 -2.2966 -0.8508  0.0453
15735TIP3    H268697   2.337   2.201   4.947  1.2857 -2.1441  1.1625
15736TIP3   OH268698   5.878   1.388  13.444  0.0919  0.0356  0.0908
15736TIP3    H168699   5.943   1.388  13.514 -1.7796 -0.2734  1.9357
15736TIP3    H268700   5.805   1.440  13.479 -0.8356  0.0565 -1.7394
15737TIP3   OH268701   5.736   1.791   2.713  0.6458 -0.0917  0.2288
15737TIP3    H168702   5.695   1.713   2.750  0.5942 -1.0963 -1.7681
15737TIP3    H268703   5.669   1.829   2.656  0.0705  2.4573  2.4139
15738TIP3   OH268704   6.375   3.012  11.385 -0.7423  0.4991 -0.8786
15738TIP3    H168705   6.292   3.038  11.424  0.2109  2.6259 -0.1122
15738TIP3    H268706   6.406   3.091  11.341  1.4482  0.1454 -0.0774
15739TIP3   OH268707   1.540   0.899  14.731 -0.0941  0.5385  0.3592
15739TIP3    H168708   1.531   0.824  14.672 -1.5989  0.6463  0.4213
15739TIP3    H268709   1.570   0.970  14.674 -0.3477  0.3259 -0.0459
15740TIP3   OH268710   2.401   6.250  14.691 -1.0391  0.3230 -0.2151
15740TIP3    H168711   2.307   6.257  14.676 -1.4073 -0.3449  1.5611
15740TIP3    H268712   2.422   6.158  14.673 -0.7726  0.3997 -0.3086
15741TIP3   OH268713   2.977   6.665  14.609 -0.1636 -0.1471  0.1871
15741TIP3    H168714   2.892   6.662  14.564  0.2954 -1.0636 -0.6545
15741TIP3    H268715   2.954   6.682  14.700 -1.0585  2.7919 -0.4645
15742TIP3   OH268716   4.949   3.837   3.098  0.1866  0.3031 -0.8775
15742TIP3    H168717   4.934   3.802   3.010 -2.5801  0.3777 -0.5236
15742TIP3    H268718   4.995   3.919   3.083  0.4740 -0.0722 -2.2081
15743TIP3   OH268719   5.633   6.708   6.288 -0.0388  0.6026 -0.0504
15743TIP3    H168720   5.579   6.645   6.336  0.5521 -0.2109 -0.4290
15743TIP3    H268721   5.723   6.680   6.305  0.2119  1.0210 -0.6502
15744TIP3   OH268722   6.735   6.603   0.270 -0.6243  0.3240 -0.5120
15744TIP3    H168723   6.749   6.510   0.253  0.5506  0.3261  0.3154
15744TIP3    H268724   6.650   6.607   0.315 -0.2199 -0.4802  0.3664
15745TIP3   OH268725   5.173   6.615   2.216 -0.4568 -0.2158  0.6293
15745TIP3    H168726   5.229   6.619   2.139 -0.2899  3.1628  0.7726
15745TIP3    H268727   5.114   6.690   2.207 -2.8077 -1.7302  2.1138
15746TIP3   OH268728   4.757   3.368   0.391 -0.9338 -0.2425 -0.4524
15746TIP3    H168729   4.741   3.343   0.300 -1.4490  0.4514 -0.5557
15746TIP3    H268730   4.787   3.459   0.387 -0.1240 -0.4810  0.0034
15747TIP3   OH268731   3.189   5.951   4.579  0.3519  0.1181 -0.2598
15747TIP3    H168732   3.236   5.993   4.507  0.5624  0.4273  0.0545
15747TIP3    H268733   3.100   5.986   4.571  0.4061  0.2511 -0.2908
15748TIP3   OH268734   4.073   0.302   6.716  0.2398 -0.0406 -0.4630
15748TIP3    H168735   3.980   0.297   6.695  0.1814  1.9837 -0.8904
15748TIP3    H268736   4.101   0.211   6.724 -1.7349 -0.6899 -0.4591
15749TIP3   OH268737   5.713   6.108  11.969 -0.5220  0.2764  0.4026
15749TIP3    H168738   5.741   6.149  12.051 -0.0096  0.3301  0.2050
15749TIP3    H268739   5.773   6.034  11.958 -0.4319  0.4121 -0.0466
15750TIP3   OH268740   1.795   5.867  16.260 -0.1331  0.0113 -0.1041
15750TIP3    H168741   1.760   5.780  16.244  1.3486 -0.3334 -1.8540
15750TIP3    H268742   1.724   5.926  16.234  0.0058 -0.6698 -2.2599
15751TIP3   OH268743   5.592   1.953   2.045  0.3792 -0.7537 -0.2982
15751TIP3    H168744   5.513   1.909   2.075  1.0285 -1.5395  0.3200
15751TIP3    H268745   5.570   2.046   2.045  1.1186 -0.2316  5.4993
15752TIP3   OH268746   2.301   4.352  11.802 -0.0910 -0.1788  0.7096
15752TIP3    H168747   2.205   4.349  11.805 -0.1527 -1.6092 -1.0111
15752TIP3    H268748   2.321   4.418  11.736  0.1471  0.4182  1.3615
15753TIP3   OH268749   0.145   2.155  14.516  0.1021 -0.0103 -0.6143
15753TIP3    H168750   0.066   2.165  14.464  0.0697 -1.6975 -0.9383
15753TIP3    H268751   0.211   2.122  14.455  0.2327 -1.4164  0.2336
15754TIP3   OH268752   3.596   4.504   0.598 -0.0476 -0.0953 -0.3040
15754TIP3    H168753   3.691   4.497   0.607  0.1981 -0.0244 -2.3458
15754TIP3    H268754   3.576   4.596   0.618  0.3205 -0.0808  0.0032
15755TIP3   OH268755   4.018   5.457  10.494  0.3293  0.4625  0.0825
15755TIP3    H168756   4.018   5.393  10.422  2.1973  0.3989  0.0928
15755TIP3    H268757   3.964   5.529  10.462  1.2802  0.5277 -1.5052
15756TIP3   OH268758   4.832   6.521   3.538 -0.3462 -0.2491 -0.2209
15756TIP3    H168759   4.880   6.547   3.459 -0.4592 -1.1088 -0.5860
15756TIP3    H268760   4.839   6.426   3.540 -0.1108 -0.2231  0.9735
15757TIP3   OH268761   5.460   4.671  12.753  0.0862  0.1545 -0.9525
15757TIP3    H168762   5.507   4.621  12.820  0.0183  1.3809  0.0509
15757TIP3    H268763   5.373   4.632  12.751  0.1995 -0.1279 -0.5829
15758TIP3   OH268764   2.176   6.044   3.170 -0.3376 -0.4030  0.0084
15758TIP3    H168765   2.213   6.118   3.218  0.0555 -0.3261 -0.4066
15758TIP3    H268766   2.130   5.992   3.237 -1.5820  0.7947  0.1227
15759TIP3   OH268767   3.793   5.156   0.272 -0.0460  0.2724  0.0067
15759TIP3    H168768   3.816   5.216   0.201  2.0906 -0.5256 -0.0501
15759TIP3    H268769   3.816   5.203   0.352  1.0670 -0.2277 -0.0119
15760TIP3   OH268770   3.661   0.056  11.828  0.0610 -0.2547  0.1754
15760TIP3    H168771   3.612   0.077  11.749 -2.3687 -2.3493  0.9859
15760TIP3    H268772   3.735   0.002  11.797 -1.9249 -2.7094 -0.6186
15761TIP3   OH268773   5.017   4.880   1.961  0.1750 -0.3628 -0.7004
15761TIP3    H168774   5.087   4.834   2.006  0.6108  1.2233  0.3154
15761TIP3    H268775   4.965   4.920   2.031 -0.0336  0.8745 -1.5172
15762TIP3   OH268776   1.776   6.122  17.129  0.2025 -0.4638 -0.7933
15762TIP3    H168777   1.866   6.105  17.158  0.7825  1.4932 -1.2881
15762TIP3    H268778   1.722   6.092  17.202  1.3982  0.3868  0.5002
15763TIP3   OH268779   0.967   3.931   5.872  0.0631 -0.1723 -0.6669
15763TIP3    H168780   1.004   3.862   5.928  0.7373  1.4258  0.9670
15763TIP3    H268781   0.872   3.919   5.881  0.1149  0.6674  1.7751
15764TIP3   OH268782   4.929   3.853  12.278 -0.5235  0.4639  0.0092
15764TIP3    H168783   4.838   3.865  12.306 -0.6802 -0.2111 -0.1701
15764TIP3    H268784   4.921   3.805  12.195  0.0286 -1.0502  0.7989
15765TIP3   OH268785   2.113   2.054   0.153  0.1151  0.6277 -0.8033
15765TIP3    H168786   2.074   2.126   0.104  1.0062  0.8647 -1.2046
15765TIP3    H268787   2.195   2.036   0.106 -0.2706 -0.9107 -0.9527
15766TIP3   OH268788   2.103   1.360  15.754  0.1616 -0.5346 -0.0656
15766TIP3    H168789   2.174   1.318  15.802  0.2121 -1.7329 -1.1011
15766TIP3    H268790   2.141   1.381  15.668 -0.7817 -1.4903 -0.7511
15767TIP3   OH268791   1.102   5.762   2.658  0.5449  0.2197 -0.2530
15767TIP3    H168792   1.111   5.667   2.663  0.6732  0.2474  0.0114
15767TIP3    H268793   1.013   5.780   2.688  0.1302  0.0869 -1.3594
15768TIP3   OH268794   3.200   4.897  12.117 -0.0292 -0.9635 -0.0908
15768TIP3    H168795   3.198   4.980  12.069 -1.7174 -1.0934 -0.2957
15768TIP3    H268796   3.171   4.832  12.054 -2.4228 -1.1229  1.0847
15769TIP3   OH268797   1.946   1.556  11.411  0.5608 -0.3396  0.2846
15769TIP3    H168798   1.997   1.478  11.436  4.9019  2.7507  2.2463
15769TIP3    H268799   1.920   1.594  11.495 -1.0247  0.6680 -0.6277
15770TIP3   OH268800   0.833   1.284  16.334  0.1235 -0.5326  0.4687
15770TIP3    H168801   0.887   1.346  16.286 -1.9469 -1.1620 -3.0391
15770TIP3    H268802   0.894   1.236  16.389  3.3310 -1.4497 -3.4754
15771TIP3   OH268803   3.856   1.472  12.985  0.3758  0.5153  0.2802
15771TIP3    H168804   3.886   1.453  13.074  0.8873  0.6042  0.1311
15771TIP3    H268805   3.818   1.390  12.954  1.3943  0.0982  0.1043
15772TIP3   OH268806   1.147   3.302   0.291 -0.2435  0.1131  0.1790
15772TIP3    H168807   1.123   3.225   0.239  3.3231 -1.0776  0.0512
15772TIP3    H268808   1.163   3.370   0.225 -0.6635  0.1204  0.0832
15773TIP3   OH268809   2.602   5.595   5.019  0.4469  0.8797 -0.4136
15773TIP3    H168810   2.551   5.540   4.959 -0.3643 -2.2772  2.8262
15773TIP3    H268811   2.692   5.564   5.008  0.6252  1.6257 -1.2223
15774TIP3   OH268812   0.418   4.513  12.184 -0.0759 -0.4275  0.2120
15774TIP3    H168813   0.431   4.590  12.239  0.1944  0.7988 -1.4999
15774TIP3    H268814   0.327   4.520  12.154 -0.4107 -1.4110  0.9478
15775TIP3   OH268815   4.044   3.099   4.552 -0.4833 -0.3920 -0.2746
15775TIP3    H168816   4.118   3.084   4.612 -0.2098 -0.3706 -0.6036
15775TIP3    H268817   3.967   3.098   4.609 -0.3186 -1.3299 -0.0467
15776TIP3   OH268818   4.074   2.517  12.188  0.1374 -0.0307  0.2146
15776TIP3    H168819   4.051   2.430  12.221  1.3889 -0.3501  0.2635
15776TIP3    H268820   4.051   2.576  12.259  0.8225 -0.4975  0.8330
15777TIP3   OH268821   0.523   3.063  12.410  0.1867  0.4207  0.0047
15777TIP3    H168822   0.525   3.158  12.426  2.1238  0.3183  0.6782
15777TIP3    H268823   0.578   3.052  12.332  0.0473 -0.1540 -0.0137
15778TIP3   OH268824   6.174   0.912   2.701 -0.0964  0.7524  0.1173
15778TIP3    H168825   6.083   0.939   2.690  0.1211  1.5457  0.1308
15778TIP3    H268826   6.203   0.959   2.779  0.1440  0.0011  0.4856
15779TIP3   OH268827   6.045   3.917   0.753 -0.4743  0.4863 -0.3704
15779TIP3    H168828   5.997   3.835   0.746  0.3331 -0.2257  1.6979
15779TIP3    H268829   6.044   3.939   0.846  3.6828  0.0489 -0.0081
15780TIP3   OH268830   3.061   5.084  11.070 -0.2086 -0.2204 -0.7534
15780TIP3    H168831   2.980   5.118  11.108  1.0591  0.6487  1.4013
15780TIP3    H268832   3.058   5.109  10.978 -1.3944  1.7840 -0.2199
15781TIP3   OH268833   4.780   3.288   3.501 -0.0061  0.3901 -0.3623
15781TIP3    H168834   4.850   3.353   3.503  0.7036 -0.3494 -0.6579
15781TIP3    H268835   4.758   3.273   3.593  1.1599 -0.3365 -0.1742
15782TIP3   OH268836   6.738   2.854   4.585 -0.1026  0.8544  0.0215
15782TIP3    H168837   6.668   2.800   4.549  0.4013  0.9459 -1.1670
15782TIP3    H268838   6.725   2.940   4.544 -0.4314  1.4262  1.2875
15783TIP3   OH268839   0.065   6.204   0.266 -0.1205 -0.4039 -1.1080
15783TIP3    H168840   0.144   6.175   0.313  1.3051  1.7931 -1.9831
15783TIP3    H268841   0.069   6.158   0.182  1.4684  1.2869 -2.0149
15784TIP3   OH268842   0.328   6.728  11.667  0.6867  0.2635  0.3241
15784TIP3    H168843   0.285   6.690  11.743  0.7528  0.6462  0.5572
15784TIP3    H268844   0.295   6.678  11.593  0.2647  0.1945  0.5588
15785TIP3   OH268845   2.141   6.218  11.708 -0.1248 -0.2277  0.1078
15785TIP3    H168846   2.091   6.212  11.626  0.0527  4.3369 -0.6051
15785TIP3    H268847   2.078   6.197  11.776 -1.3879 -0.3352 -1.0413
15786TIP3   OH268848   4.517   3.841  12.075 -0.9085 -0.8381 -0.2552
15786TIP3    H168849   4.512   3.915  12.015  3.3458 -1.8783 -2.3213
15786TIP3    H268850   4.493   3.765  12.020 -0.6551 -1.4564  0.4753
15787TIP3   OH268851   6.460   5.600  17.056  0.5012 -0.7364 -0.1350
15787TIP3    H168852   6.425   5.685  17.082  3.1027  0.5917 -0.6004
15787TIP3    H268853   6.403   5.571  16.985  0.7030  1.6743 -1.3798
15788TIP3   OH268854   2.702   2.544   1.410  0.0686  0.1188 -0.5084
15788TIP3    H168855   2.797   2.530   1.419 -0.2723 -2.5381 -0.4574
15788TIP3    H268856   2.695   2.607   1.338  1.8641  0.1754 -0.6914
15789TIP3   OH268857   0.880   5.004   1.201  0.0530  0.4077 -0.6758
15789TIP3    H168858   0.937   5.066   1.245 -0.3060  1.2701 -1.3943
15789TIP3    H268859   0.916   4.918   1.222  1.8612  0.9403 -1.4343
15790TIP3   OH268860   2.887   6.326  15.230 -0.0599  0.0975 -0.1726
15790TIP3    H168861   2.816   6.303  15.290 -0.0604 -1.1766 -0.6258
15790TIP3    H268862   2.862   6.287  15.146  0.5729  0.7183 -0.6649
15791TIP3   OH268863   4.814   0.278  13.843  0.1737  0.2195 -0.5754
15791TIP3    H168864   4.884   0.344  13.840  1.1696 -0.8033 -0.7310
15791TIP3    H268865   4.740   0.324  13.882 -0.2813  2.4174 -3.6302
15792TIP3   OH268866   2.186   1.132   2.677  0.0131  0.8629  0.4663
15792TIP3    H168867   2.246   1.079   2.729  0.2316  1.3915  0.7632
15792TIP3    H268868   2.182   1.216   2.724  0.4290  1.4454 -0.5258
15793TIP3   OH268869   3.939   5.411  11.476 -0.1324 -0.2007 -0.0270
15793TIP3    H168870   3.951   5.344  11.543 -1.2683 -2.2618 -1.7571
15793TIP3    H268871   3.847   5.436  11.482  0.1643  0.8918  0.2709
15794TIP3   OH268872   6.642   4.918  15.283 -0.2574 -0.5059  0.3905
15794TIP3    H168873   6.717   4.863  15.265 -0.3605  0.3225 -3.5597
15794TIP3    H268874   6.680   5.000  15.315  0.5098 -0.4026 -0.7171
15795TIP3   OH268875   5.690   2.837  12.887  0.3462  0.7446  0.0836
15795TIP3    H168876   5.720   2.749  12.863  1.0744  0.4395  1.9574
15795TIP3    H268877   5.721   2.893  12.815  0.5776 -0.3928 -0.7329
15796TIP3   OH268878   1.063   1.161  16.379  0.0395 -0.1554 -0.1040
15796TIP3    H168879   1.158   1.171  16.380  0.0840 -0.5516  1.3548
15796TIP3    H268880   1.043   1.126  16.292  1.2053  0.0827 -0.4755
15797TIP3   OH268881   2.493   0.807  14.660  0.1052 -0.4069  0.4210
15797TIP3    H168882   2.553   0.840  14.593 -0.5850 -0.6642 -0.3345
15797TIP3    H268883   2.550   0.768  14.726  0.7973 -0.0937  0.0200
15798TIP3   OH268884   3.492   5.587  14.605  0.1061  0.1785  0.2031
15798TIP3    H168885   3.531   5.582  14.692 -0.8689  0.5355  0.6721
15798TIP3    H268886   3.566   5.604  14.547  0.9562 -1.4292  0.7746
15799TIP3   OH268887   3.211   4.841   4.609  0.5101  0.4533 -0.0010
15799TIP3    H168888   3.179   4.758   4.645  1.6088 -0.4940 -1.1394
15799TIP3    H268889   3.150   4.862   4.538  0.1438  0.7259  0.3838
15800TIP3   OH268890   3.293   2.532  15.850  0.5355 -0.2288 -0.3866
15800TIP3    H168891   3.261   2.517  15.939  0.3268 -0.0801 -0.4337
15800TIP3    H268892   3.214   2.545  15.798  0.6925  0.9331 -0.3591
15801TIP3   OH268893   6.223   0.843  16.490  0.2444  0.7330 -0.3453
15801TIP3    H168894   6.202   0.915  16.431  2.2114  3.1303  1.6338
15801TIP3    H268895   6.309   0.813  16.462 -0.3727 -0.6091 -0.8765
15802TIP3   OH268896   2.724   0.041   0.464 -0.4677  0.1361 -0.0601
15802TIP3    H168897   2.711  -0.010   0.384 -0.9305 -2.8927  1.7993
15802TIP3    H268898   2.636   0.063   0.493 -0.3529  0.2232  0.2242
15803TIP3   OH268899   2.903   6.719  12.299 -0.2020  0.0056  0.4149
15803TIP3    H168900   2.941   6.787  12.244 -0.6644 -0.8417 -1.0173
15803TIP3    H268901   2.854   6.767  12.366 -1.8359  1.1489 -1.4836
15804TIP3   OH268902   3.386   0.322  11.360 -0.0804 -0.8863 -0.1188
15804TIP3    H168903   3.428   0.318  11.446 -2.0605 -1.5116  0.8751
15804TIP3    H268904   3.441   0.266  11.304  0.9882 -0.8207  0.8283
15805TIP3   OH268905   5.474   0.847   0.306  0.6043  0.0827 -0.0774
15805TIP3    H168906   5.404   0.825   0.367 -0.7271 -0.0605 -1.5880
15805TIP3    H268907   5.430   0.891   0.233  1.9130 -0.8583 -1.5146
15806TIP3   OH268908   5.286   5.711   1.004 -0.0658  0.5171  0.3306
15806TIP3    H168909   5.329   5.746   0.927  0.2653 -0.0064  0.2728
15806TIP3    H268910   5.197   5.746   1.001 -0.5413 -0.7250 -1.1243
15807TIP3   OH268911   1.974   2.789   4.831  0.1671  0.9508  0.2944
15807TIP3    H168912   1.903   2.792   4.767  0.3116  2.6381  0.1741
15807TIP3    H268913   2.033   2.721   4.798 -0.6375  0.5755 -0.4048
15808TIP3   OH268914   6.228   4.852   4.624  0.3480  0.6272 -0.2493
15808TIP3    H168915   6.255   4.939   4.592  2.4677  0.4326  0.7934
15808TIP3    H268916   6.273   4.843   4.708 -0.4375 -1.1972  0.0178
15809TIP3   OH268917   4.723   2.878   2.232 -0.4200 -0.4132 -0.8836
15809TIP3    H168918   4.711   2.861   2.138  0.5586 -1.7977 -0.8013
15809TIP3    H268919   4.663   2.818   2.275 -0.3819 -0.2582 -0.6144
15810TIP3   OH268920   2.444   4.769  15.378 -0.4665 -0.1464 -0.1078
15810TIP3    H168921   2.426   4.844  15.434  0.6770  0.4024 -0.4441
15810TIP3    H268922   2.498   4.711  15.433 -0.0603 -0.0046 -0.3568
15811TIP3   OH268923   3.581   6.642  11.649 -0.5280 -0.5676  0.0360
15811TIP3    H168924   3.538   6.574  11.596 -1.1896  0.5646 -0.9247
15811TIP3    H268925   3.513   6.707  11.664 -0.9829 -1.6829  3.9861
15812TIP3   OH268926   2.812   0.985  14.247 -0.1910  0.3607  1.1191
15812TIP3    H168927   2.894   1.033  14.232 -0.8111  1.2791  0.5130
15812TIP3    H268928   2.826   0.939  14.330  1.6493 -1.1037  0.0773
15813TIP3   OH268929   4.891   3.281  10.426  0.0566  0.3357  0.5518
15813TIP3    H168930   4.925   3.332  10.353  3.0419  1.2497  2.4085
15813TIP3    H268931   4.815   3.330  10.457  0.1534  1.1741 -0.5106
15814TIP3   OH268932   1.212   3.452  16.304  0.0604  0.2770 -0.1827
15814TIP3    H168933   1.233   3.398  16.228 -1.8583  0.5576 -0.9790
15814TIP3    H268934   1.292   3.501  16.322  0.1457  1.3249 -2.9805
15815TIP3   OH268935   3.405   0.419  15.433 -0.2290 -0.0456  0.0505
15815TIP3    H168936   3.498   0.414  15.453  0.6499  0.6975 -3.1847
15815TIP3    H268937   3.375   0.328  15.428  0.2457 -0.2794  1.3069
15816TIP3   OH268938   5.866   6.650   0.453  0.0118 -0.6842  0.1325
15816TIP3    H168939   5.872   6.731   0.502 -3.4300  0.1032 -0.4952
15816TIP3    H268940   5.832   6.586   0.516  0.2518 -0.9651 -0.0191
15817TIP3   OH268941   5.361   3.319  14.011  0.4652 -0.0404  0.3990
15817TIP3    H168942   5.421   3.247  14.033  0.2820  0.0777  1.3088
15817TIP3    H268943   5.318   3.340  14.094  0.9280  1.5090  0.2681
15818TIP3   OH268944   5.342   6.750  14.970 -0.5621 -0.3912  0.3311
15818TIP3    H168945   5.370   6.716  14.885  0.1565 -0.5247  0.6162
15818TIP3    H268946   5.321   6.842  14.954 -0.6057 -0.4642 -0.0282
15819TIP3   OH268947   6.762   4.347  10.554 -0.1656  0.0203 -0.0194
15819TIP3    H168948   6.749   4.353  10.649 -0.0538 -2.1521  0.1852
15819TIP3    H268949   6.689   4.398  10.517 -1.1586 -0.4268  1.2300
15820TIP3   OH268950   3.118   6.273   4.347 -0.2551 -0.2256  0.3283
15820TIP3    H168951   3.177   6.348   4.348  0.1140 -0.4950 -0.3429
15820TIP3    H268952   3.065   6.285   4.268 -1.6503  0.4142  1.3149
15821TIP3   OH268953   3.480   6.053   0.430 -0.3052  0.1101  0.3042
15821TIP3    H168954   3.461   6.144   0.449  0.8429  0.5670 -0.5897
15821TIP3    H268955   3.464   6.044   0.336 -0.3872 -0.6034  0.3819
15822TIP3   OH268956   0.652   4.132   2.711 -0.4080 -0.0889 -0.3769
15822TIP3    H168957   0.649   4.043   2.678 -1.6766 -0.9487  1.8509
15822TIP3    H268958   0.582   4.177   2.665 -0.6722 -0.6288 -0.5044
15823TIP3   OH268959   4.439   2.441  13.988 -0.2840 -0.2505 -0.5975
15823TIP3    H168960   4.448   2.356  13.943  1.6185 -0.9456  0.9304
15823TIP3    H268961   4.514   2.492  13.956 -0.3935  0.1919 -0.1482
15824TIP3   OH268962   4.527   6.678   1.947  0.6229 -0.1368 -0.7322
15824TIP3    H168963   4.506   6.768   1.922 -0.6708 -0.3729 -0.5857
15824TIP3    H268964   4.563   6.686   2.036 -0.0015  0.2013 -0.5007
15825TIP3   OH268965   1.183   4.012  12.608 -0.6780  0.6448  0.5753
15825TIP3    H168966   1.252   4.052  12.661 -0.4726 -0.1404  0.9138
15825TIP3    H268967   1.175   4.070  12.532  1.5356 -0.1303 -0.3221
15826TIP3   OH268968   3.359   5.628  11.694 -0.0708 -0.3565  0.4633
15826TIP3    H168969   3.403   5.543  11.692  0.9769  0.1757 -0.5691
15826TIP3    H268970   3.283   5.617  11.638 -0.0179 -0.6661  0.4529
15827TIP3   OH268971   4.954   4.392  12.922  0.8500 -0.5871 -0.1975
15827TIP3    H168972   4.972   4.433  13.007 -2.1320 -0.1993  0.3502
15827TIP3    H268973   4.891   4.451  12.880  0.6406 -1.8567 -1.7659
15828TIP3   OH268974   5.121   5.392   5.001  0.4876 -0.9176 -0.0001
15828TIP3    H168975   5.055   5.343   5.051 -0.9688 -1.0638 -1.9685
15828TIP3    H268976   5.075   5.469   4.969  1.0081 -1.4073 -2.0760
15829TIP3   OH268977   6.620   5.247  12.474 -0.4074 -0.0141 -0.2478
15829TIP3    H168978   6.535   5.203  12.476 -0.8705  0.9178  0.8749
15829TIP3    H268979   6.635   5.276  12.563  0.0565  1.8037 -0.8765
15830TIP3   OH268980   0.560   6.470   3.519 -0.0509 -0.2623  0.3638
15830TIP3    H168981   0.648   6.433   3.504 -0.5891 -0.3885 -3.7476
15830TIP3    H268982   0.574   6.564   3.528  0.5571 -0.2748 -0.3264
15831TIP3   OH268983   4.881   4.976  10.262  0.3638 -0.1888  0.3224
15831TIP3    H168984   4.937   4.916  10.213 -0.2265 -1.7580  1.4780
15831TIP3    H268985   4.798   4.975  10.215  0.6919  0.5946 -0.2797
15832TIP3   OH268986   2.674   3.720  12.545 -0.8442  1.1124  0.1701
15832TIP3    H168987   2.740   3.743  12.609 -1.3789 -0.0758  1.1987
15832TIP3    H268988   2.682   3.625  12.534 -1.9751  1.0292 -0.1328
15833TIP3   OH268989   4.369   5.902  12.675 -0.4827  0.4380 -0.1334
15833TIP3    H168990   4.449   5.914  12.625  0.0868 -0.2971  0.5696
15833TIP3    H268991   4.299   5.936  12.619  0.4742  2.5115 -0.1394
15834TIP3   OH268992   6.664   1.221  11.768 -0.2802 -0.2255  0.0875
15834TIP3    H168993   6.581   1.234  11.814 -0.0321  0.2858  0.3947
15834TIP3    H268994   6.658   1.277  11.691 -0.5421 -0.7997 -0.3243
15835TIP3   OH268995   1.148   0.547  11.840  0.6604  0.0427  0.3252
15835TIP3    H168996   1.227   0.499  11.866  1.1852 -0.0623 -1.3212
15835TIP3    H268997   1.082   0.521  11.904  2.3630  1.4985  2.8110
15836TIP3   OH268998   0.746   4.579   1.915 -0.1442 -0.1082  0.0218
15836TIP3    H168999   0.714   4.498   1.952  2.2093 -0.5326  1.3508
15836TIP3    H269000   0.772   4.632   1.990 -0.0616  1.1781 -0.8720
15837TIP3   OH269001   5.286   3.097  16.116 -0.1784  0.3335  0.1040
15837TIP3    H169002   5.232   3.159  16.066  0.1995  1.2314  0.7838
15837TIP3    H269003   5.244   3.091  16.201  0.2108  0.2429  0.2935
15838TIP3   OH269004   0.140   1.129  14.913 -0.0621 -0.5423 -0.0625
15838TIP3    H169005   0.050   1.149  14.940  0.1183 -0.8265  0.7550
15838TIP3    H269006   0.139   1.035  14.896 -0.0039 -0.4811 -0.4279
15839TIP3   OH269007   6.398   4.611   4.880 -0.3866  0.7269 -0.3747
15839TIP3    H169008   6.433   4.691   4.843  1.3395 -0.3964 -1.2876
15839TIP3    H269009   6.470   4.548   4.875 -1.8401 -1.0414 -0.1884
15840TIP3   OH269010   1.202   5.660  13.392  0.7092  0.1599 -0.0082
15840TIP3    H169011   1.134   5.602  13.359  0.5794 -0.2094  0.8806
15840TIP3    H269012   1.275   5.650  13.330  0.9970 -1.5871  0.5683
15841TIP3   OH269013   2.194   5.901   2.214 -0.0182 -0.1956 -0.9104
15841TIP3    H169014   2.278   5.875   2.176  0.7539 -0.7023  0.9849
15841TIP3    H269015   2.208   5.894   2.309 -1.8173  0.9529 -0.5068
15842TIP3   OH269016   4.874   2.451   3.889 -0.2520  0.4749 -0.2790
15842TIP3    H169017   4.791   2.475   3.929  0.1086  1.4766 -0.1202
15842TIP3    H269018   4.878   2.356   3.898 -2.7632 -0.0272 -2.9450
15843TIP3   OH269019   6.150   6.009   2.666 -0.4884 -0.0634 -1.0789
15843TIP3    H169020   6.060   6.008   2.633 -1.1268 -0.2313  0.5392
15843TIP3    H269021   6.140   5.997   2.761  1.3571 -2.3215 -1.0957
15844TIP3   OH269022   0.536   0.302  14.773  0.5798  0.0706  0.2826
15844TIP3    H169023   0.503   0.341  14.854  0.9386  0.7207  0.1160
15844TIP3    H269024   0.519   0.368  14.706 -1.3225 -1.1327 -0.5215
15845TIP3   OH269025   3.957   0.633   4.770 -0.2581 -0.5445  0.0917
15845TIP3    H169026   3.988   0.628   4.680 -2.1451 -1.2015 -0.5736
15845TIP3    H269027   4.023   0.686   4.816 -0.0616  1.1750 -2.0280
15846TIP3   OH269028   3.813   1.139   3.388  0.5203  0.5346 -0.4507
15846TIP3    H169029   3.827   1.163   3.479 -2.0124  0.0399  0.1246
15846TIP3    H269030   3.821   1.044   3.387  0.6407  0.5467 -0.7662
15847TIP3   OH269031   2.435   4.977  16.813 -0.6281 -0.1962 -0.0829
15847TIP3    H169032   2.411   5.054  16.761  0.0032  0.4686  0.5694
15847TIP3    H269033   2.385   4.905  16.775 -1.5988  0.6249 -0.4132
15848TIP3   OH269034   6.820   0.935  13.725 -0.6893  0.0147 -0.6498
15848TIP3    H169035   6.894   0.908  13.779  1.4137  1.9302 -2.3643
15848TIP3    H269036   6.743   0.911  13.776  1.0577 -2.4568  1.0421
15849TIP3   OH269037   4.436   4.186  12.162 -0.0824 -0.5078  0.6229
15849TIP3    H169038   4.460   4.137  12.083  0.2851  1.4655 -0.5753
15849TIP3    H269039   4.454   4.277  12.139 -2.0548  0.3560  2.2221
15850TIP3   OH269040   3.449   4.199  13.167  0.2021 -0.1459 -0.7100
15850TIP3    H169041   3.427   4.118  13.122 -1.0034 -0.0759 -0.2856
15850TIP3    H269042   3.458   4.264  13.097 -0.5620 -0.2770 -0.9370
15851TIP3   OH269043   5.431   4.350   2.409 -0.1071 -0.4959 -0.2785
15851TIP3    H169044   5.467   4.432   2.443 -1.1582  0.3320 -1.0517
15851TIP3    H269045   5.477   4.337   2.326 -1.0723  0.2128 -0.9489
15852TIP3   OH269046   2.844   4.584   1.141 -0.1520  0.4203 -0.5443
15852TIP3    H169047   2.874   4.651   1.202 -0.9653 -1.2037  1.7774
15852TIP3    H269048   2.838   4.504   1.193 -0.2832 -1.2448 -2.9237
15853TIP3   OH269049   3.571   4.757  11.849 -0.0990 -0.1398 -0.5753
15853TIP3    H169050   3.563   4.678  11.904 -2.2779  0.9508  0.8202
15853TIP3    H269051   3.629   4.730  11.778  1.2749 -2.2472  1.1723
15854TIP3   OH269052   5.735   0.914   3.937  0.2642 -0.5827  0.0163
15854TIP3    H169053   5.777   0.851   3.997  0.6917  0.3044  0.6728
15854TIP3    H269054   5.642   0.906   3.956  0.3704 -0.5201  0.6087
15855TIP3   OH269055   4.860   3.733  16.192  0.2531 -0.0220  0.1152
15855TIP3    H169056   4.799   3.684  16.247  0.9538 -1.6585 -0.4993
15855TIP3    H269057   4.892   3.804  16.248 -0.4858 -0.4913  1.1649
15856TIP3   OH269058   4.884   3.134  16.133 -0.2575  0.0690 -0.2935
15856TIP3    H169059   4.924   3.198  16.074 -0.4931 -0.3294 -0.8962
15856TIP3    H269060   4.846   3.187  16.203  0.0376  0.5492 -0.4893
15857TIP3   OH269061   2.148   0.734   5.590 -0.3327  0.1210 -0.1836
15857TIP3    H169062   2.229   0.707   5.634 -1.0503  0.3140  1.3377
15857TIP3    H269063   2.173   0.810   5.538 -0.0490  2.1778  2.6778
15858TIP3   OH269064   5.170   2.261   3.949 -0.7069  0.0055  0.1624
15858TIP3    H169065   5.223   2.288   3.874  1.2955 -1.5129  0.9336
15858TIP3    H269066   5.090   2.224   3.910 -0.5182  0.8756 -1.1167
15859TIP3   OH269067   1.723   0.604   3.721 -0.0308 -0.7027 -0.1404
15859TIP3    H169068   1.659   0.532   3.718  0.1479 -0.8291 -1.1194
15859TIP3    H269069   1.797   0.572   3.669  1.3942 -1.0763  1.9538
15860TIP3   OH269070   3.310   2.842   2.419 -0.5829 -0.3402  0.5976
15860TIP3    H169071   3.347   2.754   2.415  2.4698  0.8692 -0.5678
15860TIP3    H269072   3.291   2.856   2.512  0.3649 -1.6743  1.0147
15861TIP3   OH269073   2.867   5.004   5.026 -0.0435  0.1388 -0.0255
15861TIP3    H169074   2.857   4.980   5.118 -0.3219  0.3117 -0.0089
15861TIP3    H269075   2.953   4.970   5.001 -0.4707 -0.9554 -0.0372
15862TIP3   OH269076   1.224   2.637   4.094 -0.0927  0.2724 -0.2051
15862TIP3    H169077   1.143   2.586   4.090 -1.3757  2.2577 -0.9452
15862TIP3    H269078   1.230   2.665   4.185 -0.4096  0.3528 -0.2072
15863TIP3   OH269079   0.723   0.511  15.607 -0.2253 -0.0052  0.4603
15863TIP3    H169080   0.711   0.431  15.556  0.2213 -0.4427  1.0347
15863TIP3    H269081   0.768   0.483  15.687 -1.1103  0.6417  1.2030
15864TIP3   OH269082   2.155   5.887  10.232 -0.1124  0.1286 -0.3689
15864TIP3    H169083   2.080   5.923  10.279  0.9182  1.5292  0.2840
15864TIP3    H269084   2.204   5.838  10.298  1.6827  2.6304  0.3077
15865TIP3   OH269085   3.857   5.816   4.297 -0.2175  0.5165 -0.0596
15865TIP3    H169086   3.768   5.816   4.333  0.6671  0.7748  2.3504
15865TIP3    H269087   3.858   5.891   4.237 -2.2199 -0.8571 -1.9700
15866TIP3   OH269088   6.260   1.333   0.247  0.1280  0.6186  0.0197
15866TIP3    H169089   6.202   1.396   0.205  0.3695  0.5490 -0.4284
15866TIP3    H269090   6.310   1.385   0.310  0.8549  1.0349 -0.8694
15867TIP3   OH269091   0.585   3.601  11.492 -0.1185  0.1267  0.2654
15867TIP3    H169092   0.548   3.620  11.405  0.9406 -0.8550 -0.4326
15867TIP3    H269093   0.680   3.599  11.478 -0.0089 -2.4007  0.8997
15868TIP3   OH269094   0.970   2.259   4.812  0.1193  0.0355 -0.4146
15868TIP3    H169095   0.957   2.353   4.807  0.7608  0.3668  2.2812
15868TIP3    H269096   0.919   2.232   4.889  1.6302 -1.4153  0.1335
15869TIP3   OH269097   1.253   1.362  16.107 -0.2134  0.9059  0.1600
15869TIP3    H169098   1.284   1.438  16.157 -0.8383 -0.0423  2.1146
15869TIP3    H269099   1.331   1.308  16.095 -0.0882  1.0568  0.2878
15870TIP3   OH269100   2.144   0.016   1.191 -0.3544  0.5533 -0.0999
15870TIP3    H169101   2.130   0.110   1.178  0.2231  0.5369 -0.9835
15870TIP3    H269102   2.194  -0.011   1.114  2.2457  0.1222  1.6285
15871TIP3   OH269103   6.019   0.871   6.591  0.8662  0.4665  0.5722
15871TIP3    H169104   6.001   0.795   6.537  2.0302  0.4923  0.1215
15871TIP3    H269105   6.076   0.839   6.661  1.9696  1.0248 -0.0305
15872TIP3   OH269106   0.991   0.153  13.520 -0.4046  0.0504  0.5072
15872TIP3    H169107   1.061   0.213  13.496 -0.5786 -0.2028 -0.6935
15872TIP3    H269108   0.973   0.104  13.440 -1.9393  0.0854  0.8096
15873TIP3   OH269109   5.734   3.312  14.242  0.0538  0.1182  0.2868
15873TIP3    H169110   5.770   3.290  14.156  0.4615  2.6715 -0.2734
15873TIP3    H269111   5.806   3.294  14.303 -0.0296 -1.1247  0.0392
15874TIP3   OH269112   2.699   1.810  11.111  0.5529 -0.5702  0.3743
15874TIP3    H169113   2.647   1.759  11.173  0.4643  1.5656  2.2140
15874TIP3    H269114   2.644   1.815  11.033 -0.4341 -1.3344  0.9883
15875TIP3   OH269115   5.699   6.762  16.282  0.3445  0.2723 -0.2378
15875TIP3    H169116   5.639   6.795  16.349  2.9740  0.6085  2.0986
15875TIP3    H269117   5.716   6.838  16.227 -2.2931 -0.1469 -1.8437
15876TIP3   OH269118   0.000   2.118  14.746  0.0147 -0.3143 -0.2607
15876TIP3    H169119   0.041   2.120  14.660 -1.2706 -0.9510 -0.9079
15876TIP3    H269120  -0.066   2.187  14.743 -0.3192 -0.6158  0.0574
15877TIP3   OH269121   2.866   1.960   3.585  0.2225 -0.1773  0.1150
15877TIP3    H169122   2.818   1.906   3.648 -1.1248 -0.7946 -1.3484
15877TIP3    H269123   2.926   1.899   3.542  0.2474 -0.0431 -0.0442
15878TIP3   OH269124   2.059   2.734  12.512 -0.6686 -0.1661 -0.2900
15878TIP3    H169125   2.087   2.778  12.431 -0.1871  0.4483  0.2049
15878TIP3    H269126   1.990   2.673  12.483  1.2869 -1.9191 -1.6176
15879TIP3   OH269127   5.126   2.429  14.461  0.4789  0.5568 -0.3743
15879TIP3    H169128   5.114   2.452  14.553  0.0721 -0.3274 -0.1886
15879TIP3    H269129   5.219   2.443  14.444  0.6709  0.1770  0.3422
15880TIP3   OH269130   4.201   3.532   3.569  0.0215  0.5728  0.0188
15880TIP3    H169131   4.150   3.608   3.595  0.7308  0.6825  1.1553
15880TIP3    H269132   4.165   3.459   3.620  0.8989  0.6309  0.7453
15881TIP3   OH269133   4.554   3.664   2.176  0.0968  0.0285 -0.6239
15881TIP3    H169134   4.529   3.604   2.246 -0.9133  0.5804 -0.4848
15881TIP3    H269135   4.566   3.609   2.099  0.0879 -0.4536 -0.2819
15882TIP3   OH269136   2.008   3.048   4.357 -0.0931 -0.5938 -0.0221
15882TIP3    H169137   1.964   3.131   4.341 -0.0744 -0.6496 -0.3955
15882TIP3    H269138   1.941   2.991   4.392 -0.1186 -0.4345  0.1859
15883TIP3   OH269139   3.365   3.927   5.418  0.1937 -0.5643  0.1915
15883TIP3    H169140   3.281   3.930   5.372  0.6964  0.1130 -0.7190
15883TIP3    H269141   3.347   3.965   5.504 -0.1131  0.9850 -0.5335
15884TIP3   OH269142   0.335   1.223   4.183  0.1818 -0.8001 -0.3962
15884TIP3    H169143   0.427   1.202   4.164 -0.2727 -2.0587 -1.2987
15884TIP3    H269144   0.335   1.317   4.196  1.3671 -0.5692 -1.8119
15885TIP3   OH269145   1.833   3.046   0.539  0.5219 -0.1501 -0.4803
15885TIP3    H169146   1.866   2.957   0.524  1.0717 -0.2938  1.3935
15885TIP3    H269147   1.751   3.049   0.491  0.6524 -1.5679 -0.8418
15886TIP3   OH269148   0.179   3.014   1.305  0.1378  0.1994 -0.5317
15886TIP3    H169149   0.222   3.020   1.220 -0.6381 -2.7736 -1.2482
15886TIP3    H269150   0.248   2.987   1.366 -0.0664 -1.8493 -1.1342
15887TIP3   OH269151   1.875   0.263  15.981 -0.8045 -0.2162  0.4832
15887TIP3    H169152   1.821   0.239  15.907 -0.1993 -0.8582  0.2463
15887TIP3    H269153   1.829   0.228  16.057 -1.1019 -0.1062  0.3542
15888TIP3   OH269154   5.639   6.372   2.328 -0.0569  0.3215  0.1192
15888TIP3    H169155   5.712   6.313   2.348  1.3800  1.5333 -1.3335
15888TIP3    H269156   5.573   6.315   2.287  1.2762 -0.3280 -1.2144
15889TIP3   OH269157   2.698   4.926  16.099 -0.2979 -0.6648  0.4895
15889TIP3    H169158   2.717   4.963  16.013 -0.8790 -0.9383  0.2447
15889TIP3    H269159   2.609   4.894  16.093 -1.2304  1.4239  1.9037
15890TIP3   OH269160   4.569   3.490  14.964 -0.5944 -0.2066  0.8424
15890TIP3    H169161   4.624   3.523  14.893 -1.8562  1.7001  0.6868
15890TIP3    H269162   4.554   3.398  14.941 -3.0468  0.8628 -2.8712
15891TIP3   OH269163   3.524   6.368  11.727  0.3323  0.3238 -0.1154
15891TIP3    H169164   3.552   6.447  11.774  0.0183  1.3862 -1.6369
15891TIP3    H269165   3.562   6.296  11.778  0.0686  1.3859  1.7021
15892TIP3   OH269166   6.163   1.526   6.048  0.4744 -0.0898 -0.2236
15892TIP3    H169167   6.197   1.481   6.125 -1.8364 -0.5933  0.5795
15892TIP3    H269168   6.091   1.580   6.081  2.1061  3.0663 -1.4066
15893TIP3   OH269169   0.283   4.350  15.779  0.1497  0.1285  0.3023
15893TIP3    H169170   0.222   4.353  15.706  0.8593 -1.2780 -0.3877
15893TIP3    H269171   0.244   4.288  15.840  0.4315 -0.0784  0.2758
15894TIP3   OH269172   1.755   5.407   3.477  0.6649  0.4329  0.6758
15894TIP3    H169173   1.729   5.495   3.504  0.3655  0.8334 -0.8118
15894TIP3    H269174   1.765   5.414   3.382  1.0787 -1.0352  0.5960
15895TIP3   OH269175   5.274   1.767  16.437  0.2942  0.6716 -0.4443
15895TIP3    H169176   5.352   1.750  16.489  0.5748  2.7612 -0.1259
15895TIP3    H269177   5.298   1.742  16.348  0.0833 -2.1314  0.1640
15896TIP3   OH269178   2.150   4.410   1.388  0.6513 -0.0783 -0.3392
15896TIP3    H169179   2.128   4.331   1.438  0.4747  1.3864  2.0642
15896TIP3    H269180   2.086   4.411   1.317 -0.3183 -1.3417  0.4465
15897TIP3   OH269181   3.855   4.547   2.408  0.4171 -0.6065 -0.3573
15897TIP3    H169182   3.942   4.585   2.423  0.7114 -1.1324 -0.6933
15897TIP3    H269183   3.833   4.574   2.318  0.2989 -0.5976 -0.3255
15898TIP3   OH269184   5.799   6.267  17.016 -0.5842  0.1076  0.0814
15898TIP3    H169185   5.872   6.236  16.963 -0.9449 -0.0633 -0.3237
15898TIP3    H269186   5.810   6.362  17.020  0.5854 -0.0481  1.4080
15899TIP3   OH269187   0.550   2.705  12.160 -0.0645  0.0358  0.1737
15899TIP3    H169188   0.559   2.699  12.255 -1.7536  0.2195  0.3762
15899TIP3    H269189   0.569   2.617  12.129  2.2509  0.3629  0.4692
15900TIP3   OH269190   3.554   0.347   0.233 -0.4256  0.0326  0.1421
15900TIP3    H169191   3.477   0.339   0.177  0.5674  0.3894 -1.3494
15900TIP3    H269192   3.566   0.260   0.270 -2.7425  0.4592  2.1211
15901TIP3   OH269193   6.748   5.331  15.144 -0.1748  0.8598 -0.6307
15901TIP3    H169194   6.749   5.424  15.164 -0.5456  1.0050 -1.2714
15901TIP3    H269195   6.797   5.290  15.216  1.0477  1.6637 -0.9896
15902TIP3   OH269196   0.653   0.588  13.110  0.5382  0.0430 -0.2387
15902TIP3    H169197   0.655   0.671  13.157  1.7817 -0.8014  1.2747
15902TIP3    H269198   0.744   0.561  13.104  0.3491 -0.2689 -2.5200
15903TIP3   OH269199   6.695   5.074   0.828  0.2600  0.3953  0.2437
15903TIP3    H169200   6.751   5.146   0.802  0.1129  1.2528  2.0970
15903TIP3    H269201   6.753   4.998   0.833  0.6854  0.6691 -0.4743
15904TIP3   OH269202   3.912   6.206  14.011 -0.2115 -0.3439 -0.2265
15904TIP3    H169203   3.849   6.147  14.052  1.3440 -0.9023  1.4922
15904TIP3    H269204   3.962   6.150  13.953  0.1085 -0.3574  0.0603
15905TIP3   OH269205   6.107   4.114   0.230  0.2769  0.0897 -0.5563
15905TIP3    H169206   6.110   4.205   0.200 -1.6498 -0.4150 -2.6319
15905TIP3    H269207   6.187   4.074   0.196  1.5244  1.1317  1.0395
15906TIP3   OH269208   1.659   3.141  13.975 -0.6235  0.5483  0.0416
15906TIP3    H169209   1.744   3.098  13.963 -0.9633 -0.3030  0.5571
15906TIP3    H269210   1.603   3.073  14.014 -1.3073  1.3378  0.4729
15907TIP3   OH269211   3.147   2.210   4.601 -0.0431 -0.3054  0.2200
15907TIP3    H169212   3.063   2.255   4.605  0.4436  0.8591 -1.4632
15907TIP3    H269213   3.196   2.245   4.676  0.6328  2.7564 -1.5118
15908TIP3   OH269214   1.225   0.732   5.608 -0.3873 -0.1098  0.0095
15908TIP3    H169215   1.260   0.749   5.695 -0.6865 -0.6811  0.2458
15908TIP3    H269216   1.145   0.785   5.604  1.2645  2.4793 -1.1240
15909TIP3   OH269217   6.536   3.616   2.519 -0.9004  0.4963 -0.2938
15909TIP3    H169218   6.584   3.671   2.456 -1.2827 -0.3031 -1.3219
15909TIP3    H269219   6.546   3.661   2.603  0.0614  1.3279 -0.8293
15910TIP3   OH269220   2.162   1.511  16.882 -0.0637  0.2456 -0.3088
15910TIP3    H169221   2.186   1.566  16.956 -0.6841  0.6143 -0.3798
15910TIP3    H269222   2.134   1.572  16.814  1.4043 -0.0156 -1.2093
15911TIP3   OH269223   2.291   6.427   0.781 -0.7777 -0.5747 -0.3152
15911TIP3    H169224   2.246   6.450   0.862 -1.4269 -0.3170 -0.7385
15911TIP3    H269225   2.294   6.331   0.782 -2.2741 -0.6577 -0.7518
15912TIP3   OH269226   0.037   2.421  16.024  0.6028 -0.3545 -0.1711
15912TIP3    H169227   0.047   2.403  15.931  1.8906  0.7510 -0.2886
15912TIP3    H269228   0.008   2.339  16.062  0.0685 -0.8169 -1.5492
15913TIP3   OH269229   1.829   3.666  12.875 -0.3341  0.0089  0.2061
15913TIP3    H169230   1.820   3.678  12.781 -0.1817 -0.8425  0.0778
15913TIP3    H269231   1.816   3.573  12.889 -2.9739  0.4586  1.3356
15914TIP3   OH269232   5.794   4.591  13.951 -0.7399 -0.1835  0.5834
15914TIP3    H169233   5.838   4.524  14.003 -1.2617 -0.4257  0.7210
15914TIP3    H269234   5.792   4.555  13.862 -0.4785 -0.0810  0.5357
15915TIP3   OH269235   1.187   0.950  10.691  0.4887 -0.2026  0.4232
15915TIP3    H169236   1.233   1.001  10.758  0.1468 -2.5648  2.6114
15915TIP3    H269237   1.096   0.946  10.722 -0.5794  1.6544 -2.1431
15916TIP3   OH269238   3.248   0.512  15.638  0.3342  0.3743 -0.3483
15916TIP3    H169239   3.296   0.467  15.568  1.2574 -0.6150  0.8521
15916TIP3    H269240   3.289   0.479  15.719  0.0172  2.2620  0.6348
15917TIP3   OH269241   0.058   0.403   5.447 -0.6533 -0.5452 -0.8624
15917TIP3    H169242   0.033   0.424   5.537  1.7409 -0.4531 -0.1351
15917TIP3    H269243   0.135   0.457   5.431 -0.6689 -1.0216 -2.7656
15918TIP3   OH269244   2.743   0.136   4.771 -0.0876  0.2794 -0.0529
15918TIP3    H169245   2.784   0.195   4.835 -0.0517  0.3372 -0.1286
15918TIP3    H269246   2.789   0.053   4.783  0.2355  0.4178 -0.3197
15919TIP3   OH269247   5.249   5.826  14.416  0.2821 -0.5931 -0.3325
15919TIP3    H169248   5.218   5.836  14.506 -0.1045 -1.4593 -0.3632
15919TIP3    H269249   5.213   5.901  14.369  0.2091 -0.3201  0.1553
15920TIP3   OH269250   2.246   4.845   3.017 -0.0043 -0.1438 -0.2322
15920TIP3    H169251   2.329   4.862   3.062 -0.5218  4.3254 -0.4442
15920TIP3    H269252   2.271   4.816   2.929  1.0758 -3.8933  1.1203
15921TIP3   OH269253   2.475   0.333   1.884 -0.1762 -0.2073  0.3047
15921TIP3    H169254   2.502   0.263   1.825 -2.2119 -1.2134  0.4764
15921TIP3    H269255   2.554   0.385   1.897  0.5435 -0.4169 -2.6095
15922TIP3   OH269256   4.829   1.010   0.937 -0.1354 -0.4739 -0.0113
15922TIP3    H169257   4.745   1.011   0.891  0.3627 -1.4116 -0.9955
15922TIP3    H269258   4.860   1.101   0.932 -1.5910  0.1506  1.3844
15923TIP3   OH269259   5.676   0.724   3.697 -0.2823 -0.3249  0.1094
15923TIP3    H169260   5.715   0.806   3.668  1.0358 -0.1733  2.1008
15923TIP3    H269261   5.590   0.748   3.730 -0.1289  0.1675  0.1561
15924TIP3   OH269262   2.451   5.981  14.653 -0.3977 -0.0205  0.1846
15924TIP3    H169263   2.480   5.920  14.585 -2.0134  0.4615 -0.9999
15924TIP3    H269264   2.513   5.968  14.725  0.4674 -1.6248 -0.7916
15925TIP3   OH269265   3.461   6.088  14.248 -0.5919  0.3486 -0.2463
15925TIP3    H169266   3.541   6.086  14.196 -1.0858  1.3419 -1.1058
15925TIP3    H269267   3.485   6.132  14.329 -0.4479  1.4955 -0.8862
15926TIP3   OH269268   0.017   3.565   2.389 -0.7397  0.4149  0.3494
15926TIP3    H169269  -0.052   3.507   2.357  1.6682 -1.0734 -2.7670
15926TIP3    H269270   0.053   3.519   2.465  1.4300 -2.8121 -2.3074
15927TIP3   OH269271   0.519   5.906  17.100  0.3266 -0.4159  0.0250
15927TIP3    H169272   0.518   5.967  17.174  0.9255  1.2579 -1.2519
15927TIP3    H269273   0.471   5.829  17.131 -3.1878  1.8352  0.8183
15928TIP3   OH269274   6.661   6.101   5.945 -0.4548  0.2006  0.6248
15928TIP3    H169275   6.720   6.112   5.871  0.1553 -2.1546  0.6711
15928TIP3    H269276   6.577   6.076   5.905 -0.7941  1.2226  0.6636
15929TIP3   OH269277   1.241   0.404  12.535 -0.8821  0.4383  0.2386
15929TIP3    H169278   1.224   0.490  12.498 -0.3686  1.0788  1.4201
15929TIP3    H269279   1.186   0.344  12.485 -0.6317  1.3235 -1.1540
15930TIP3   OH269280   2.686   6.223   5.187 -0.0219 -0.2174  0.0502
15930TIP3    H169281   2.716   6.215   5.277  0.3839  0.8329  0.0185
15930TIP3    H269282   2.738   6.295   5.150 -0.0033 -0.7932 -1.0953
15931TIP3   OH269283   1.925   0.561  15.988 -0.2873  0.0671 -0.2455
15931TIP3    H169284   1.847   0.614  16.006 -0.8199 -0.5350 -0.7130
15931TIP3    H269285   1.901   0.473  16.019  0.8273  0.2155  1.1382
15932TIP3   OH269286   1.073   6.541  14.796 -0.3006 -0.2854  0.3729
15932TIP3    H169287   1.136   6.473  14.771  2.1204  1.1078  2.3159
15932TIP3    H269288   1.097   6.616  14.742  0.2167  0.4711  1.6228
15933TIP3   OH269289   4.700   4.999  13.244 -0.2392 -0.0209  0.4828
15933TIP3    H169290   4.741   5.084  13.229 -1.3395  0.4099 -0.1813
15933TIP3    H269291   4.751   4.961  13.315  1.0016  0.6894  0.0226
15934TIP3   OH269292   3.206   6.313   3.629 -0.0479 -0.2651  0.3449
15934TIP3    H169293   3.176   6.258   3.701  0.1150 -0.3169  0.3742
15934TIP3    H269294   3.222   6.253   3.557 -2.3784  0.0237 -0.4782
15935TIP3   OH269295   1.445   6.507  11.070  0.1565 -0.0766  0.1377
15935TIP3    H169296   1.376   6.535  11.010  0.7621  1.0148 -0.0790
15935TIP3    H269297   1.465   6.417  11.043 -2.8458 -1.3516  1.7885
15936TIP3   OH269298   4.862   5.258  16.703  0.0523  0.0545  0.3844
15936TIP3    H169299   4.941   5.301  16.734 -0.2316  0.6639  0.2743
15936TIP3    H269300   4.869   5.260  16.608 -0.2560  0.4328  0.3637
15937TIP3   OH269301   3.749   1.418  14.874  0.0761  0.1671  0.3720
15937TIP3    H169302   3.686   1.347  14.886  0.5982 -0.3974 -0.1301
15937TIP3    H269303   3.724   1.483  14.939  0.7977 -1.3248  2.2559
15938TIP3   OH269304   6.521   2.692   4.471  0.1161  0.6627 -0.2819
15938TIP3    H169305   6.548   2.617   4.525  2.0323  1.2912 -0.3119
15938TIP3    H269306   6.427   2.679   4.459  0.0383 -0.6895  1.3463
15939TIP3   OH269307   0.792   0.849   3.861 -0.6485  0.3432 -0.7947
15939TIP3    H169308   0.845   0.792   3.805  3.7981  2.7203  0.4627
15939TIP3    H269309   0.772   0.925   3.807  0.1825  0.8873 -0.3659
15940TIP3   OH269310   0.795   3.726   0.591 -0.0821  0.6551  0.7777
15940TIP3    H169311   0.877   3.735   0.543 -0.5372  0.1441 -0.1201
15940TIP3    H269312   0.822   3.713   0.682  0.8991 -0.9824  0.3049
15941TIP3   OH269313   2.079   6.553   0.651  0.3620 -0.8108 -0.0543
15941TIP3    H169314   2.149   6.492   0.676 -0.0515 -1.0077  0.6669
15941TIP3    H269315   2.041   6.581   0.735  0.9618  0.9578 -0.3285
15942TIP3   OH269316   3.426   0.165  17.061  0.4470 -0.3924 -0.6991
15942TIP3    H169317   3.383   0.188  16.978 -0.0315 -0.1062 -0.3764
15942TIP3    H269318   3.377   0.213  17.127  0.2582 -1.3232 -0.1488
15943TIP3   OH269319   4.140   5.859  16.125 -0.1638 -0.1124  0.2180
15943TIP3    H169320   4.084   5.844  16.201  0.3849  0.6698  0.7806
15943TIP3    H269321   4.121   5.949  16.098  2.5430  1.0989  1.9195
15944TIP3   OH269322   4.349   0.880   2.439 -0.2691 -0.0626 -0.0333
15944TIP3    H169323   4.356   0.976   2.440  2.7872 -0.0785 -2.5505
15944TIP3    H269324   4.366   0.853   2.529 -1.8999  1.7309  0.8736
15945TIP3   OH269325   4.145   3.647  16.677 -0.5475  0.0142 -0.4792
15945TIP3    H169326   4.117   3.729  16.637  1.0237  0.2011 -1.2707
15945TIP3    H269327   4.063   3.600  16.696 -1.4367  1.4194 -0.7206
15946TIP3   OH269328   1.382   2.127   0.588 -0.3732  0.6345  0.4534
15946TIP3    H169329   1.346   2.194   0.530  0.4116  0.2651 -0.4872
15946TIP3    H269330   1.465   2.165   0.619  0.6052 -0.2875 -0.9213
15947TIP3   OH269331   2.496   3.625   5.751 -0.3620  0.5872 -0.3778
15947TIP3    H169332   2.542   3.545   5.726 -0.7155  0.1461  0.3455
15947TIP3    H269333   2.403   3.604   5.740 -0.4303  1.7980 -2.8236
15948TIP3   OH269334   4.464   2.712   1.663 -0.5467  0.3536  0.0494
15948TIP3    H169335   4.382   2.663   1.658  0.4674 -1.4764  0.4038
15948TIP3    H269336   4.439   2.797   1.699 -2.3952  0.1651 -0.6645
15949TIP3   OH269337   2.862   1.930   5.116 -0.0931  0.0273  0.2053
15949TIP3    H169338   2.836   1.871   5.045  2.8924 -0.3187 -0.7704
15949TIP3    H269339   2.870   2.016   5.074  1.2341 -0.0893  0.1645
15950TIP3   OH269340   2.698   4.089  10.149  0.0334  0.3912 -0.3924
15950TIP3    H169341   2.758   4.014  10.146 -0.2181  0.2111 -1.1061
15950TIP3    H269342   2.755   4.164  10.166  0.3133  0.0658  0.1389
15951TIP3   OH269343   6.081   3.232   0.838  0.0737 -0.0490  0.1894
15951TIP3    H169344   6.160   3.283   0.855 -0.7300  0.6782  1.8790
15951TIP3    H269345   6.113   3.142   0.829  1.1673  0.3351  0.0192
15952TIP3   OH269346   2.169   0.778  14.333  0.1726 -0.5408  0.6365
15952TIP3    H169347   2.150   0.842  14.401  2.2289  0.9362 -0.0881
15952TIP3    H269348   2.241   0.725  14.369  1.4324  0.3982 -0.4150
15953TIP3   OH269349   0.973   5.582  14.923 -0.5157 -0.0841  0.0088
15953TIP3    H169350   1.006   5.652  14.979  1.4894 -0.2958 -0.8552
15953TIP3    H269351   0.895   5.620  14.882 -0.2146  1.1646  0.5414
15954TIP3   OH269352   4.724   5.105   1.793 -0.5256  0.1532  1.0258
15954TIP3    H169353   4.781   5.154   1.853 -0.6574  1.4140  0.1499
15954TIP3    H269354   4.782   5.042   1.751 -0.0934  0.4083  1.2344
15955TIP3   OH269355   0.970   0.465  11.634  0.0119  0.3282 -0.2466
15955TIP3    H169356   1.021   0.407  11.578  0.9916  0.6648  0.2616
15955TIP3    H269357   1.035   0.502  11.694 -0.6944  1.4292 -0.1354
15956TIP3   OH269358   2.855   2.723   0.977 -0.1740  0.6043  0.3640
15956TIP3    H169359   2.857   2.635   1.013  1.1330 -0.1076 -1.2923
15956TIP3    H269360   2.800   2.716   0.899  0.1260  1.1789  0.0886
15957TIP3   OH269361   2.200   0.938  13.744 -0.2272  0.2169 -0.1400
15957TIP3    H169362   2.182   1.020  13.697 -1.8239  1.2307  2.0454
15957TIP3    H269363   2.267   0.962  13.808  1.2490 -0.9051 -1.1990
15958TIP3   OH269364   4.062   0.636   2.819 -0.0241  0.4635 -0.1501
15958TIP3    H169365   4.070   0.541   2.811  0.2993  0.3686  1.0437
15958TIP3    H269366   3.987   0.659   2.764 -1.2069 -0.7086  0.9137
15959TIP3   OH269367   3.149   0.008  14.484  0.1374  0.0425  0.7283
15959TIP3    H169368   3.187  -0.062  14.432  1.0316  0.7714  0.3660
15959TIP3    H269369   3.083  -0.035  14.538 -0.3608 -0.8329 -0.5353
15960TIP3   OH269370   4.252   4.641  11.327  0.1865 -0.1341  0.3442
15960TIP3    H169371   4.238   4.716  11.385  2.1629  0.4353  0.1571
15960TIP3    H269372   4.172   4.588  11.335 -0.4105  0.9713  1.9976
15961TIP3   OH269373   2.600   1.269  13.312  0.0073  0.1561 -0.0788
15961TIP3    H169374   2.592   1.251  13.219 -2.3406  0.3666  0.0011
15961TIP3    H269375   2.637   1.357  13.317 -0.0200  0.2150 -0.8201
15962TIP3   OH269376   5.367   0.376  14.914 -0.3475 -0.0323 -0.2192
15962TIP3    H169377   5.311   0.450  14.938 -2.0477 -1.8197  1.6575
15962TIP3    H269378   5.428   0.367  14.987  0.6936  0.2477 -1.0291
15963TIP3   OH269379   6.811   3.906  14.447  0.4097  0.4963  0.1882
15963TIP3    H169380   6.824   3.842  14.377  0.1932  0.2825  0.3421
15963TIP3    H269381   6.744   3.965  14.413 -0.9154 -0.5713  0.8563
15964TIP3   OH269382   5.312   4.447   0.616 -0.4981 -0.2215  0.2484
15964TIP3    H169383   5.327   4.355   0.593 -0.5245  0.3827 -2.4143
15964TIP3    H269384   5.240   4.474   0.560  1.0080  2.0422 -0.7143
15965TIP3   OH269385   3.490   1.814  10.568  0.7822  0.2019  0.1922
15965TIP3    H169386   3.430   1.788  10.638  0.6375 -2.4023 -0.8166
15965TIP3    H269387   3.477   1.909  10.560 -1.0180  0.1692  1.9746
15966TIP3   OH269388   4.459   5.520  13.118  0.5021 -0.5384 -0.1040
15966TIP3    H169389   4.497   5.576  13.051  0.1054 -0.7408 -0.5083
15966TIP3    H269390   4.522   5.521  13.189  0.9656 -0.3734 -0.5110
15967TIP3   OH269391   3.791   3.012  15.836 -0.1817  0.1125 -0.0405
15967TIP3    H169392   3.808   3.038  15.927 -2.1008 -0.5921  0.5780
15967TIP3    H269393   3.769   2.919  15.841  1.0145 -0.2861 -1.4457
15968TIP3   OH269394   4.216   4.858   6.213 -0.1859  0.3473  0.0738
15968TIP3    H169395   4.138   4.873   6.160 -1.3744  0.5005  1.7891
15968TIP3    H269396   4.275   4.930   6.191 -0.1609 -0.2013 -1.8260
15969TIP3   OH269397   1.635   1.390  10.956  0.1433  0.1887 -0.3984
15969TIP3    H169398   1.643   1.485  10.944  0.2079  0.5645  2.1864
15969TIP3    H269399   1.635   1.355  10.867  0.8744  2.5428 -1.4005
15970TIP3   OH269400   3.919   3.319  12.169  0.0879  0.0543 -0.0363
15970TIP3    H169401   3.989   3.337  12.232  0.8329 -2.0003 -0.1888
15970TIP3    H269402   3.954   3.349  12.085  0.0205  0.7333  0.1762
15971TIP3   OH269403   2.565   6.636  14.895 -0.1484  0.5012 -0.1064
15971TIP3    H169404   2.517   6.632  14.977 -1.2698  0.2451 -0.7489
15971TIP3    H269405   2.530   6.713  14.850  2.0024  1.9593  0.5491
15972TIP3   OH269406   1.149   2.467  15.435  0.3614 -0.5719 -0.1282
15972TIP3    H169407   1.123   2.381  15.401 -3.4729  0.7925 -1.1639
15972TIP3    H269408   1.149   2.524  15.358 -0.0946  0.9486  0.9510
15973TIP3   OH269409   5.891   3.924   5.425  0.2633 -0.0182  0.4609
15973TIP3    H169410   5.815   3.903   5.479  0.0141  0.7264  0.4052
15973TIP3    H269411   5.857   3.981   5.356  0.9291  0.6252  0.6446
15974TIP3   OH269412   0.277   4.705  13.421  0.3312  0.2695 -0.1706
15974TIP3    H169413   0.297   4.658  13.502  1.6930 -1.3160 -1.3644
15974TIP3    H269414   0.198   4.662  13.387 -0.1993  0.8884  0.2484
15975TIP3   OH269415   2.686   1.323   0.124 -0.2646 -0.0244  0.1218
15975TIP3    H169416   2.738   1.366   0.056 -0.3277  0.4319  0.3620
15975TIP3    H269417   2.720   1.358   0.206 -1.4457  0.8558  0.2668
15976TIP3   OH269418   2.459   1.607   5.590 -0.0367 -0.6122 -0.4178
15976TIP3    H169419   2.522   1.541   5.559  1.1981  0.1259  0.4293
15976TIP3    H269420   2.513   1.682   5.615 -1.4019  0.7755 -1.3951
15977TIP3   OH269421   4.977   3.191   2.145  0.1509  0.1475  0.2935
15977TIP3    H169422   4.962   3.154   2.232  0.8985 -0.1392  0.3097
15977TIP3    H269423   4.948   3.282   2.152 -0.8543 -0.1791  0.5094
15978TIP3   OH269424   1.337   3.674   4.608  0.0996  0.0871 -0.7786
15978TIP3    H169425   1.277   3.741   4.641 -0.0354 -0.6309  0.5025
15978TIP3    H269426   1.349   3.696   4.515 -0.2926  1.6070 -0.5019
15979TIP3   OH269427   2.472   0.620   1.569 -0.3162 -0.4228 -0.8292
15979TIP3    H169428   2.413   0.561   1.617 -0.1914  0.4519  0.4733
15979TIP3    H269429   2.414   0.673   1.515 -0.6904 -0.0059 -0.0417
15980TIP3   OH269430   3.218   5.555   3.636  0.5330  0.1295 -0.1062
15980TIP3    H169431   3.139   5.565   3.689  0.2976 -0.2537 -0.3834
15980TIP3    H269432   3.214   5.466   3.603  2.7286 -1.1267  2.5726
15981TIP3   OH269433   4.090   5.691   2.185 -0.5600 -0.3576 -0.3114
15981TIP3    H169434   4.137   5.769   2.154  1.0571  0.4248  3.5016
15981TIP3    H269435   4.127   5.619   2.135  3.0346  0.5728  0.7103
15982TIP3   OH269436   5.204   0.910  16.363  0.3403  1.1566 -0.2476
15982TIP3    H169437   5.223   0.823  16.328 -0.3108  0.8174  0.2305
15982TIP3    H269438   5.290   0.945  16.387  0.6959  1.0136 -1.2746
15983TIP3   OH269439   0.139   3.654   1.031  0.7841 -0.2760 -0.5908
15983TIP3    H169440   0.095   3.730   0.992 -0.5479 -0.5499  0.2815
15983TIP3    H269441   0.231   3.667   1.012  0.5801  1.5130 -0.5615
15984TIP3   OH269442   0.278   6.445  14.920 -0.5685  0.2155  0.9449
15984TIP3    H169443   0.267   6.479  15.009 -1.8080 -0.0142  0.8901
15984TIP3    H269444   0.215   6.494  14.867  1.6648  1.9539 -0.2834
15985TIP3   OH269445   1.299   5.343  10.288 -0.5932  0.3806 -0.4124
15985TIP3    H169446   1.279   5.279  10.357  0.2254 -2.2635 -2.4546
15985TIP3    H269447   1.280   5.428  10.328  0.5527 -0.9168  3.3132
15986TIP3   OH269448   5.536   3.372   6.342 -0.2067  0.0894 -0.0329
15986TIP3    H169449   5.488   3.335   6.268 -1.2591  0.5148  0.4169
15986TIP3    H269450   5.622   3.396   6.306  0.1011 -1.7370 -0.5836
15987TIP3   OH269451   1.046   6.277   4.074 -0.5450 -0.1341 -0.4293
15987TIP3    H169452   0.973   6.215   4.080 -0.5749 -0.1329 -0.7904
15987TIP3    H269453   1.090   6.255   3.992 -0.7120  0.4908 -0.6944
15988TIP3   OH269454   0.245   6.311   5.887 -0.2390 -0.0975  0.0608
15988TIP3    H169455   0.263   6.224   5.853  0.4100 -0.4024  1.1150
15988TIP3    H269456   0.171   6.299   5.946  0.2373 -0.0658  0.6782
15989TIP3   OH269457   2.691   6.077   0.705  0.1699  0.0820  0.4099
15989TIP3    H169458   2.610   6.033   0.730  0.0077 -0.3109 -0.7503
15989TIP3    H269459   2.676   6.105   0.614  0.5685  1.8375  0.8441
15990TIP3   OH269460   2.048   1.536   2.183  0.2160 -0.0082 -0.0925
15990TIP3    H169461   2.072   1.607   2.123 -1.8943 -0.7219 -1.9145
15990TIP3    H269462   2.037   1.580   2.268  2.8071  1.1058 -0.2489
15991TIP3   OH269463   2.527   6.164   1.655 -0.4318 -0.0920 -0.1453
15991TIP3    H169464   2.432   6.153   1.661 -0.2982 -1.4094 -0.0759
15991TIP3    H269465   2.540   6.211   1.573 -1.2158  1.5045  0.6124
15992TIP3   OH269466   5.252   1.402   2.770  0.7299  0.0941 -0.2576
15992TIP3    H169467   5.276   1.467   2.836  0.4135  1.0655 -1.0729
15992TIP3    H269468   5.157   1.411   2.760  0.4820 -1.3294  0.4620
15993TIP3   OH269469   6.368   3.678  10.486  0.1697  0.3679 -0.3773
15993TIP3    H169470   6.446   3.624  10.499 -0.6727 -0.5187  1.2991
15993TIP3    H269471   6.302   3.617  10.452 -0.4382  0.5894  0.3827
15994TIP3   OH269472   3.714   2.141   0.102 -0.2311 -0.2407  0.3789
15994TIP3    H169473   3.737   2.052   0.127  1.0984 -0.1983 -0.5907
15994TIP3    H269474   3.671   2.177   0.180  0.5772 -1.2386  1.3263
15995TIP3   OH269475   5.442   5.894   0.796  0.1197  0.1088 -0.7367
15995TIP3    H169476   5.475   5.977   0.761 -2.5011  0.8053 -1.8141
15995TIP3    H269477   5.444   5.906   0.891  0.4407  1.1201 -0.8501
15996TIP3   OH269478   0.802   4.066  13.207 -0.7550  0.3175 -0.3020
15996TIP3    H169479   0.825   3.992  13.150 -0.5884  0.7107 -0.7580
15996TIP3    H269480   0.760   4.128  13.148 -0.7175  0.6678  0.0397
15997TIP3   OH269481   0.602   2.161  16.210 -0.1949 -0.2357  0.4549
15997TIP3    H169482   0.553   2.141  16.130  0.7517  0.6671 -0.3894
15997TIP3    H269483   0.536   2.164  16.279 -1.2251  0.1803 -0.5161
15998TIP3   OH269484   6.278   1.489   5.805 -0.0301  0.1731 -0.2829
15998TIP3    H169485   6.253   1.498   5.897  2.0732  1.6448  0.2106
15998TIP3    H269486   6.216   1.545   5.758 -2.1935 -1.8511 -0.0702
15999TIP3   OH269487   3.329   2.808   5.177  0.2042 -0.4791  0.3193
15999TIP3    H169488   3.375   2.870   5.120  1.3047 -1.4450  0.1082
15999TIP3    H269489   3.243   2.799   5.137  0.5990 -0.3307 -0.5982
16000TIP3   OH269490   5.379   4.317  11.637  0.0729 -0.2366 -0.7286
16000TIP3    H169491   5.455   4.290  11.688  1.0061 -0.8585 -2.3612
16000TIP3    H269492   5.321   4.359  11.700  1.8240  0.3691  0.5569
16001TIP3   OH269493   0.281   5.114  16.798  0.2660  0.0980  1.0229
16001TIP3    H169494   0.309   5.030  16.834  0.0864  0.0110  0.9631
16001TIP3    H269495   0.345   5.177  16.830  1.2242 -0.2823 -0.0656
16002TIP3   OH269496   0.472   5.555   4.481 -0.4070 -0.0885  0.2245
16002TIP3    H169497   0.478   5.607   4.400  0.2619  0.2168  0.4663
16002TIP3    H269498   0.478   5.620   4.551 -1.7047 -0.2646  0.5371
16003TIP3   OH269499   2.814   0.856  15.090  0.3695  0.0386 -0.1731
16003TIP3    H169500   2.831   0.928  15.029 -0.9600  0.8686  0.4118
16003TIP3    H269501   2.867   0.876  15.167 -1.2343  1.3265  0.6619
16004TIP3   OH269502   5.157   2.953  12.036  0.7569  0.1448  0.2745
16004TIP3    H169503   5.223   2.974  11.970 -0.1480 -2.3460 -1.5673
16004TIP3    H269504   5.207   2.940  12.116  2.2924  0.0278 -0.6490
16005TIP3   OH269505   0.689   3.317  14.044  0.2352  0.4769  0.8677
16005TIP3    H169506   0.764   3.332  13.987  0.1519  3.3551  1.3993
16005TIP3    H269507   0.714   3.353  14.129 -1.8041  1.8701  0.9665
16006TIP3   OH269508   0.908   3.615   4.031  0.0019  0.2135 -0.3975
16006TIP3    H169509   0.970   3.619   4.104 -1.0095  0.9259  0.4577
16006TIP3    H269510   0.939   3.681   3.969 -0.6493  1.5675  0.6638
16007TIP3   OH269511   5.479   1.542   2.529 -0.5929 -0.3141 -0.5231
16007TIP3    H169512   5.393   1.508   2.553 -0.4779 -1.0268 -1.0765
16007TIP3    H269513   5.541   1.484   2.574 -0.3668  1.3595  1.4737
16008TIP3   OH269514   5.297   3.495  10.720  0.0969  0.2864 -0.2725
16008TIP3    H169515   5.392   3.488  10.714  0.1028  0.9706 -1.2213
16008TIP3    H269516   5.272   3.547  10.643 -1.3793 -2.6977 -1.9968
16009TIP3   OH269517   3.917   1.190   4.756 -0.3912  0.1953 -0.0056
16009TIP3    H169518   3.915   1.240   4.675 -0.5880 -1.7993 -1.2899
16009TIP3    H269519   3.897   1.100   4.730 -4.8891  0.0812  2.7624
16010TIP3   OH269520   3.519   0.994  14.007 -0.0848  0.2879  0.5477
16010TIP3    H169521   3.474   1.060  13.955  0.1291 -1.1285 -1.5535
16010TIP3    H269522   3.560   1.043  14.079  2.2666  2.9130 -2.3116
16011TIP3   OH269523   5.841   1.427   4.085  0.3762 -0.6706  0.5057
16011TIP3    H169524   5.892   1.475   4.020 -0.0027  0.3540  0.9379
16011TIP3    H269525   5.842   1.337   4.055  2.7181 -0.7512  0.6855
16012TIP3   OH269526   0.998   1.546   2.162  0.1028 -0.3860  0.4902
16012TIP3    H169527   1.060   1.552   2.089 -1.0897  0.6401 -0.4764
16012TIP3    H269528   0.992   1.453   2.181  2.7197 -0.4682  1.3270
16013TIP3   OH269529   6.292   3.406   0.849  0.5193 -0.3720  0.2593
16013TIP3    H169530   6.380   3.425   0.882  0.1122  1.7234  0.3300
16013TIP3    H269531   6.282   3.463   0.773 -0.3702 -1.4438 -0.4652
16014TIP3   OH269532   5.809   2.652   3.452  0.2599 -0.7781  0.2598
16014TIP3    H169533   5.724   2.694   3.459 -0.2630 -1.5248 -1.1310
16014TIP3    H269534   5.812   2.589   3.524  0.1570  0.0961  1.0408
16015TIP3   OH269535   2.677   2.846   6.285 -0.6519 -0.0406  0.3957
16015TIP3    H169536   2.692   2.752   6.293 -1.0910 -0.3609 -1.9730
16015TIP3    H269537   2.755   2.880   6.241 -1.9665  0.0531 -2.0219
16016TIP3   OH269538   2.431   6.550   0.550 -0.4444 -0.0671 -0.1431
16016TIP3    H169539   2.386   6.515   0.626 -0.4094  1.2553  0.5225
16016TIP3    H269540   2.416   6.486   0.481 -1.0300 -0.9690  0.7981
16017TIP3   OH269541   1.862   4.861  11.902 -0.2478 -0.3036 -0.1776
16017TIP3    H169542   1.872   4.864  11.997  1.5093  2.5610 -0.3526
16017TIP3    H269543   1.945   4.827  11.869 -1.2137 -2.3055 -0.7423
16018TIP3   OH269544   4.486   0.928   4.173  0.0963 -0.3644 -0.2374
16018TIP3    H169545   4.535   0.987   4.116  0.3074 -2.0015 -1.7989
16018TIP3    H269546   4.547   0.907   4.244  0.2111  0.8230  0.0347
16019TIP3   OH269547   4.091   0.735  17.090  0.0787  0.0463  0.3564
16019TIP3    H169548   4.073   0.829  17.090  1.5366  0.3497  0.6603
16019TIP3    H269549   4.017   0.696  17.044  0.6440  1.5986 -2.0193
16020TIP3   OH269550   1.392   0.408  11.758  0.8560 -0.4173  0.1595
16020TIP3    H169551   1.439   0.466  11.697  1.5472  0.5003  1.5204
16020TIP3    H269552   1.399   0.321  11.718  1.3743  0.1307 -1.0088
16021TIP3   OH269553   2.758   4.124  12.603  0.6949  0.3354  0.0601
16021TIP3    H169554   2.685   4.064  12.617 -1.2779  2.2058 -1.5483
16021TIP3    H269555   2.795   4.137  12.691 -1.6450  0.1653  1.1524
16022TIP3   OH269556   6.146   0.088   0.671 -0.1211 -0.4203  0.4179
16022TIP3    H169557   6.125   0.055   0.759 -1.5113 -1.0895 -0.1217
16022TIP3    H269558   6.115   0.178   0.672  1.3214  0.0994  1.0868
16023TIP3   OH269559   1.653   4.239   4.720  0.3514  0.1361  0.1521
16023TIP3    H169560   1.594   4.307   4.754 -0.7036 -0.4104 -0.5191
16023TIP3    H269561   1.619   4.218   4.633  1.7718  0.0514 -0.4137
16024TIP3   OH269562   0.462   5.363   0.145 -0.0934 -0.0115  0.1538
16024TIP3    H169563   0.479   5.269   0.143 -2.9161 -0.7524  2.9819
16024TIP3    H269564   0.532   5.399   0.199 -0.0559 -0.8066  0.6476
16025TIP3   OH269565   4.310   4.365  11.761  0.1437  0.3067  0.5051
16025TIP3    H169566   4.361   4.403  11.689  0.4516 -1.1680 -0.1168
16025TIP3    H269567   4.277   4.439  11.810 -0.4468  1.3915 -1.4367
16026TIP3   OH269568   3.670   3.475  15.650  0.4749  0.2508 -0.0128
16026TIP3    H169569   3.731   3.429  15.707  0.1005 -0.4939 -0.1965
16026TIP3    H269570   3.716   3.480  15.566  0.4555  0.0563 -0.0372
16027TIP3   OH269571   1.447   6.310   2.713  0.1593  0.2883  0.0768
16027TIP3    H169572   1.394   6.325   2.635 -0.3270  1.5548  0.6244
16027TIP3    H269573   1.420   6.223   2.743 -2.5690  1.3354  0.9952
16028TIP3   OH269574   0.306   1.981   0.869 -0.3692 -0.1015 -0.1529
16028TIP3    H169575   0.323   1.939   0.785 -0.8336 -0.4277 -0.0875
16028TIP3    H269576   0.210   1.987   0.873 -0.3526 -0.2219  0.4194
16029TIP3   OH269577   3.437   5.216   1.691  0.1143  0.2684  0.3663
16029TIP3    H169578   3.348   5.211   1.656  0.7983 -1.2492 -1.2636
16029TIP3    H269579   3.466   5.305   1.669 -0.4347  0.2376 -0.5216
16030TIP3   OH269580   0.934   6.044  11.963  0.2145 -0.0911 -0.1640
16030TIP3    H169581   1.006   6.107  11.963 -1.5442  2.0609 -1.3436
16030TIP3    H269582   0.975   5.960  11.985  3.0212  1.0426 -0.6983
16031TIP3   OH269583   1.521   2.149   6.146 -0.0993  0.1520  0.1313
16031TIP3    H169584   1.540   2.218   6.209 -2.6151 -0.8398  2.1000
16031TIP3    H269585   1.486   2.195   6.070 -0.1481  1.1416  0.7450
16032TIP3   OH269586   0.937   0.022   4.538  0.4025  0.1480 -0.0419
16032TIP3    H169587   1.026  -0.011   4.527 -0.0493 -1.3676  0.6295
16032TIP3    H269588   0.934   0.054   4.628  0.4211  0.6907 -0.2330
16033TIP3   OH269589   5.130   4.771   5.860  0.1650  0.1811 -0.4683
16033TIP3    H169590   5.182   4.740   5.786 -0.4900  1.9575 -1.7635
16033TIP3    H269591   5.042   4.781   5.824 -1.3182 -3.1673  1.7693
16034TIP3   OH269592   2.104   3.168   1.293  0.0995  0.3162  0.3663
16034TIP3    H169593   2.023   3.217   1.282 -0.5236 -0.8460 -0.4828
16034TIP3    H269594   2.075   3.079   1.313  1.1669 -0.1885 -0.2640
16035TIP3   OH269595   6.454   5.885  15.711  0.1324 -0.3158 -0.1314
16035TIP3    H169596   6.449   5.870  15.616 -0.0683 -0.0956 -0.1555
16035TIP3    H269597   6.416   5.972  15.724 -0.4692 -0.6264  0.2315
16036TIP3   OH269598   3.726   4.945   2.970  0.7549 -0.4544 -0.1972
16036TIP3    H169599   3.725   4.850   2.964  0.3246 -0.6015  1.7623
16036TIP3    H269600   3.679   4.965   3.050  0.3177  1.4575 -0.8800
16037TIP3   OH269601   2.987   5.493  12.176  0.0603 -0.0524  0.6267
16037TIP3    H169602   2.911   5.471  12.229 -0.3234 -0.5680 -0.1080
16037TIP3    H269603   3.014   5.409  12.138 -1.5448  0.6274 -2.4029
16038TIP3   OH269604   1.434   0.143   0.923 -0.7923 -0.2384 -0.3759
16038TIP3    H169605   1.359   0.192   0.958 -0.4960 -0.3402  0.4038
16038TIP3    H269606   1.394   0.075   0.869 -1.2611 -0.1898 -0.0956
16039TIP3   OH269607   4.784   3.294   0.146 -0.1882  0.1426 -0.0889
16039TIP3    H169608   4.872   3.278   0.180 -0.0822  0.9919  0.0622
16039TIP3    H269609   4.799   3.348   0.068 -0.6026  0.8405  0.3039
16040TIP3   OH269610   1.736   6.385   1.876 -1.0716 -0.4304  0.5097
16040TIP3    H169611   1.729   6.421   1.788 -1.0169 -0.4929  0.4796
16040TIP3    H269612   1.810   6.432   1.915 -0.0365 -1.5355 -0.0305
16041TIP3   OH269613   4.463   3.937  15.808 -0.6023 -0.0081 -0.7410
16041TIP3    H169614   4.405   3.912  15.881  2.7899 -1.6479  1.6648
16041TIP3    H269615   4.480   4.030  15.822  2.0322 -0.7624  2.4447
16042TIP3   OH269616   2.731   3.940  14.111 -0.2245 -0.2861  0.1517
16042TIP3    H169617   2.792   3.951  14.039  0.7357 -1.5554  0.7208
16042TIP3    H269618   2.661   4.003  14.094  1.1142  1.0308 -0.6550
16043TIP3   OH269619   2.351   5.214   6.014 -0.3019  0.1952 -0.3714
16043TIP3    H169620   2.321   5.131   6.053  0.3775 -0.0654 -0.3962
16043TIP3    H269621   2.420   5.244   6.073 -0.0008  0.3427 -0.7994
16044TIP3   OH269622   1.520   6.299  13.703  0.3191  0.5486 -0.2004
16044TIP3    H169623   1.567   6.245  13.766  0.9048  0.4789 -0.6907
16044TIP3    H269624   1.435   6.255  13.692 -0.0573  0.9333  1.0364
16045TIP3   OH269625   2.219   6.333   5.056 -0.0321  0.1706 -0.3984
16045TIP3    H169626   2.202   6.365   5.144 -0.7775 -0.6836 -0.2187
16045TIP3    H269627   2.305   6.370   5.033 -0.3534  1.3291  0.2205
16046TIP3   OH269628   4.907   1.401  14.726 -0.0299 -0.2243 -0.2449
16046TIP3    H169629   4.992   1.428  14.761  1.1846 -1.4278 -2.1114
16046TIP3    H269630   4.855   1.481  14.727  0.7156  0.3177  1.9307
16047TIP3   OH269631   4.711   2.887  14.813  0.4438 -0.0665 -0.0445
16047TIP3    H169632   4.676   2.960  14.762  1.2756  0.5162  0.1887
16047TIP3    H269633   4.676   2.900  14.901  0.4804 -0.0258 -0.0361
16048TIP3   OH269634   5.332   4.125   3.968 -0.2644 -0.2292 -0.1889
16048TIP3    H169635   5.416   4.138   3.925  0.1478 -1.0278  0.3427
16048TIP3    H269636   5.275   4.192   3.930  1.3319  2.2351  1.4839
16049TIP3   OH269637   6.790   6.258   2.934 -0.4582 -0.6724  0.2435
16049TIP3    H169638   6.877   6.280   2.901 -0.2515 -2.4680 -0.5011
16049TIP3    H269639   6.792   6.287   3.026  0.9250 -0.6594  0.2376
16050TIP3   OH269640   1.578   0.700  13.757 -0.2609  0.0748 -0.2781
16050TIP3    H169641   1.631   0.744  13.823 -0.4403  0.1368 -0.1742
16050TIP3    H269642   1.492   0.690  13.798  0.0417 -1.2583  0.0831
16051TIP3   OH269643   4.319   6.368  10.501 -0.1827  0.2200  0.4507
16051TIP3    H169644   4.362   6.286  10.480 -1.1429 -0.4902  1.1168
16051TIP3    H269645   4.389   6.432  10.507  0.4863 -0.3537 -0.9717
16052TIP3   OH269646   4.729   0.149   5.779  0.5050  0.4714  0.4534
16052TIP3    H169647   4.704   0.121   5.867 -1.6320  1.5143  0.2228
16052TIP3    H269648   4.697   0.080   5.721  0.8996  0.3408  0.3858
16053TIP3   OH269649   5.869   0.625   1.920  0.4661  0.5828  0.3446
16053TIP3    H169650   5.794   0.569   1.938  0.8171 -0.2428 -0.7020
16053TIP3    H269651   5.940   0.588   1.973  0.4859  0.5529  0.2971
16054TIP3   OH269652   5.777   6.621   2.525 -0.1093 -0.3173 -0.0661
16054TIP3    H169653   5.823   6.704   2.534 -0.3906 -0.2704  1.1948
16054TIP3    H269654   5.835   6.557   2.565  0.6390 -0.9515 -2.1109
16055TIP3   OH269655   5.348   2.214  10.656 -0.0594 -0.2459  0.1243
16055TIP3    H169656   5.405   2.156  10.605 -0.4121 -1.2473  0.8452
16055TIP3    H269657   5.332   2.289  10.598  1.9748  0.0617 -0.0976
16056TIP3   OH269658   6.594   0.448  16.315  1.4542  0.4977 -0.3046
16056TIP3    H169659   6.552   0.392  16.249  0.4353  1.5150 -0.5578
16056TIP3    H269660   6.564   0.412  16.398  0.7708  0.6688 -0.4658
16057TIP3   OH269661   5.949   1.332   2.155  0.1098 -0.0610  1.1217
16057TIP3    H169662   6.011   1.377   2.213  1.5770  0.4878 -0.7635
16057TIP3    H269663   5.991   1.249   2.134 -0.6614 -0.4972  1.2581
16058TIP3   OH269664   2.487   4.361  16.405 -0.2965  0.2035 -0.3741
16058TIP3    H169665   2.547   4.293  16.437 -0.4828  0.1694 -0.0965
16058TIP3    H269666   2.424   4.314  16.350 -2.0814 -0.3054  1.9770
16059TIP3   OH269667   3.381   1.712  13.128 -0.1644  0.1626  0.1145
16059TIP3    H169668   3.440   1.663  13.186  1.7900  2.2575  0.0188
16059TIP3    H269669   3.334   1.771  13.187 -0.6879 -0.0877 -0.0514
16060TIP3   OH269670   1.794   5.025   0.271  0.6621 -0.3645  0.0947
16060TIP3    H169671   1.755   5.064   0.348 -2.3432 -0.8574 -1.0506
16060TIP3    H269672   1.765   4.933   0.273  0.1923 -0.3044 -1.7444
16061TIP3   OH269673   1.114   6.391  16.052  0.2470 -0.0476 -1.0365
16061TIP3    H169674   1.018   6.400  16.048  0.3116  1.4219  0.0455
16061TIP3    H269675   1.131   6.355  16.139  0.5296 -3.7492 -2.4533
16062TIP3   OH269676   0.743   5.789   1.199  0.1752 -0.3888 -0.4635
16062TIP3    H169677   0.834   5.758   1.198  1.1034  2.0544  0.6941
16062TIP3    H269678   0.693   5.718   1.158  2.6030 -1.7424 -1.2749
16063TIP3   OH269679   4.624   0.633   5.483  0.6409 -0.4480  0.2896
16063TIP3    H169680   4.557   0.565   5.487 -0.3452  0.4844  0.1976
16063TIP3    H269681   4.618   0.676   5.569 -0.1439  0.7831 -0.3540
16064TIP3   OH269682   3.243   0.099  14.121 -0.2980  0.5523  0.3209
16064TIP3    H169683   3.258   0.014  14.078 -1.0203  0.5344  0.0946
16064TIP3    H269684   3.327   0.120  14.162  0.8149  1.1328 -2.0586
16065TIP3   OH269685   5.589   2.281   0.676 -0.3671 -0.0647 -0.6063
16065TIP3    H169686   5.567   2.288   0.583 -0.4374  0.3325 -0.5588
16065TIP3    H269687   5.510   2.247   0.718 -0.0929 -0.9979 -0.8009
16066TIP3   OH269688   6.647   2.995   3.894 -0.1884 -0.2189 -0.7972
16066TIP3    H169689   6.599   2.942   3.957  1.1130 -0.1998  0.2543
16066TIP3    H269690   6.718   2.938   3.864  0.7218  0.6051 -0.2917
16067TIP3   OH269691   1.542   4.976   4.966  0.0209  0.1049 -0.1336
16067TIP3    H169692   1.583   4.895   4.934 -0.4462 -0.7893  1.4174
16067TIP3    H269693   1.609   5.017   5.020  0.1522  0.6041 -0.6728
16068TIP3   OH269694   4.517   5.805   3.963  0.2487 -0.5339  0.3229
16068TIP3    H169695   4.542   5.719   3.931 -2.6941 -0.4977 -2.5445
16068TIP3    H269696   4.437   5.790   4.013  0.6921  0.3549  1.3439
16069TIP3   OH269697   0.869   1.164  17.116 -0.6180 -0.7247  0.6896
16069TIP3    H169698   0.814   1.232  17.153  0.4471  1.2582 -1.1055
16069TIP3    H269699   0.931   1.143  17.186 -0.2567  1.0251  0.9506
16070TIP3   OH269700   3.817   3.375  14.891  0.1986  0.0305  0.3203
16070TIP3    H169701   3.785   3.427  14.818  0.5910 -1.8504 -1.2867
16070TIP3    H269702   3.751   3.385  14.959 -0.7664  0.9132 -0.7155
16071TIP3   OH269703   4.199   5.718   4.024 -0.1913 -0.4242 -0.2745
16071TIP3    H169704   4.235   5.708   4.113  1.3239  2.1085 -0.4890
16071TIP3    H269705   4.216   5.634   3.982 -0.2377 -1.4262  1.5847
16072TIP3   OH269706   4.508   4.716  13.050  0.4381  0.1080 -0.5393
16072TIP3    H169707   4.529   4.721  13.143 -1.5947 -1.4100  0.0875
16072TIP3    H269708   4.491   4.807  13.024  0.2382  0.4738  0.7852
16073TIP3   OH269709   0.641   4.452   2.318  0.6949  0.0116 -0.6035
16073TIP3    H169710   0.676   4.395   2.386 -1.4775 -1.4738 -0.6528
16073TIP3    H269711   0.586   4.395   2.265 -1.5247  2.1052 -0.6971
16074TIP3   OH269712   0.708   3.301   0.942  0.1081 -0.4926 -0.4184
16074TIP3    H169713   0.771   3.257   1.000  0.2721  1.1676  0.7707
16074TIP3    H269714   0.683   3.380   0.991 -0.4026  0.5568 -2.2732
16075TIP3   OH269715   3.524   5.759   2.649 -0.0611 -0.0969  0.3630
16075TIP3    H169716   3.542   5.724   2.736  0.5796 -1.4312 -0.2768
16075TIP3    H269717   3.455   5.702   2.614 -0.1264  0.2611 -0.1039
16076TIP3   OH269718   0.120   4.269  16.341 -0.1502  0.1868  0.0727
16076TIP3    H169719   0.151   4.358  16.359 -3.2564  1.6384 -1.0923
16076TIP3    H269720   0.177   4.238  16.270  0.7827  1.3366  0.2823
16077TIP3   OH269721   5.331   0.622  15.051  0.3235  0.9971  0.1841
16077TIP3    H169722   5.262   0.688  15.060  1.0650  2.2778 -2.4109
16077TIP3    H269723   5.410   0.674  15.033  1.2778 -0.5427 -0.1858
16078TIP3   OH269724   4.609   0.854  11.414 -0.1734  0.4200 -0.9764
16078TIP3    H169725   4.662   0.775  11.416 -0.3722  0.2695 -1.5231
16078TIP3    H269726   4.655   0.913  11.353  0.3573  1.0065 -0.0337
16079TIP3   OH269727   0.085   1.705   0.001 -0.6181 -0.2196  0.3366
16079TIP3    H169728   0.086   1.791   0.044  0.4195  0.3184 -0.7136
16079TIP3    H269729   0.175   1.690  -0.026 -1.0604 -0.9612 -0.8077
16080TIP3   OH269730   4.450   6.425   2.799 -0.2632  0.4398 -0.3337
16080TIP3    H169731   4.540   6.401   2.777  0.0155  0.8689  0.2930
16080TIP3    H269732   4.456   6.460   2.888 -1.4736 -2.2056  0.9336
16081TIP3   OH269733   1.858   3.529   3.467  0.2449 -0.6521  0.5536
16081TIP3    H169734   1.869   3.443   3.508 -0.3852 -0.4916  1.0831
16081TIP3    H269735   1.879   3.592   3.536  4.3125 -0.2770 -0.7742
16082TIP3   OH269736   5.682   6.789   1.133 -0.3920 -0.3181 -0.2993
16082TIP3    H169737   5.624   6.861   1.157  2.0155  1.5190  0.4450
16082TIP3    H269738   5.706   6.807   1.042 -0.0620 -0.3450 -0.2211
16083TIP3   OH269739   5.006   2.335   5.296 -0.5693  0.2715 -0.9546
16083TIP3    H169740   5.049   2.262   5.341  0.1508  0.6633 -0.9848
16083TIP3    H269741   4.927   2.351   5.347  0.0357  0.4584 -0.0429
16084TIP3   OH269742   5.209   2.871   4.297 -0.4259  0.1042  0.4365
16084TIP3    H169743   5.133   2.833   4.253  0.5095 -0.2659 -0.9425
16084TIP3    H269744   5.174   2.912   4.376 -1.8647 -1.1123  0.4615
16085TIP3   OH269745   2.402   6.338   1.363 -0.6251 -0.2112  0.5188
16085TIP3    H169746   2.435   6.284   1.292 -0.7383  0.3593  0.0252
16085TIP3    H269747   2.371   6.418   1.320 -0.2817  0.3282  1.2540
16086TIP3   OH269748   0.719   3.889  10.960 -0.3476  0.1671  0.0766
16086TIP3    H169749   0.734   3.921  10.871 -3.8170  0.5095 -0.5318
16086TIP3    H269750   0.682   3.802  10.949  1.3473 -0.7843  1.3674
16087TIP3   OH269751   1.451   0.950   2.045  0.5976 -0.4679  0.5575
16087TIP3    H169752   1.417   0.927   2.131  1.2904  0.0493  0.9808
16087TIP3    H269753   1.493   1.035   2.057  0.9094 -0.4924 -0.2348
16088TIP3   OH269754   3.715   1.369  11.771  0.3373  0.2709  0.5353
16088TIP3    H169755   3.731   1.319  11.690  1.8155  2.0975 -0.3835
16088TIP3    H269756   3.632   1.336  11.804  0.9285 -2.3284 -0.3387
16089TIP3   OH269757   5.399   0.667   3.553  0.3853 -0.9098  0.4682
16089TIP3    H169758   5.336   0.598   3.572 -0.1702 -0.6844 -0.5156
16089TIP3    H269759   5.423   0.653   3.461  0.1679  0.2700  0.2168
16090TIP3   OH269760   0.177   3.918  12.276  0.2570 -0.3531 -0.5770
16090TIP3    H169761   0.227   3.836  12.270  0.3495 -0.4816  1.3696
16090TIP3    H269762   0.149   3.922  12.368  0.5223  1.9551 -0.5492
16091TIP3   OH269763   2.180   2.354  16.262 -0.2164  0.1523 -0.5631
16091TIP3    H169764   2.239   2.412  16.309  0.0766  0.1451 -0.9197
16091TIP3    H269765   2.099   2.405  16.252 -0.4543 -0.0236  0.3653
16092TIP3   OH269766   3.387   6.714   0.858  0.0152 -0.0240 -0.7017
16092TIP3    H169767   3.419   6.630   0.890 -2.1009 -0.7934 -0.4319
16092TIP3    H269768   3.464   6.770   0.855  0.9550 -0.9499  2.3541
16093TIP3   OH269769   2.441   5.211  15.832 -0.0651  0.2741  0.4356
16093TIP3    H169770   2.437   5.236  15.740  0.1194  0.6490  0.5266
16093TIP3    H269771   2.524   5.164  15.840  0.7478  1.6930  0.7459
16094TIP3   OH269772   0.107   3.965   4.002 -0.1159  0.0975  0.5112
16094TIP3    H169773   0.123   3.963   4.097 -1.9577  4.0748  1.1468
16094TIP3    H269774   0.185   4.008   3.966  0.4278 -1.0904  0.2536
16095TIP3   OH269775   0.049   5.863   0.349  0.7004  0.0186  0.0305
16095TIP3    H169776   0.027   5.770   0.355  1.3828 -0.0755  1.4800
16095TIP3    H269777   0.035   5.885   0.257  2.7523 -2.0874 -0.8936
16096TIP3   OH269778   2.493   0.615   3.456  0.1474  0.7274 -0.1556
16096TIP3    H169779   2.443   0.696   3.466  0.3106  0.6714  1.4329
16096TIP3    H269780   2.511   0.587   3.546 -0.8539 -1.6689 -0.6372
16097TIP3   OH269781   3.012   4.866   2.372  0.5475  0.0256 -0.4630
16097TIP3    H169782   3.086   4.846   2.428 -0.7614 -1.3785  0.8557
16097TIP3    H269783   3.042   4.938   2.317  2.2765  0.6892  1.2480
16098TIP3   OH269784   2.809   1.714   5.346  0.3608 -0.3394 -0.0864
16098TIP3    H169785   2.863   1.690   5.422  1.5904  0.1467 -0.7948
16098TIP3    H269786   2.867   1.763   5.289 -1.2831  1.6902 -0.1175
16099TIP3   OH269787   5.342   5.444   1.096  0.0124  0.3972 -0.0834
16099TIP3    H169788   5.328   5.513   1.031 -0.6391  0.7044  0.3646
16099TIP3    H269789   5.270   5.455   1.158  1.3129  0.9323  1.4022
16100TIP3   OH269790   2.822   2.882   5.431  0.0510  0.0490 -0.1578
16100TIP3    H169791   2.880   2.810   5.454  1.5413  1.4967  0.8313
16100TIP3    H269792   2.877   2.944   5.382 -1.0712  0.7367 -0.6116
16101TIP3   OH269793   6.049   1.048  16.410 -0.2716  0.0580  0.4582
16101TIP3    H169794   6.056   1.104  16.487 -1.0847 -0.9788  1.3176
16101TIP3    H269795   5.955   1.038  16.395 -0.1409  1.0935 -1.3375
16102TIP3   OH269796   0.318   4.985   3.590  0.1049 -0.5355 -0.1612
16102TIP3    H169797   0.283   4.954   3.506 -0.6177  0.4443 -0.2416
16102TIP3    H269798   0.278   4.927   3.655  0.1666 -0.8944 -0.4382
16103TIP3   OH269799   6.672   4.233   1.525 -0.4957 -0.2681  0.4136
16103TIP3    H169800   6.588   4.218   1.482 -0.2607 -1.4598  0.3423
16103TIP3    H269801   6.708   4.145   1.538  1.2915  0.2737 -0.6463
16104TIP3   OH269802   6.815   5.095  13.782 -0.0181 -0.0028 -0.0204
16104TIP3    H169803   6.760   5.173  13.793  0.9663  0.6480  0.3681
16104TIP3    H269804   6.777   5.050  13.706  1.2120  2.4582 -2.2650
16105TIP3   OH269805   4.039   1.291  16.677 -0.4625 -0.1335 -0.0295
16105TIP3    H169806   4.089   1.361  16.718 -0.4666 -0.5855  0.7677
16105TIP3    H269807   4.072   1.287  16.588  0.3966  0.0680  0.2697
16106TIP3   OH269808   6.350   5.256  14.990  0.4165  0.1775  0.2319
16106TIP3    H169809   6.273   5.311  15.006  0.6793  0.5943  0.0833
16106TIP3    H269810   6.410   5.278  15.061 -0.5967 -2.0539  1.9053
16107TIP3   OH269811   1.455   0.519  15.520 -0.7791 -0.0538  0.4324
16107TIP3    H169812   1.480   0.438  15.564 -0.2893 -0.3297 -0.3277
16107TIP3    H269813   1.385   0.556  15.574 -1.0240 -0.9978  0.7732
16108TIP3   OH269814   5.850   4.209  14.499  0.7177  0.2326  0.2195
16108TIP3    H169815   5.866   4.299  14.471  0.3052  0.1299 -0.3637
16108TIP3    H269816   5.767   4.214  14.548 -0.0209 -0.0395 -0.9629
16109TIP3   OH269817   6.331   5.717  12.376  0.1626 -0.5341  0.1602
16109TIP3    H169818   6.285   5.767  12.443 -1.5285  1.3601 -2.2606
16109TIP3    H269819   6.400   5.776  12.344 -1.3201  0.0995 -2.1423
16110TIP3   OH269820   1.354   0.395  12.125  0.4692 -0.5057  0.4278
16110TIP3    H169821   1.401   0.393  12.042  0.8961 -1.2871  0.6762
16110TIP3    H269822   1.423   0.393  12.192  0.3109  2.9026  0.8840
16111TIP3   OH269823   0.229   3.247  16.433 -0.2442  0.3970  0.2539
16111TIP3    H169824   0.269   3.263  16.347  2.0814 -2.2379  0.6859
16111TIP3    H269825   0.298   3.202  16.483 -2.6265 -1.1346  2.3851
16112TIP3   OH269826   5.681   6.183   3.479  0.5417  0.0389 -0.0867
16112TIP3    H169827   5.603   6.224   3.516 -0.0554 -1.5095  0.4763
16112TIP3    H269828   5.755   6.231   3.518 -0.1118 -0.0268  1.3090
16113TIP3   OH269829   6.008   6.109   5.816  0.2745 -0.1057 -0.0680
16113TIP3    H169830   5.987   6.050   5.745 -0.1635  0.9185 -0.8078
16113TIP3    H269831   5.931   6.108   5.873  0.3409 -0.3814  0.0156
16114TIP3   OH269832   1.413   2.562  11.702 -0.0305 -0.1567 -0.0439
16114TIP3    H169833   1.379   2.643  11.666 -2.8047 -1.0599  0.2721
16114TIP3    H269834   1.338   2.502  11.702  1.2125 -1.8906  2.1531
16115TIP3   OH269835   4.482   2.369   2.151 -0.6002 -0.5912 -0.0044
16115TIP3    H169836   4.557   2.325   2.113  0.0587  0.8850 -0.4891
16115TIP3    H269837   4.456   2.434   2.085 -0.4007  0.9695  1.3802
16116TIP3   OH269838   3.198   0.610  17.121 -0.6945  0.4566  0.8471
16116TIP3    H169839   3.289   0.604  17.151 -0.2451 -1.5595 -0.6702
16116TIP3    H269840   3.191   0.697  17.084  0.3953  0.9105  1.6489
16117TIP3   OH269841   2.781   6.698   1.019 -0.0541  0.4017 -0.0700
16117TIP3    H169842   2.842   6.627   1.037  0.8415  1.0794 -0.3566
16117TIP3    H269843   2.716   6.659   0.960 -1.1350 -0.9019  1.8675
16118TIP3   OH269844   0.187   4.499  10.987  0.0632  0.1304 -0.3215
16118TIP3    H169845   0.145   4.584  10.976  0.2404  0.1250 -1.0906
16118TIP3    H269846   0.122   4.436  10.954 -1.0493 -0.2817  2.3781
16119TIP3   OH269847   2.887   6.387  11.569 -0.6713 -0.0776 -0.3860
16119TIP3    H169848   2.827   6.450  11.528 -2.0189 -1.5417 -0.7563
16119TIP3    H269849   2.834   6.308  11.581  1.0317 -1.2264 -0.1325
16120TIP3   OH269850   0.716   1.065   3.700  0.0565 -0.6391  0.0348
16120TIP3    H169851   0.628   1.030   3.716 -0.2719 -0.8869 -2.0370
16120TIP3    H269852   0.705   1.160   3.703 -0.2199 -0.6728  0.0919
16121TIP3   OH269853   5.223   3.984  11.902  0.2306  0.5775  0.1388
16121TIP3    H169854   5.294   4.000  11.840  0.3851 -0.1046  0.1309
16121TIP3    H269855   5.258   4.009  11.987  1.3687 -2.0276  0.5193
16122TIP3   OH269856   5.134   2.254   0.035  0.2956 -0.5370  0.0220
16122TIP3    H169857   5.089   2.185  -0.014  0.9221 -0.7025 -0.3281
16122TIP3    H269858   5.075   2.273   0.109  0.5271 -2.0792  0.6384
16123TIP3   OH269859   2.388   4.821   0.959 -0.0230 -0.8577 -0.0287
16123TIP3    H169860   2.370   4.733   0.993 -2.1329 -1.1221 -1.6013
16123TIP3    H269861   2.307   4.869   0.974 -0.7248 -0.6730 -3.4814
16124TIP3   OH269862   4.957   1.430   2.762  0.6493  0.7805 -0.3520
16124TIP3    H169863   4.907   1.497   2.715 -0.1842  0.6695  0.3605
16124TIP3    H269864   4.939   1.446   2.854  0.5770 -0.3234 -0.1636
16125TIP3   OH269865   6.279   0.135  13.696 -0.4051  0.6296 -0.0274
16125TIP3    H169866   6.212   0.092  13.749  0.3500 -2.9202 -1.6276
16125TIP3    H269867   6.331   0.186  13.758 -1.3629 -0.8897  2.1273
16126TIP3   OH269868   2.635   2.996   2.479  0.5864  0.8237  0.0211
16126TIP3    H169869   2.606   3.028   2.565  1.9623  2.0948  0.0526
16126TIP3    H269870   2.588   3.049   2.416 -0.2816  0.0174 -0.0355
16127TIP3   OH269871   6.788   4.277  14.450  0.1380 -0.0364 -0.2561
16127TIP3    H169872   6.768   4.348  14.389 -0.2267 -0.6380 -0.8484
16127TIP3    H269873   6.709   4.268  14.504  0.4085  0.4028  0.2231
16128TIP3   OH269874   2.484   0.640  13.862  0.4150 -0.0584 -0.1425
16128TIP3    H169875   2.473   0.735  13.864 -0.1719 -0.1324  0.4685
16128TIP3    H269876   2.520   0.618  13.948 -3.8857 -0.8890  1.6972
16129TIP3   OH269877   4.703   0.905   4.623 -0.3801  0.4463  0.4375
16129TIP3    H169878   4.691   0.997   4.647  1.7260  1.0114 -0.4097
16129TIP3    H269879   4.693   0.858   4.705 -1.6119  1.3902  0.8716
16130TIP3   OH269880   4.569   2.755   5.931 -0.1904 -0.3394  0.3985
16130TIP3    H169881   4.576   2.784   5.840  2.0529  3.0619  1.4237
16130TIP3    H269882   4.483   2.786   5.960  0.3119  1.4316  0.1668
16131TIP3   OH269883   2.057   2.871   5.110 -0.1770 -0.0082  0.8557
16131TIP3    H169884   1.989   2.870   5.042  0.1296  1.5470  0.4869
16131TIP3    H269885   2.024   2.931   5.176 -0.0684 -0.8345  1.6835
16132TIP3   OH269886   1.529   6.253   3.796  0.0867  0.4888  0.0520
16132TIP3    H169887   1.486   6.214   3.872  0.3731  2.4574  1.2999
16132TIP3    H269888   1.459   6.298   3.749 -0.0941 -0.7482 -0.8928
16133TIP3   OH269889   4.321   4.104  11.723 -0.7142  0.0771 -0.1164
16133TIP3    H169890   4.339   4.052  11.801 -1.1256 -0.7225 -0.5514
16133TIP3    H269891   4.363   4.188  11.741  0.3970 -0.5562  0.3844
16134TIP3   OH269892   2.417   5.922   3.997 -0.7834  0.1496  0.0682
16134TIP3    H169893   2.401   6.008   4.037 -0.6525  0.6695 -0.9524
16134TIP3    H269894   2.379   5.859   4.058 -2.0637  1.0175  0.2094
16135TIP3   OH269895   1.040   3.958  15.715  0.3198 -0.3186 -0.0346
16135TIP3    H169896   1.051   3.966  15.620 -0.1928 -0.1339 -0.0855
16135TIP3    H269897   0.946   3.939  15.726 -0.1401  2.0018  0.5494
16136TIP3   OH269898   0.301   6.672  13.288  0.1187  0.1269 -0.3654
16136TIP3    H169899   0.289   6.723  13.368 -1.9571  1.6838 -1.5722
16136TIP3    H269900   0.300   6.581  13.318 -0.4578  0.6701  1.4090
16137TIP3   OH269901   2.140   6.601  10.838  0.3586 -0.1151 -0.1906
16137TIP3    H169902   2.181   6.592  10.924  0.3965 -1.7208 -0.3375
16137TIP3    H269903   2.204   6.648  10.785  0.3955  0.7540  0.6106
16138TIP3   OH269904   1.418   5.156  15.935 -0.0732  0.5521  0.1404
16138TIP3    H169905   1.459   5.219  15.995  0.7992  1.0549 -0.9668
16138TIP3    H269906   1.453   5.071  15.962  1.2723  0.9091 -0.4226
16139TIP3   OH269907   3.135   3.534  13.360 -0.4829  0.1235  0.4434
16139TIP3    H169908   3.125   3.609  13.301  0.8241  1.8162  2.2259
16139TIP3    H269909   3.180   3.570  13.436 -0.8182 -2.2759  1.8715
16140TIP3   OH269910   1.549   0.465   6.163 -0.7693 -0.5954 -0.4374
16140TIP3    H169911   1.524   0.398   6.100 -1.7960 -0.6331 -0.0169
16140TIP3    H269912   1.484   0.457   6.233  0.0837 -0.2678  0.4121
16141TIP3   OH269913   0.306   6.691  16.055 -0.8056 -0.0866 -0.8796
16141TIP3    H169914   0.390   6.646  16.067  0.1930  1.3347 -2.2153
16141TIP3    H269915   0.312   6.731  15.968 -1.8197  2.1904  0.0194
16142TIP3   OH269916   3.546   1.171   1.298 -0.1802  0.3504  0.2741
16142TIP3    H169917   3.627   1.212   1.327  1.5168 -2.7561  0.3707
16142TIP3    H269918   3.481   1.197   1.363  1.7282 -0.2845  2.5649
16143TIP3   OH269919   0.627   0.029  15.612  0.7020 -0.5566 -0.7725
16143TIP3    H169920   0.575   0.050  15.534 -1.2192 -0.0899  0.5441
16143TIP3    H269921   0.573   0.061  15.685  2.5922 -0.6603  0.7321
16144TIP3   OH269922   5.140   5.703  12.511  0.5869  0.3908  0.4248
16144TIP3    H169923   5.226   5.704  12.468 -0.1870  0.7296 -1.1790
16144TIP3    H269924   5.083   5.752  12.453 -0.6593  0.3888  1.5889
16145TIP3   OH269925   5.093   4.051  12.393  0.7628  0.6330  0.3276
16145TIP3    H169926   5.052   3.977  12.349  1.3478 -0.3607  1.4205
16145TIP3    H269927   5.024   4.117  12.397  0.1527  0.0654 -0.4182
16146TIP3   OH269928   2.354   1.793   3.908 -0.3361 -0.0552  0.5111
16146TIP3    H169929   2.416   1.827   3.973 -2.3493  1.1926  1.8874
16146TIP3    H269930   2.362   1.852   3.834  0.1004  0.1013  0.6752
16147TIP3   OH269931   6.830   5.931  13.781  0.0267 -0.5164 -0.0522
16147TIP3    H169932   6.751   5.882  13.759  0.4428 -2.4911  2.3873
16147TIP3    H269933   6.811   5.970  13.866  0.7493  1.2693 -0.6747
16148TIP3   OH269934   4.814   6.307   5.599  0.1167  0.0115  0.0039
16148TIP3    H169935   4.868   6.282   5.524  0.7202  0.5373  0.2570
16148TIP3    H269936   4.754   6.374   5.564 -0.9787 -1.1663 -0.4835
16149TIP3   OH269937   5.286   2.314   3.109 -0.0938 -0.2959  0.6478
16149TIP3    H169938   5.238   2.393   3.083 -1.4206 -1.3906 -0.4291
16149TIP3    H269939   5.270   2.305   3.203 -1.6102 -0.3297  0.4127
16150TIP3   OH269940   4.190   1.540  12.986 -0.4696 -0.1147  0.1097
16150TIP3    H169941   4.203   1.622  13.034  0.4381  0.1322 -0.5356
16150TIP3    H269942   4.141   1.485  13.046 -0.2045  0.5438  0.9477
16151TIP3   OH269943   5.872   2.362  15.256  0.7646  0.1102  0.3615
16151TIP3    H169944   5.861   2.293  15.191  1.3815 -0.9502  1.3564
16151TIP3    H269945   5.784   2.376  15.291  0.6915 -0.3900  0.3765
16152TIP3   OH269946   1.720   2.787  11.814 -0.2806  0.1531 -0.1868
16152TIP3    H169947   1.728   2.878  11.785  2.1476 -0.3154 -1.2103
16152TIP3    H269948   1.642   2.787  11.870 -0.0917  2.9555  0.2375
16153TIP3   OH269949   6.249   1.388   2.814  0.0329  0.5026  0.0204
16153TIP3    H169950   6.210   1.460   2.764  0.4377 -0.0303 -1.1101
16153TIP3    H269951   6.186   1.316   2.805 -0.0919  0.5284  0.6492
16154TIP3   OH269952   0.338   1.197   0.119 -0.7736 -0.5121 -0.4424
16154TIP3    H169953   0.344   1.165   0.209 -2.2540 -0.1278 -0.1743
16154TIP3    H269954   0.250   1.172   0.091 -0.6961  0.2708 -1.4245
16155TIP3   OH269955   1.002   4.793   5.048 -0.6765 -0.6816 -0.2516
16155TIP3    H169956   0.953   4.872   5.072  1.2206  0.8520 -1.1799
16155TIP3    H269957   1.094   4.816   5.062 -0.1103 -3.2589  0.8652
16156TIP3   OH269958   6.051   2.620  14.559 -0.3351  0.5641 -0.5906
16156TIP3    H169959   5.993   2.622  14.635  0.3463 -0.5792 -0.0188
16156TIP3    H269960   6.078   2.711  14.547  1.2234  0.5008  1.8668
16157TIP3   OH269961   0.442   2.431   4.212  0.6549 -0.7256 -0.2712
16157TIP3    H169962   0.441   2.461   4.303 -0.3035 -0.5379 -0.3382
16157TIP3    H269963   0.370   2.369   4.206  1.6394 -1.8966 -0.5396
16158TIP3   OH269964   1.659   2.249  15.856 -0.2967 -0.1409 -1.1642
16158TIP3    H169965   1.730   2.251  15.920 -1.1271 -1.0434 -0.1780
16158TIP3    H269966   1.610   2.330  15.871 -0.6705 -0.4953 -0.4165
16159TIP3   OH269967   2.997   1.704   2.261 -0.1994  0.0031  0.1721
16159TIP3    H169968   3.043   1.621   2.276 -0.9961 -0.7807 -1.4429
16159TIP3    H269969   3.016   1.756   2.339  1.2847 -1.2492  0.7099
16160TIP3   OH269970   2.942   1.912  12.944 -0.3295  0.2078  0.0414
16160TIP3    H169971   2.902   1.990  12.984 -2.2267  0.0948 -1.4417
16160TIP3    H269972   2.954   1.851  13.017  0.8988  1.7195  1.1859
16161TIP3   OH269973   4.762   3.054   1.077  0.3062  0.1413 -0.4696
16161TIP3    H169974   4.675   3.029   1.046 -0.1261 -0.4803  1.1505
16161TIP3    H269975   4.780   3.137   1.033 -1.7152  1.0000  0.1904
16162TIP3   OH269976   6.407   6.707   0.827  0.6493 -0.1478  0.0511
16162TIP3    H169977   6.417   6.742   0.739 -0.6861 -0.3804 -0.2234
16162TIP3    H269978   6.458   6.626   0.827  0.3105 -0.3643 -0.6440
16163TIP3   OH269979   2.027   1.520  11.062 -0.1451 -0.5560 -0.5612
16163TIP3    H169980   1.959   1.541  11.126  0.9084  0.4739  0.2561
16163TIP3    H269981   2.017   1.425  11.048 -0.5510 -0.7645  0.9479
16164TIP3   OH269982   1.572   0.123  16.280  0.2612  0.2232 -0.5268
16164TIP3    H169983   1.515   0.049  16.261  1.1112 -0.3453 -0.9323
16164TIP3    H269984   1.606   0.105  16.368  0.4468  0.1420 -0.6148
16165TIP3   OH269985   4.516   6.661  11.656  0.0040 -0.2057  0.4111
16165TIP3    H169986   4.454   6.610  11.708 -0.4000 -1.6764 -1.4289
16165TIP3    H269987   4.509   6.750  11.692 -1.1520 -0.8968  2.0243
16166TIP3   OH269988   2.104   0.395   0.736  0.7970  0.4013 -0.4892
16166TIP3    H169989   2.174   0.342   0.775  0.2830  1.0318  1.3970
16166TIP3    H269990   2.035   0.395   0.802 -0.4105  0.9824 -1.7153
16167TIP3   OH269991   4.715   2.543   5.597 -0.2755 -0.8506  0.4903
16167TIP3    H169992   4.661   2.615   5.630  0.1965 -0.3822  0.2700
16167TIP3    H269993   4.772   2.520   5.671  0.1393 -0.4326  0.3093
16168TIP3   OH269994   5.069   5.622   1.714 -0.7278  0.4817  0.1499
16168TIP3    H169995   5.063   5.528   1.727 -0.4137  0.3362 -0.6903
16168TIP3    H269996   5.012   5.640   1.640 -1.1360  1.0254  0.5866
16169TIP3   OH269997   0.530   6.296  11.734 -0.2892  0.3291 -0.9856
16169TIP3    H169998   0.574   6.213  11.752  0.0540  0.9185  1.2901
16169TIP3    H269999   0.451   6.272  11.685 -0.1452 -1.3209 -0.4801
16170TIP3   OH270000   5.777   1.687   5.406 -0.5146 -0.1586  0.1823
16170TIP3    H170001   5.739   1.724   5.485 -1.4081  0.6070 -0.5809
16170TIP3    H270002   5.864   1.656   5.433 -0.3987  1.0201  1.2213
16171TIP3   OH270003   0.159   1.643  12.851  0.4593  0.3503  0.0893
16171TIP3    H170004   0.078   1.677  12.889 -0.0398 -0.4693 -0.2196
16171TIP3    H270005   0.202   1.719  12.814 -1.3671  0.4787 -1.9734
16172TIP3   OH270006   2.582   4.607   3.998 -0.0815  0.0588  0.6453
16172TIP3    H170007   2.585   4.621   3.903  4.3090  2.5375  0.9119
16172TIP3    H270008   2.562   4.514   4.008 -0.0007 -0.4307 -2.7013
16173TIP3   OH270009   5.394   3.252   3.004  0.1225  0.6212 -0.9074
16173TIP3    H170010   5.483   3.243   3.037 -0.1542 -0.2743 -0.3870
16173TIP3    H270011   5.353   3.167   3.019 -0.7005  0.8904 -1.5167
16174TIP3   OH270012   0.300   1.102  13.729  0.1708 -0.4304  0.8701
16174TIP3    H170013   0.395   1.100  13.717  0.1986 -1.5891  1.1082
16174TIP3    H270014   0.268   1.033  13.670 -0.4111 -0.7486  1.5500
16175TIP3   OH270015   3.316   1.881  11.913  0.2312  0.0438 -0.7151
16175TIP3    H170016   3.277   1.909  11.831 -0.6548  0.0395 -0.3016
16175TIP3    H270017   3.291   1.948  11.976 -0.5295 -0.8063 -0.0795
16176TIP3   OH270018   5.464   5.533  10.631  0.3221 -0.1333  0.2106
16176TIP3    H170019   5.396   5.588  10.669 -0.8295 -1.1892 -0.2461
16176TIP3    H270020   5.476   5.463  10.694  0.8029 -0.0859  0.1713
16177TIP3   OH270021   4.396   1.294  12.980  0.6872 -0.6392 -0.0597
16177TIP3    H170022   4.353   1.274  12.897  2.1746 -1.9859 -0.5527
16177TIP3    H270023   4.416   1.387  12.974 -1.3085 -0.1782 -0.1831
16178TIP3   OH270024   6.419   5.499   1.583 -0.1757 -0.3054 -0.0191
16178TIP3    H170025   6.445   5.588   1.561 -2.1714  0.3193 -0.0375
16178TIP3    H270026   6.353   5.476   1.519 -0.3006 -1.4835  0.5029
16179TIP3   OH270027   1.516   0.326  12.411 -0.3029 -0.2332 -0.2363
16179TIP3    H170028   1.440   0.348  12.466  1.4455 -0.1124  2.3048
16179TIP3    H270029   1.510   0.231  12.401 -0.1928 -0.3838  0.9501
16180TIP3   OH270030   6.463   5.209   5.433  0.7039 -0.4181 -0.1490
16180TIP3    H170031   6.542   5.212   5.378  1.4724 -0.9445  0.8898
16180TIP3    H270032   6.490   5.250   5.515 -0.3986  0.2743 -0.1116
16181TIP3   OH270033   0.240   4.931   5.914  0.9527  0.2078 -0.1922
16181TIP3    H170034   0.269   5.005   5.968  2.2206 -0.7995  0.5700
16181TIP3    H270035   0.161   4.962   5.871  1.4608  2.0153  0.0945
16182TIP3   OH270036   5.880   4.849   6.156 -0.4182  0.3752  0.2784
16182TIP3    H170037   5.948   4.914   6.177 -1.2466  1.3230  0.1389
16182TIP3    H270038   5.906   4.814   6.071  0.4207 -0.0042  0.6796
16183TIP3   OH270039   1.921   4.780  15.775  0.4004 -0.3745 -0.2428
16183TIP3    H170040   1.953   4.870  15.772 -0.6090 -0.0325 -1.6382
16183TIP3    H270041   1.992   4.731  15.816  1.7149  0.7485 -1.0790
16184TIP3   OH270042   6.420   0.895  11.516 -0.0615 -0.2138 -0.4523
16184TIP3    H170043   6.356   0.965  11.504  0.4982 -0.0596 -3.2125
16184TIP3    H270044   6.421   0.880  11.611 -3.8622  0.0145 -0.1935
16185TIP3   OH270045   4.513   4.077   0.117  0.1927 -0.3791 -0.1912
16185TIP3    H170046   4.478   4.062   0.204  0.3161 -1.9368 -0.3678
16185TIP3    H270047   4.445   4.043   0.058  0.7018 -0.6417 -0.6365
16186TIP3   OH270048   0.291   3.281   3.098 -0.4329  0.2156  0.3194
16186TIP3    H170049   0.345   3.317   3.168 -0.1383  1.6587 -0.5885
16186TIP3    H270050   0.268   3.358   3.045 -0.5714 -0.8431 -1.2031
16187TIP3   OH270051   6.749   0.339   3.033  0.1965  0.6044 -0.0022
16187TIP3    H170052   6.778   0.398   2.963 -1.4798  2.6127  0.8903
16187TIP3    H270053   6.656   0.357   3.043  0.2222 -0.1640  2.2263
16188TIP3   OH270054   2.672   5.153  17.096 -0.0778 -0.3915  0.0862
16188TIP3    H170055   2.754   5.132  17.051 -1.2491 -1.5651 -1.6307
16188TIP3    H270056   2.677   5.248  17.111  1.1302 -0.2507 -1.0164
16189TIP3   OH270057   1.697   6.642   4.499 -0.4862  0.0885 -0.2332
16189TIP3    H170058   1.693   6.732   4.467  1.8145 -0.1789 -1.5020
16189TIP3    H270059   1.700   6.651   4.594  1.1856  1.4926 -0.3709
16190TIP3   OH270060   4.421   6.633  11.404  0.2706  0.3061 -0.4490
16190TIP3    H170061   4.455   6.658  11.490  0.0243  0.5114 -0.4095
16190TIP3    H270062   4.410   6.717  11.358  1.5130  0.1454 -1.1093
16191TIP3   OH270063   4.854   0.247   2.857  0.9702 -0.0624 -0.0456
16191TIP3    H170064   4.770   0.279   2.890  1.1472  0.2673  0.0916
16191TIP3    H270065   4.896   0.208   2.934  0.4077 -1.3888 -0.3821
16192TIP3   OH270066   3.170   6.174  15.045 -0.3162  0.8120 -0.0458
16192TIP3    H170067   3.180   6.188  15.139  0.4820  0.6926 -0.1121
16192TIP3    H270068   3.240   6.225  15.005 -0.1000  0.1507 -0.5259
16193TIP3   OH270069   6.574   5.950   9.998 -0.1874  0.6223  0.2063
16193TIP3    H170070   6.619   6.035  10.006 -0.3931  0.8109 -0.5473
16193TIP3    H270071   6.589   5.924   9.908  0.4835 -0.5037  0.6245
16194TIP3   OH270072   0.554   3.792  17.027  0.1025 -0.1537  0.5307
16194TIP3    H170073   0.547   3.757  17.115 -2.6154 -1.3944 -0.0823
16194TIP3    H270074   0.577   3.717  16.972 -0.9030  0.0300 -0.1678
16195TIP3   OH270075   6.599   1.503  13.470 -0.2375  0.0312 -0.1930
16195TIP3    H170076   6.619   1.414  13.500 -2.6203 -0.5680 -0.1722
16195TIP3    H270077   6.557   1.490  13.385 -1.4813  1.0579  0.2469
16196TIP3   OH270078   4.597   5.455  17.153  0.0017 -0.1537  0.1783
16196TIP3    H170079   4.523   5.501  17.113  0.6713  2.0230  1.3052
16196TIP3    H270080   4.561   5.417  17.233 -0.1731 -0.1547  0.1007
16197TIP3   OH270081   5.244   5.733   5.142 -0.0346 -0.5900 -0.3332
16197TIP3    H170082   5.292   5.700   5.066 -1.0263 -0.6356 -0.9526
16197TIP3    H270083   5.299   5.805   5.175 -0.8633  1.3010 -2.7560
16198TIP3   OH270084   1.720   0.754  16.009 -0.1981  0.0729  0.0050
16198TIP3    H170085   1.742   0.847  16.015  0.7891 -0.2187  2.0256
16198TIP3    H270086   1.718   0.735  15.915 -1.6765  2.3720 -0.4935
16199TIP3   OH270087   5.375   1.249  11.078 -0.4230  0.8523  0.3949
16199TIP3    H170088   5.376   1.269  10.984 -0.3810  0.1456  0.2380
16199TIP3    H270089   5.434   1.313  11.117 -1.1493  1.7514  0.0699
16200TIP3   OH270090   0.038   3.054  12.647  0.0244  0.0569 -0.4559
16200TIP3    H170091   0.117   3.046  12.699  1.1899  1.6671 -1.8704
16200TIP3    H270092   0.003   3.141  12.668 -1.2913 -0.5517  0.0061
16201TIP3   OH270093   1.110   0.289  10.915  0.0033 -0.0909  0.0407
16201TIP3    H170094   1.158   0.289  10.998  0.8776  4.1785 -0.2736
16201TIP3    H270095   1.178   0.278  10.848 -0.0538  1.1664 -0.2395
16202TIP3   OH270096   3.748   4.403  13.043 -0.0342  0.3890  0.4440
16202TIP3    H170097   3.760   4.379  13.134  2.8349  0.9568  0.3208
16202TIP3    H270098   3.714   4.493  13.046 -0.7504  0.1111  0.9203
16203TIP3   OH270099   6.293   3.700   0.829  0.3542  0.2500  0.5284
16203TIP3    H170100   6.262   3.753   0.756  1.7788 -0.3869 -0.6134
16203TIP3    H270101   6.385   3.724   0.838  0.1165  0.5825  2.3933
16204TIP3   OH270102   3.438   5.785  11.394  0.5326 -0.6696  0.1116
16204TIP3    H170103   3.532   5.767  11.399  0.7304  0.4475  0.5426
16204TIP3    H270104   3.407   5.775  11.484  0.2212 -1.0416 -0.0313
16205TIP3   OH270105   3.473   4.160   2.897  0.2370 -0.0853  0.4872
16205TIP3    H170106   3.497   4.105   2.972  2.5809  1.4805  1.0049
16205TIP3    H270107   3.550   4.158   2.840 -1.3597 -0.9392 -1.7758
16206TIP3   OH270108   1.883   6.070  14.262 -0.2895 -0.1020  0.6875
16206TIP3    H170109   1.860   6.143  14.205 -1.9567 -0.1448  1.2668
16206TIP3    H270110   1.892   5.996  14.203 -1.5149 -0.0428  0.3943
16207TIP3   OH270111   3.740   0.547  11.429  0.2829  0.1379  0.4773
16207TIP3    H170112   3.809   0.511  11.486  0.8696 -0.9569 -0.8675
16207TIP3    H270113   3.769   0.526  11.340 -1.8990 -0.5911 -0.1306
16208TIP3   OH270114   2.763   4.234   2.567  0.6110  0.5168  0.3356
16208TIP3    H170115   2.837   4.183   2.600  0.4354  1.1097  1.6862
16208TIP3    H270116   2.750   4.202   2.478  2.8899  0.8371 -0.1641
16209TIP3   OH270117   3.198   1.836  13.281 -0.1819  0.1525 -0.1877
16209TIP3    H170118   3.109   1.871  13.278 -0.7470 -1.1006  1.0612
16209TIP3    H270119   3.202   1.787  13.363  1.1437 -1.1462 -0.9778
16210TIP3   OH270120   4.986   5.188  13.578 -0.3072  0.0037 -0.5198
16210TIP3    H170121   5.072   5.190  13.619  0.1084  0.6880 -1.3953
16210TIP3    H270122   4.945   5.109  13.612  1.4534 -1.4753 -1.6522
16211TIP3   OH270123   0.580   3.785  12.424 -0.1728  0.2706  0.1561
16211TIP3    H170124   0.520   3.710  12.426 -0.4393  0.4396 -0.9763
16211TIP3    H270125   0.560   3.833  12.505 -2.3550  0.9073 -0.6774
16212TIP3   OH270126   5.200   1.711  13.648 -0.4860 -0.0945 -0.3759
16212TIP3    H170127   5.127   1.764  13.680  0.2527  0.5447  0.2958
16212TIP3    H270128   5.186   1.624  13.686 -0.8649  0.0400 -0.2045
16213TIP3   OH270129   3.160   6.422  14.643  0.5469  0.4001  0.9187
16213TIP3    H170130   3.125   6.398  14.729  0.3991 -0.0384  0.7375
16213TIP3    H270131   3.133   6.513  14.631  0.6966  0.5132  1.4016
16214TIP3   OH270132   2.628   1.494   5.334  0.7604 -0.0561  0.7277
16214TIP3    H170133   2.648   1.481   5.426  0.9477 -0.2501  0.6599
16214TIP3    H270134   2.696   1.554   5.302  0.8534 -0.2017  0.6517
16215TIP3   OH270135   0.373   6.632  12.960 -0.5150  0.5467 -0.3448
16215TIP3    H170136   0.440   6.698  12.976 -0.5483  0.6354 -0.5706
16215TIP3    H270137   0.346   6.646  12.870  0.5314 -0.7429 -0.9009
16216TIP3   OH270138   6.415   2.793  13.133 -0.1416  0.3209 -0.1765
16216TIP3    H170139   6.472   2.859  13.093 -0.7242  1.4672  0.8190
16216TIP3    H270140   6.469   2.752  13.200  0.3371 -0.4961 -1.0404
16217TIP3   OH270141   1.119   4.074  10.853  0.3169 -0.2761 -0.1106
16217TIP3    H170142   1.213   4.056  10.846  0.4726  0.4697  0.0060
16217TIP3    H270143   1.099   4.130  10.778 -0.1495 -0.8607 -0.4298
16218TIP3   OH270144   3.551   1.890  14.749 -0.0495  0.3803 -0.1535
16218TIP3    H170145   3.526   1.798  14.743  1.3782  0.0110 -0.5881
16218TIP3    H270146   3.527   1.927  14.664 -2.6287  0.9741  0.7309
16219TIP3   OH270147   1.406   6.239   5.485  0.2037 -0.1651  0.0182
16219TIP3    H170148   1.311   6.237   5.488  0.1389 -0.2804 -1.2510
16219TIP3    H270149   1.433   6.255   5.575 -1.1035  3.8568 -0.1183
16220TIP3   OH270150   2.216   0.901   3.073 -0.0757  0.5176 -0.0019
16220TIP3    H170151   2.170   0.866   3.149  0.1556  1.5847  0.6608
16220TIP3    H270152   2.275   0.831   3.045  1.3841  0.8081  2.1163
16221TIP3   OH270153   2.733   6.087  15.193 -0.6659  0.3451  0.1415
16221TIP3    H170154   2.710   6.130  15.111 -0.4911 -0.4698 -0.3354
16221TIP3    H270155   2.810   6.034  15.173  0.4366  1.4513  1.2420
16222TIP3   OH270156   6.684   5.130   4.675  0.5727 -0.1368 -0.1358
16222TIP3    H170157   6.642   5.197   4.728  0.0694 -1.3428  1.0362
16222TIP3    H270158   6.770   5.118   4.715  0.4423 -0.5832  0.0211
16223TIP3   OH270159   5.208   5.688   4.715  0.0003  0.4479 -0.2103
16223TIP3    H170160   5.264   5.737   4.655  0.6515 -0.9544 -0.7857
16223TIP3    H270161   5.256   5.608   4.734 -1.5108 -0.4978 -0.1929
16224TIP3   OH270162   5.384   2.903   3.783  0.5874 -0.2771 -0.5188
16224TIP3    H170163   5.291   2.882   3.780  0.7455 -1.0186 -0.2251
16224TIP3    H270164   5.390   2.977   3.843  0.2848 -0.7577  0.1053
16225TIP3   OH270165   3.373   5.408  16.859  0.0392 -0.0617  0.6374
16225TIP3    H170166   3.396   5.472  16.791  0.9686 -1.2632 -0.2126
16225TIP3    H270167   3.303   5.356  16.820 -0.9988  0.6498  1.4814
16226TIP3   OH270168   2.643   6.317   2.808  0.1316 -0.4794 -0.7595
16226TIP3    H170169   2.639   6.412   2.794  1.6002 -0.4195 -0.8904
16226TIP3    H270170   2.558   6.285   2.777 -1.1787  0.9873  1.0657
16227TIP3   OH270171   1.458   5.881  10.874 -0.1582  0.1852  0.3704
16227TIP3    H170172   1.469   5.903  10.967 -1.4262 -0.1525  0.6107
16227TIP3    H270173   1.364   5.890  10.858 -0.0563 -0.4950 -0.7006
16228TIP3   OH270174   4.356   2.112  16.737  0.2362 -0.2652 -0.2703
16228TIP3    H170175   4.343   2.120  16.831  1.1219  0.6601 -0.2050
16228TIP3    H270176   4.410   2.188  16.714 -0.3460 -0.2183 -1.5932
16229TIP3   OH270177   6.622   5.747   4.436 -0.0628 -0.1010 -0.4350
16229TIP3    H170178   6.564   5.819   4.462 -0.7471 -0.9604  0.5035
16229TIP3    H270179   6.576   5.706   4.362 -1.6371 -1.8760  1.4104
16230TIP3   OH270180   1.595   0.411   3.975  0.2363  0.1552  0.3201
16230TIP3    H170181   1.569   0.370   3.893  0.3353 -1.1209  0.9123
16230TIP3    H270182   1.515   0.452   4.007  0.4967  1.9256 -1.0778
16231TIP3   OH270183   4.184   5.557  12.960 -0.0270 -0.9310 -0.4548
16231TIP3    H170184   4.254   5.499  12.989  0.0811 -0.6341 -0.1192
16231TIP3    H270185   4.226   5.618  12.901 -0.2685 -1.6060 -1.3515
16232TIP3   OH270186   0.715   1.009   3.418  0.1142  0.6443 -0.1348
16232TIP3    H170187   0.620   1.017   3.424  0.0006 -1.1388  1.1447
16232TIP3    H270188   0.747   1.046   3.500  0.1153 -3.1114  1.7587
16233TIP3   OH270189   1.494   6.219   2.295 -0.0753 -0.3054  0.3157
16233TIP3    H170190   1.537   6.300   2.268  0.8075  0.1344  2.8042
16233TIP3    H270191   1.564   6.154   2.297 -0.2181 -0.4477  0.9535
16234TIP3   OH270192   5.830   5.959   2.103 -0.2368  0.1925 -0.5689
16234TIP3    H170193   5.806   6.044   2.066 -0.1563  0.5911  0.2585
16234TIP3    H270194   5.887   5.919   2.038 -0.0878  0.8758 -0.8623
16235TIP3   OH270195   3.779   3.328   3.281 -0.4084  0.3133  0.0277
16235TIP3    H170196   3.828   3.306   3.201  1.6061  0.6809  1.0898
16235TIP3    H270197   3.727   3.250   3.300 -0.0871 -0.1821 -1.0365
16236TIP3   OH270198   1.434   0.580  13.539  0.3110 -0.2897  0.0764
16236TIP3    H170199   1.416   0.662  13.492 -0.6023 -0.9577 -0.7570
16236TIP3    H270200   1.487   0.608  13.615  0.6385  0.9741 -0.5843
16237TIP3   OH270201   1.595   3.880  15.741  0.6580  0.2462  0.2794
16237TIP3    H170202   1.685   3.860  15.766  0.6592  0.0282  0.1077
16237TIP3    H270203   1.590   3.856  15.648 -0.2674 -2.1647  0.8653
16238TIP3   OH270204   1.869   0.094   3.774 -0.1231 -0.1887  0.1555
16238TIP3    H170205   1.933   0.159   3.746  0.4404 -1.4407 -1.6293
16238TIP3    H270206   1.915   0.041   3.840 -0.3811  0.7917  1.1500
16239TIP3   OH270207   4.128   3.535  14.874  0.2195  0.1069  0.6003
16239TIP3    H170208   4.192   3.552  14.943  0.0974  2.1685  0.2758
16239TIP3    H270209   4.149   3.598  14.805 -1.2565 -0.1432 -0.1293
16240TIP3   OH270210   2.187   0.354  10.431  0.2721 -0.3138 -0.1449
16240TIP3    H170211   2.127   0.426  10.412 -1.9806 -1.1669  2.8862
16240TIP3    H270212   2.208   0.315  10.346 -1.4369  1.6082 -1.5105
16241TIP3   OH270213   5.569   5.093  10.801 -0.1882  0.2665  0.4202
16241TIP3    H170214   5.613   5.144  10.733  0.1427 -0.6193 -0.0426
16241TIP3    H270215   5.535   5.016  10.756 -1.4331  0.4775  0.9484
16242TIP3   OH270216   5.126   1.735   3.560  0.1867  0.5554 -0.3047
16242TIP3    H170217   5.064   1.784   3.506  0.3447 -0.7348 -1.7269
16242TIP3    H270218   5.188   1.698   3.497 -0.7686 -2.6784  0.4829
16243TIP3   OH270219   0.087   0.929   3.132  0.1046 -0.0400 -0.0567
16243TIP3    H170220   0.153   0.919   3.063 -0.9059 -0.8703 -0.9272
16243TIP3    H270221   0.053   0.841   3.145 -0.7924  0.3675  0.4294
16244TIP3   OH270222   1.618   3.608   0.662  0.4454 -0.5871 -0.2633
16244TIP3    H170223   1.640   3.515   0.665  2.0116 -0.3419 -2.0400
16244TIP3    H270224   1.528   3.611   0.627  0.7009 -1.4224 -1.0210
16245TIP3   OH270225   1.563   5.884  12.724 -0.5261 -0.1025  0.0865
16245TIP3    H170226   1.500   5.941  12.770 -0.2237 -0.4796  0.9851
16245TIP3    H270227   1.647   5.928  12.734 -0.5595  0.1626 -0.7155
16246TIP3   OH270228   3.710   2.569  15.726  0.6058 -0.2964 -0.0726
16246TIP3    H170229   3.702   2.483  15.767  2.0426 -0.5644 -0.3023
16246TIP3    H270230   3.773   2.556  15.655  1.3381  1.0895  0.2951
16247TIP3   OH270231   6.749   4.288  14.131 -0.5943  0.2075 -0.5825
16247TIP3    H170232   6.672   4.309  14.183  0.3083 -1.6898  1.7689
16247TIP3    H270233   6.815   4.351  14.159 -0.2908 -0.4241  0.1767
16248TIP3   OH270234   0.187   4.985  10.324  0.0482 -0.1453  0.1811
16248TIP3    H170235   0.100   4.999  10.286  0.3932  0.7454 -0.3035
16248TIP3    H270236   0.248   5.007  10.254  0.6773 -1.1705  0.3756
16249TIP3   OH270237   2.012   0.739  11.183  0.2055  0.1178 -0.1876
16249TIP3    H170238   1.925   0.754  11.219  0.4658  0.5098  0.2922
16249TIP3    H270239   2.039   0.825  11.149  0.5504  0.0878  0.0034
16250TIP3   OH270240   0.606   4.993  11.052 -0.0351  0.1050  0.1112
16250TIP3    H170241   0.598   4.931  10.979 -0.3736  0.5207 -0.2050
16250TIP3    H270242   0.532   5.052  11.042 -1.1793 -0.9270  1.8457
16251TIP3   OH270243   4.772   6.215  14.018  0.1841 -0.5143 -0.2503
16251TIP3    H170244   4.836   6.286  14.022 -0.1748 -0.1595 -0.7578
16251TIP3    H270245   4.824   6.137  14.001  0.3529 -0.0172 -2.1843
16252TIP3   OH270246   0.988   3.736   1.513 -0.6313 -0.3701 -0.8456
16252TIP3    H170247   0.985   3.753   1.419 -1.5555 -0.2132 -0.7960
16252TIP3    H270248   0.900   3.757   1.544  0.2000  1.5751  0.4074
16253TIP3   OH270249   2.776   1.023  14.864 -0.3948  0.1620 -0.0538
16253TIP3    H170250   2.815   1.032  14.777  2.1530 -1.0603  0.8854
16253TIP3    H270251   2.738   1.110  14.882  1.0218  1.1272 -1.4745
16254TIP3   OH270252   4.090   4.615  11.726  0.8656 -0.0083  0.1052
16254TIP3    H170253   4.115   4.644  11.814  0.4993  2.4183 -0.5179
16254TIP3    H270254   4.154   4.654  11.668 -0.8482  1.3606 -0.9810
16255TIP3   OH270255   3.137   3.664  15.988  0.5867 -0.3387  0.1163
16255TIP3    H170256   3.216   3.639  16.038  1.6352 -0.7467 -1.6600
16255TIP3    H270257   3.170   3.723  15.920 -0.6150 -0.6272 -0.7389
16256TIP3   OH270258   6.717   5.397   2.136  0.0265  0.0476  0.0602
16256TIP3    H170259   6.763   5.480   2.143 -1.8128  1.1986 -0.7720
16256TIP3    H270260   6.642   5.406   2.195 -0.6905 -0.6599 -0.7149
16257TIP3   OH270261   0.879   0.964  12.860  0.2085 -0.9159 -0.4219
16257TIP3    H170262   0.921   0.957  12.774  1.2422 -1.3367  0.1081
16257TIP3    H270263   0.814   0.893  12.861  0.3441 -1.0451 -0.7723
16258TIP3   OH270264   1.610   1.278  13.747  0.2235 -0.5432 -0.3682
16258TIP3    H170265   1.667   1.331  13.803 -0.6132  1.0109 -0.9430
16258TIP3    H270266   1.616   1.319  13.661 -0.3374 -1.4917 -0.8754
16259TIP3   OH270267   1.486   3.005  15.158  1.1105 -0.0198  0.1566
16259TIP3    H170268   1.565   3.023  15.208  1.3239  0.4638 -0.3459
16259TIP3    H270269   1.445   3.090  15.147 -1.2925 -0.5581  3.3066
16260TIP3   OH270270   5.554   4.480  12.920  0.2408 -0.2410 -0.0914
16260TIP3    H170271   5.624   4.451  12.978  0.3494  0.8753  0.3555
16260TIP3    H270272   5.478   4.428  12.948  0.5493 -0.4699  0.3446
16261TIP3   OH270273   6.169   2.107  10.771 -0.4001 -0.4051  0.0993
16261TIP3    H170274   6.259   2.109  10.738 -0.0715 -0.8462  0.9341
16261TIP3    H270275   6.116   2.088  10.694  0.2255 -0.1959 -0.3968
16262TIP3   OH270276   5.160   4.010  15.896  0.3793  0.3437 -0.2584
16262TIP3    H170277   5.227   4.001  15.963 -0.8505 -2.1741  0.7847
16262TIP3    H270278   5.107   3.931  15.904 -1.1904  1.0053 -2.7376
16263TIP3   OH270279   6.001   5.187  13.098 -0.0859  0.1247  0.6583
16263TIP3    H170280   5.908   5.173  13.116 -0.2238 -1.2449 -0.8788
16263TIP3    H270281   6.002   5.251  13.027  0.1683  0.3604  0.8709
16264TIP3   OH270282   4.256   6.747   3.787  0.1565 -0.4287 -0.4221
16264TIP3    H170283   4.271   6.840   3.805 -0.7047 -0.3354 -0.1097
16264TIP3    H270284   4.164   6.743   3.759 -0.0769 -1.2937  0.4206
16265TIP3   OH270285   4.710   4.932  16.187  0.3670 -0.0274 -0.0356
16265TIP3    H170286   4.667   4.881  16.117 -0.2445 -0.8275  0.8977
16265TIP3    H270287   4.658   4.914  16.265  0.6321  1.4025  0.4991
16266TIP3   OH270288   6.383   1.768  14.413  1.0775 -0.0444  0.1319
16266TIP3    H170289   6.320   1.803  14.351  1.9075  1.2476 -0.0196
16266TIP3    H270290   6.345   1.685  14.441 -1.2908  1.2372  1.0053
16267TIP3   OH270291   1.087   5.993   5.527  0.3756  0.3074  0.3837
16267TIP3    H170292   1.163   5.937   5.511  1.1066  1.6218 -1.1097
16267TIP3    H270293   1.125   6.078   5.549 -0.6519  1.0055 -0.4793
16268TIP3   OH270294   4.508   3.911   1.977  0.3434  0.3106  0.2979
16268TIP3    H170295   4.439   3.847   1.960  0.1256  0.2452  1.3748
16268TIP3    H270296   4.546   3.884   2.060  1.1918  0.7713  0.0772
16269TIP3   OH270297   6.267   2.559  12.201 -0.5883  0.1781  0.2359
16269TIP3    H170298   6.178   2.588  12.221 -0.7308 -0.4218  0.4910
16269TIP3    H270299   6.296   2.619  12.132 -1.5445 -0.2128 -0.5468
16270TIP3   OH270300   2.449   3.534  11.517  0.3131 -0.4679 -0.0610
16270TIP3    H170301   2.431   3.627  11.500  0.6504 -0.4587 -0.3831
16270TIP3    H270302   2.364   3.499  11.545  0.3701  0.1150  0.8903
16271TIP3   OH270303   0.773   0.579   0.937  0.2793  0.1391 -0.1810
16271TIP3    H170304   0.766   0.519   1.011 -0.3079 -1.6016 -1.5780
16271TIP3    H270305   0.682   0.597   0.912  0.4736 -0.0813 -1.0796
16272TIP3   OH270306   5.473   0.499   4.992  0.1708  0.3130 -0.5895
16272TIP3    H170307   5.536   0.504   5.064 -0.0949  1.3820 -0.4221
16272TIP3    H270308   5.447   0.407   4.990  2.2235 -0.3133 -1.0993
16273TIP3   OH270309   6.516   1.594  10.886  1.0610 -0.4416  0.1985
16273TIP3    H170310   6.514   1.549  10.802 -1.1839  1.0383 -0.6285
16273TIP3    H270311   6.607   1.621  10.897  1.0743  1.2052 -2.8816
16274TIP3   OH270312   5.092   6.051   1.050 -0.4937  0.1986  0.4168
16274TIP3    H170313   5.004   6.015   1.058 -0.6334  0.6140  0.7893
16274TIP3    H270314   5.140   5.987   0.998 -1.6654  1.1028 -1.9465
16275TIP3   OH270315   3.101   1.521   0.044 -0.1053 -0.6478  0.2222
16275TIP3    H170316   3.092   1.615   0.028  2.2249 -0.5144 -0.6127
16275TIP3    H270317   3.138   1.515   0.132 -2.4582 -0.9583  1.2844
16276TIP3   OH270318   2.004   3.346  11.994  0.3136 -0.2055  0.2203
16276TIP3    H170319   1.936   3.412  11.982  0.1648 -0.2194  0.9405
16276TIP3    H270320   1.999   3.292  11.915  0.8939  1.0296 -0.6951
16277TIP3   OH270321   4.317   5.854   0.819  0.6216 -0.2945 -0.2972
16277TIP3    H170322   4.295   5.942   0.851  1.4053  1.7626 -4.6383
16277TIP3    H270323   4.410   5.844   0.842  0.4048 -0.2021  0.6418
16278TIP3   OH270324   1.539   4.721  15.548  0.1638  0.4123 -0.0296
16278TIP3    H170325   1.626   4.750  15.519 -1.1492  3.9941 -0.9254
16278TIP3    H270326   1.524   4.767  15.630 -0.9112 -0.1052  0.0846
16279TIP3   OH270327   6.203   5.453   9.992 -0.6255 -0.2017 -0.1654
16279TIP3    H170328   6.214   5.372  10.042 -0.4383  0.5168  0.9820
16279TIP3    H270329   6.117   5.485  10.018 -0.7191 -0.0477 -0.6545
16280TIP3   OH270330   2.372   5.895   1.338 -0.1641  0.0788  0.2868
16280TIP3    H170331   2.348   5.823   1.279 -0.9385  0.7707 -0.2605
16280TIP3    H270332   2.404   5.964   1.280 -0.3652  0.5461  0.7210
16281TIP3   OH270333   6.789   5.877   1.015  0.2921 -0.0041  0.7857
16281TIP3    H170334   6.724   5.933   1.056  1.4901  0.9466  1.4469
16281TIP3    H270335   6.846   5.937   0.967  0.7157 -0.8042  0.2567
16282TIP3   OH270336   6.585   3.496  10.493  0.1882 -0.1918  0.2167
16282TIP3    H170337   6.679   3.484  10.480  0.0753 -0.4358 -0.4285
16282TIP3    H270338   6.545   3.416  10.458 -0.2533 -0.1348  0.5757
16283TIP3   OH270339   4.414   2.272  15.883 -0.1419 -0.1931  0.0467
16283TIP3    H170340   4.473   2.302  15.952  2.5058 -0.9224 -1.7774
16283TIP3    H270341   4.337   2.329  15.890  0.8766  1.0113  2.3104
16284TIP3   OH270342   2.178   0.604  16.127  0.6803  0.3928 -0.1437
16284TIP3    H170343   2.100   0.595  16.073 -0.2722 -0.7421  1.3474
16284TIP3    H270344   2.179   0.526  16.182  1.5434  1.5225  1.5473
16285TIP3   OH270345   1.657   1.497  15.256 -0.3559 -0.5050 -0.7139
16285TIP3    H170346   1.736   1.529  15.301  0.4796 -1.8214 -1.2011
16285TIP3    H270347   1.659   1.540  15.171 -0.5468 -0.0108 -0.4747
16286TIP3   OH270348   1.929   3.477  14.849 -0.0299 -0.3510  0.2345
16286TIP3    H170349   1.978   3.452  14.928  0.9757  0.6591 -0.0420
16286TIP3    H270350   1.888   3.560  14.871 -0.5718 -0.5590  0.0229
16287TIP3   OH270351   6.451   6.744   4.331 -0.0968  0.2422  0.5420
16287TIP3    H170352   6.452   6.801   4.254 -0.0221 -0.4283  0.0319
16287TIP3    H270353   6.541   6.711   4.337  0.1280  0.9618  1.4451
16288TIP3   OH270354   2.353   4.014  11.046 -0.6695  0.6456 -0.1098
16288TIP3    H170355   2.446   4.015  11.070 -0.9264  0.7661  0.9183
16288TIP3    H270356   2.350   3.969  10.962  0.2191 -0.1695  0.2821
16289TIP3   OH270357   2.508   0.436   5.193 -0.1077  0.4015 -0.3205
16289TIP3    H170358   2.559   0.476   5.263 -1.4918  0.5066  0.6780
16289TIP3    H270359   2.491   0.347   5.223  0.4172  0.0008 -1.1617
16290TIP3   OH270360   0.682   1.174   5.037 -0.1985 -0.4910 -0.4004
16290TIP3    H170361   0.683   1.162   4.942 -0.8128 -1.3936 -0.2987
16290TIP3    H270362   0.738   1.251   5.052 -0.1469 -0.3041 -1.4910
16291TIP3   OH270363   1.306   6.264  15.093  0.4307 -0.3186 -0.0818
16291TIP3    H170364   1.341   6.349  15.065  0.0049 -0.7465 -2.1214
16291TIP3    H270365   1.381   6.219  15.131  1.4962 -0.1866 -1.8716
16292TIP3   OH270366   6.718   0.125   0.424  0.3084  0.0398  0.5447
16292TIP3    H170367   6.695   0.135   0.332  0.2907 -0.4061  0.4942
16292TIP3    H270368   6.799   0.074   0.422 -0.3287 -1.0318  0.7955
16293TIP3   OH270369   5.291   1.811   0.238  0.2417  0.3312  0.2604
16293TIP3    H170370   5.321   1.760   0.313 -0.4307 -0.4126  0.0415
16293TIP3    H270371   5.250   1.747   0.180 -0.7726  1.1315  0.0505
16294TIP3   OH270372   0.928   2.658  15.635  0.1485  1.0696  0.1040
16294TIP3    H170373   0.857   2.636  15.575 -0.4289  0.3461  1.0292
16294TIP3    H270374   0.977   2.727  15.590 -0.7315  1.0961 -0.8460
16295TIP3   OH270375   4.973   6.100   4.374 -0.1104  0.5075  0.1944
16295TIP3    H170376   5.052   6.153   4.376 -0.8531  1.6832 -0.3561
16295TIP3    H270377   4.911   6.147   4.430 -0.0970 -0.9861  1.5336
16296TIP3   OH270378   0.962   0.330   1.321 -0.5694 -0.3190 -0.3544
16296TIP3    H170379   0.990   0.354   1.410 -0.8951  1.1982 -0.6413
16296TIP3    H270380   1.035   0.356   1.265 -1.0518  0.2875 -0.7115
16297TIP3   OH270381   1.272   3.707  15.202 -0.2866  0.7815 -0.2949
16297TIP3    H170382   1.292   3.631  15.149 -0.3709  0.7592 -0.2948
16297TIP3    H270383   1.200   3.750  15.156 -1.2449  0.0579  0.4813
16298TIP3   OH270384   2.798   5.304  15.675  0.4498  0.0600 -0.4208
16298TIP3    H170385   2.734   5.254  15.727  0.0018 -0.4411 -1.4221
16298TIP3    H270386   2.828   5.242  15.609  0.1704  1.0055 -1.4601
16299TIP3   OH270387   1.034   0.947  10.329  0.7667 -0.5847  0.1399
16299TIP3    H170388   1.099   1.017  10.329  0.0149  0.2194 -2.3824
16299TIP3    H270389   0.990   0.956  10.414  1.5878  1.1503  0.4322
16300TIP3   OH270390   3.874   4.184  14.594 -0.1569 -0.1287 -0.0475
16300TIP3    H170391   3.829   4.105  14.623 -0.4020 -0.0143 -0.1046
16300TIP3    H270392   3.943   4.198  14.658  0.5468 -0.9648 -0.6118
16301TIP3   OH270393   1.216   4.406   0.884  0.1675 -0.6000  0.5617
16301TIP3    H170394   1.130   4.383   0.920 -0.2837  0.0903 -0.0539
16301TIP3    H270395   1.228   4.498   0.909  0.7401 -0.6967  0.6586
16302TIP3   OH270396   6.473   5.927   2.664 -0.5694  0.2464  0.1974
16302TIP3    H170397   6.450   5.881   2.744  0.5085 -0.0007  0.3763
16302TIP3    H270398   6.402   5.907   2.603  0.2836 -2.4191 -0.0469
16303TIP3   OH270399   2.111   1.104  12.298  0.0020  0.1927 -0.2933
16303TIP3    H170400   2.034   1.117  12.243 -0.6860 -0.8749  0.3849
16303TIP3    H270401   2.115   1.010  12.313  1.0546  0.3046  0.2447
16304TIP3   OH270402   3.878   5.065   3.958  0.4534 -0.1246  0.2633
16304TIP3    H170403   3.849   4.980   3.924  1.8073 -0.3705 -0.3129
16304TIP3    H270404   3.804   5.096   4.010 -0.6951 -0.9037 -0.8430
16305TIP3   OH270405   3.886   1.688   4.361  0.4760 -0.2117 -0.4022
16305TIP3    H170406   3.827   1.763   4.352  0.3205 -0.3994 -1.0051
16305TIP3    H270407   3.925   1.698   4.448 -1.9184 -1.1208  0.8682
16306TIP3   OH270408   2.409   1.455   0.121 -0.0371  0.0923  0.1760
16306TIP3    H170409   2.502   1.435   0.107  0.0167  0.3021  0.2260
16306TIP3    H270410   2.366   1.424   0.041 -0.0868 -1.0621  0.6374
16307TIP3   OH270411   6.658   0.782   2.023  0.4087 -0.2273  0.0830
16307TIP3    H170412   6.656   0.760   1.930  0.7954  1.1494 -0.2742
16307TIP3    H270413   6.572   0.820   2.041  0.0647 -1.1501  0.4858
16308TIP3   OH270414   6.645   5.519  12.288 -0.6086  0.4727 -0.4924
16308TIP3    H170415   6.574   5.531  12.225 -1.6465  1.6412  0.8333
16308TIP3    H270416   6.615   5.447  12.344 -0.0693 -0.0059 -0.8088
16309TIP3   OH270417   6.490   2.777  15.759 -0.5125 -0.5033  0.2046
16309TIP3    H170418   6.568   2.728  15.787 -0.1220 -0.3634 -0.5972
16309TIP3    H270419   6.470   2.835  15.832  1.4655  1.0527 -0.3957
16310TIP3   OH270420   4.658   1.550  12.459  0.4634 -0.2583  0.4541
16310TIP3    H170421   4.711   1.513  12.528  4.1604  0.4180 -1.7444
16310TIP3    H270422   4.675   1.644  12.463  1.7070 -0.2980 -1.9331
16311TIP3   OH270423   2.450   6.827  14.743 -0.6588  0.1966 -0.0609
16311TIP3    H170424   2.412   6.773  14.675  0.4472 -0.0540 -0.4979
16311TIP3    H270425   2.378   6.884  14.771 -1.3182 -0.1866 -0.9187
16312TIP3   OH270426   2.043   5.676   5.392  0.1907  0.1369 -0.3369
16312TIP3    H170427   2.011   5.652   5.479  0.0309 -1.3178 -0.7698
16312TIP3    H270428   2.137   5.689   5.403  0.6966 -2.8121 -0.4295
16313TIP3   OH270429   6.087   0.182   4.150  0.2509 -0.3964  0.2469
16313TIP3    H170430   6.057   0.154   4.064  1.2532  1.0487 -0.6156
16313TIP3    H270431   6.018   0.155   4.210 -0.9565 -0.5104 -1.1524
16314TIP3   OH270432   1.743   5.920  16.582  0.3636  0.4895 -0.4885
16314TIP3    H170433   1.822   5.956  16.541  0.9304 -0.8177 -0.6265
16314TIP3    H270434   1.673   5.939  16.521  0.7420  0.8462 -0.8187
16315TIP3   OH270435   5.989   1.465  16.847  0.1295 -0.3011 -0.5503
16315TIP3    H170436   5.947   1.501  16.925  2.1096 -2.3818  1.6152
16315TIP3    H270437   6.040   1.538  16.812 -0.1411  0.4515  0.5742
16316TIP3   OH270438   6.266   0.636   0.161  0.1201 -0.0449 -0.1022
16316TIP3    H170439   6.331   0.572   0.191 -0.3877 -0.8094 -0.5949
16316TIP3    H270440   6.313   0.691   0.099  0.1206 -1.0868 -1.0609
16317TIP3   OH270441   0.633   1.463   5.282 -0.5957 -0.5393 -0.3603
16317TIP3    H170442   0.583   1.382   5.274 -2.1581  0.2842  0.4486
16317TIP3    H270443   0.680   1.454   5.365 -2.0045 -0.0235  0.5312
16318TIP3   OH270444   4.913   3.978   1.692 -0.5355  0.0039  0.2552
16318TIP3    H170445   4.957   4.062   1.687 -1.0887  0.2448 -0.8211
16318TIP3    H270446   4.870   3.978   1.777  0.1602  0.4504  0.6114
16319TIP3   OH270447   0.241   1.444  14.990 -0.4055  0.5889  0.2125
16319TIP3    H170448   0.281   1.380  14.931  0.4336 -0.2863  1.6822
16319TIP3    H270449   0.177   1.394  15.040 -0.4251  1.1116  0.7152
16320TIP3   OH270450   5.190   4.550  12.751  0.2003 -0.3354 -0.0964
16320TIP3    H170451   5.177   4.466  12.708  2.3218 -0.5227 -0.4767
16320TIP3    H270452   5.219   4.527  12.839 -0.1688  0.0177  0.1192
16321TIP3   OH270453   0.665   4.810  11.446 -0.0404  0.3604 -0.0989
16321TIP3    H170454   0.715   4.762  11.511 -0.9841 -0.1079  0.2937
16321TIP3    H270455   0.609   4.868  11.497 -2.6378 -1.7963 -0.3334
16322TIP3   OH270456   0.474   5.098   0.902  0.1493 -0.8250 -0.1143
16322TIP3    H170457   0.499   5.114   0.811 -0.0555  0.9148  0.1153
16322TIP3    H270458   0.508   5.173   0.950  0.8870 -2.0643  1.3919
16323TIP3   OH270459   2.122   2.640  13.500 -0.4185 -0.0493  0.5662
16323TIP3    H170460   2.129   2.554  13.459 -1.6478  0.5517 -1.0045
16323TIP3    H270461   2.182   2.696  13.450 -1.0136  0.4231  0.3729
16324TIP3   OH270462   3.916   1.384   3.244  0.2922 -0.0064  0.4725
16324TIP3    H170463   3.890   1.295   3.267  0.3705 -0.5007 -1.2026
16324TIP3    H270464   3.898   1.436   3.322 -2.0097 -1.0469  0.7101
16325TIP3   OH270465   4.933   4.194   4.828  0.2761 -0.5097 -0.1540
16325TIP3    H170466   4.918   4.232   4.914 -0.1045  0.6832 -0.7223
16325TIP3    H270467   4.981   4.261   4.780  1.4800 -1.6056 -0.5346
16326TIP3   OH270468   6.340   5.473   5.615  0.4573 -0.0044  0.4151
16326TIP3    H170469   6.312   5.485   5.706 -1.8522 -0.9114 -0.1091
16326TIP3    H270470   6.365   5.381   5.610 -1.0155 -0.4053 -0.2011
16327TIP3   OH270471   0.143   4.026   1.336  0.0515  0.0793 -0.0125
16327TIP3    H170472   0.082   3.984   1.275 -1.3124  1.9285 -0.0137
16327TIP3    H270473   0.116   3.996   1.422 -0.7957  0.7723 -0.0246
16328TIP3   OH270474   3.033   2.226   0.578 -0.0337  0.2380  0.0059
16328TIP3    H170475   3.014   2.316   0.606  0.7530  0.4802 -0.2122
16328TIP3    H270476   2.991   2.218   0.493  0.3130  0.5601 -0.1949
16329TIP3   OH270477   1.770   3.730  14.509 -0.1529 -0.1623  0.1364
16329TIP3    H170478   1.741   3.731  14.417 -0.2404  0.2155  0.1692
16329TIP3    H270479   1.696   3.765  14.558 -0.2246 -0.6507  0.3915
16330TIP3   OH270480   2.180   4.500  15.102 -0.2822 -0.0710  0.1082
16330TIP3    H170481   2.110   4.436  15.086 -0.8464  0.3956  0.6429
16330TIP3    H270482   2.220   4.513  15.016  0.8143 -2.2226  0.2344
16331TIP3   OH270483   5.703   4.537  10.985  0.0230 -0.7475  0.5063
16331TIP3    H170484   5.751   4.547  11.067  2.3719 -0.7638 -0.7802
16331TIP3    H270485   5.708   4.443  10.966  0.6275 -0.5616 -0.2833
16332TIP3   OH270486   6.121   6.297   0.957  0.2720 -0.2013 -0.1734
16332TIP3    H170487   6.044   6.249   0.988  0.0375 -0.9461 -1.8393
16332TIP3    H270488   6.115   6.294   0.862  1.5388  1.0958 -0.3335
16333TIP3   OH270489   0.873   5.839   3.609 -0.1092  0.4372 -0.1081
16333TIP3    H170490   0.896   5.853   3.701  0.3032  2.0432 -0.4213
16333TIP3    H270491   0.883   5.745   3.595  0.7327  0.3051  1.2553
16334TIP3   OH270492   6.839   0.569  16.469 -0.8210  0.0911 -0.2590
16334TIP3    H170493   6.757   0.580  16.518 -0.5168  2.2352 -0.1134
16334TIP3    H270494   6.812   0.537  16.383 -1.5329 -1.8931  0.6543
16335TIP3   OH270495   0.817   6.147  12.189 -0.6323 -0.5544 -0.4777
16335TIP3    H170496   0.838   6.108  12.104 -0.6525 -2.3133  0.2823
16335TIP3    H270497   0.837   6.079  12.252 -2.0526  0.1758  0.8248
16336TIP3   OH270498   5.051   0.610  12.733 -0.2625 -0.2408 -0.0568
16336TIP3    H170499   4.985   0.563  12.784 -2.2470  0.9358 -1.3739
16336TIP3    H270500   5.035   0.583  12.643  2.3574 -1.3411 -0.2551
16337TIP3   OH270501   5.270   5.407  15.390 -0.1316 -0.0821 -0.5542
16337TIP3    H170502   5.180   5.432  15.410 -0.1990 -0.2176 -0.6840
16337TIP3    H270503   5.283   5.434  15.299  0.1003  0.3313 -0.3976
16338TIP3   OH270504   3.062   4.111  13.514 -0.2285  0.6770  0.1262
16338TIP3    H170505   3.086   4.042  13.575 -0.1672 -0.0813 -0.7344
16338TIP3    H270506   3.124   4.182  13.533  1.4739 -0.5053 -0.7443
16339TIP3   OH270507   6.326   3.469   0.226 -0.3709  0.0030 -0.2512
16339TIP3    H170508   6.348   3.555   0.191 -1.5954  0.8041  0.8603
16339TIP3    H270509   6.395   3.451   0.290  0.0209  0.0399 -0.6586
16340TIP3   OH270510   0.596   5.742   1.552  0.8014 -0.2778 -0.0545
16340TIP3    H170511   0.636   5.817   1.596  2.7837 -0.2363 -1.8082
16340TIP3    H270512   0.580   5.771   1.463 -2.4934 -0.5947  0.3016
16341TIP3   OH270513   0.406   5.172  13.792 -0.8372  0.2027  0.0944
16341TIP3    H170514   0.336   5.236  13.782 -0.1390  0.6389 -3.3096
16341TIP3    H270515   0.458   5.181  13.712  1.4603 -2.0789  1.1838
16342TIP3   OH270516   2.553   5.393   3.265 -0.1761 -0.2732 -0.0519
16342TIP3    H170517   2.634   5.378   3.313 -0.8747  0.7456  1.5473
16342TIP3    H270518   2.549   5.322   3.201  0.6381 -1.9608  1.6576
16343TIP3   OH270519   5.138   6.554   6.315 -1.0835  0.0096 -0.5747
16343TIP3    H170520   5.205   6.621   6.299 -0.9346 -0.1821 -0.7693
16343TIP3    H270521   5.173   6.476   6.272 -0.2973 -0.7533  1.3631
16344TIP3   OH270522   5.599   3.637   0.981 -0.3192 -0.2769  0.3952
16344TIP3    H170523   5.598   3.651   1.075 -0.2212  0.7531  0.2578
16344TIP3    H270524   5.511   3.660   0.951  0.3629  1.9937 -0.0733
16345TIP3   OH270525   3.390   5.271  14.424  0.2778  0.0317  0.6074
16345TIP3    H170526   3.414   5.236  14.510  1.7002  1.8629  1.0186
16345TIP3    H270527   3.294   5.277  14.426  0.1974 -1.1432  1.5516
16346TIP3   OH270528   5.875   2.023   3.273 -0.2275  0.7773 -0.0447
16346TIP3    H170529   5.937   2.092   3.250  1.1989 -0.1121  0.9819
16346TIP3    H270530   5.869   2.027   3.368 -1.7059  0.7871 -0.1187
16347TIP3   OH270531   4.630   5.759   5.797  0.2294  0.3146  0.0425
16347TIP3    H170532   4.539   5.783   5.816 -0.5987 -1.2680 -1.5650
16347TIP3    H270533   4.623   5.676   5.750  2.5091  0.2788 -0.3383
16348TIP3   OH270534   5.766   0.419   0.724  0.2688 -0.0228  0.2040
16348TIP3    H170535   5.756   0.437   0.630  1.6015 -0.7735 -0.1157
16348TIP3    H270536   5.677   0.413   0.757 -0.2586 -1.0512 -1.3011
16349TIP3   OH270537   1.677   3.116   1.149 -0.0783  0.1422  0.1290
16349TIP3    H170538   1.658   3.202   1.112  1.8972  1.8862  2.8352
16349TIP3    H270539   1.753   3.085   1.099 -0.9201 -0.1788 -0.9915
16350TIP3   OH270540   4.026   3.692   5.301  0.3016  0.2660  0.1376
16350TIP3    H170541   4.028   3.649   5.215  1.1958 -0.5180  0.5378
16350TIP3    H270542   3.944   3.741   5.301  0.1537  0.0435 -1.0538
16351TIP3   OH270543   2.862   2.829  10.556  0.4342  0.7126 -0.0462
16351TIP3    H170544   2.795   2.804  10.621  0.0684  0.1069 -0.6408
16351TIP3    H270545   2.812   2.864  10.482  0.6893 -0.5797 -0.8660
16352TIP3   OH270546   6.180   1.285  12.618  0.0112 -0.6919  0.0128
16352TIP3    H170547   6.143   1.373  12.625  0.9919 -0.2901  0.2646
16352TIP3    H270548   6.105   1.227  12.626 -0.6748  0.1237 -0.3212
16353TIP3   OH270549   6.443   0.199  16.418 -0.6979 -0.1004 -0.0894
16353TIP3    H170550   6.433   0.104  16.420 -0.2192 -0.1402  0.6897
16353TIP3    H270551   6.526   0.216  16.462  0.0910  0.5723 -1.7515
16354TIP3   OH270552   4.524   6.507   0.706  0.6870 -0.2632  0.3940
16354TIP3    H170553   4.565   6.587   0.673  0.8269 -1.1418 -1.7326
16354TIP3    H270554   4.431   6.517   0.684  0.7302 -0.7416 -0.0140
16355TIP3   OH270555   6.117   3.468   4.318  0.0875 -0.7890  0.4238
16355TIP3    H170556   6.169   3.436   4.392 -1.2966 -2.0185  0.9344
16355TIP3    H270557   6.168   3.539   4.281  1.6306 -1.2786  1.5114
16356TIP3   OH270558   3.295   3.369  13.217  0.0290  0.1815  0.1691
16356TIP3    H170559   3.246   3.403  13.291 -0.1868  0.5409 -0.1368
16356TIP3    H270560   3.344   3.444  13.184 -0.6637  0.2698 -0.6860
16357TIP3   OH270561   0.211   1.963   5.484  0.2558  0.1987 -0.2812
16357TIP3    H170562   0.246   1.884   5.443  0.6591  1.7076 -3.0962
16357TIP3    H270563   0.288   2.011   5.514 -0.0041 -0.5536  1.7944
16358TIP3   OH270564   2.017   5.187   1.046  0.1239 -0.4238 -0.2312
16358TIP3    H170565   1.956   5.253   1.080  0.6464 -0.7737  1.5236
16358TIP3    H270566   2.063   5.230   0.974  1.7807  1.8462  2.0034
16359TIP3   OH270567   3.102   4.972  17.105  0.1511 -0.7133 -0.3898
16359TIP3    H170568   3.130   5.002  17.018  0.0656 -1.6240 -0.7427
16359TIP3    H270569   3.183   4.969  17.155  0.0192  1.1710  0.0095
16360TIP3   OH270570   6.023   4.835  10.664  0.1023  0.0398 -0.2724
16360TIP3    H170571   6.074   4.767  10.620 -0.3918 -0.6009  0.1204
16360TIP3    H270572   5.945   4.846  10.609  0.4535  0.7293 -0.6553
16361TIP3   OH270573   3.257   6.302   0.319  0.1870 -0.0712 -0.1634
16361TIP3    H170574   3.273   6.293   0.225  0.5975  0.5933 -0.1629
16361TIP3    H270575   3.329   6.357   0.351  0.4306 -0.8415  0.6640
16362TIP3   OH270576   5.674   4.196   2.304  0.1197 -0.3334 -0.5653
16362TIP3    H170577   5.715   4.282   2.296  2.6636 -1.5540 -1.9759
16362TIP3    H270578   5.682   4.175   2.397 -1.9750  1.5108  0.1246
16363TIP3   OH270579   1.118   5.398   0.582 -0.1625  0.4860 -0.0039
16363TIP3    H170580   1.142   5.308   0.602  0.0864  0.7929  1.1305
16363TIP3    H270581   1.094   5.436   0.666 -0.2789  1.4769 -0.4688
16364TIP3   OH270582   2.270   0.098  14.949  0.2348  0.3093 -0.0926
16364TIP3    H170583   2.184   0.060  14.932  0.4423  0.2613 -1.1133
16364TIP3    H270584   2.284   0.086  15.043 -1.1919  0.9859  0.2275
16365TIP3   OH270585   6.420   6.273   0.408  0.3495  0.0870  0.3764
16365TIP3    H170586   6.449   6.294   0.319 -0.4874  1.8460  0.4625
16365TIP3    H270587   6.484   6.209   0.440  0.1460 -1.2775 -1.7838
16366TIP3   OH270588   0.545   2.428   5.097  0.1507  0.4348 -0.0704
16366TIP3    H170589   0.618   2.489   5.108 -1.9053  2.9797  0.2743
16366TIP3    H270590   0.542   2.412   5.002  0.4442  1.2183 -0.2172
16367TIP3   OH270591   6.490   3.655   0.056 -0.1059 -0.5364 -1.0595
16367TIP3    H170592   6.545   3.727   0.085 -0.3445 -0.5281 -0.6185
16367TIP3    H270593   6.538   3.617  -0.018 -0.6781  0.9764 -2.2584
16368TIP3   OH270594   3.118   5.634   1.443 -0.3745  0.3065 -0.2945
16368TIP3    H170595   3.179   5.564   1.420 -0.0248  0.0976  1.1784
16368TIP3    H270596   3.132   5.700   1.376  1.2399  0.1175 -0.1884
16369TIP3   OH270597   3.718   2.077   1.533  0.5647  0.2023 -0.2429
16369TIP3    H170598   3.722   1.982   1.540  0.9590  0.2220 -0.1323
16369TIP3    H270599   3.634   2.101   1.572  0.9824 -0.0082  0.8335
16370TIP3   OH270600   1.611   5.591   1.073  0.1185 -0.3014  0.2458
16370TIP3    H170601   1.644   5.673   1.110  0.0372 -0.2962  0.3074
16370TIP3    H270602   1.544   5.562   1.135 -1.2248  0.5808 -0.7453
16371TIP3   OH270603   1.054   0.241  12.726  0.0634 -0.1991  0.0862
16371TIP3    H170604   1.132   0.224  12.674  0.3128  1.1118  0.0008
16371TIP3    H270605   1.085   0.246  12.816 -0.1775 -1.1965  0.2442
16372TIP3   OH270606   4.237   4.238  14.319  0.1511 -0.0854  0.0452
16372TIP3    H170607   4.268   4.315  14.272  1.4260 -0.7121 -0.1792
16372TIP3    H270608   4.146   4.257  14.339  0.6667  1.8548  0.7489
16373TIP3   OH270609   2.336   5.562  14.754 -0.3719 -0.9114 -0.3101
16373TIP3    H170610   2.392   5.565  14.677 -0.2097 -0.6340 -0.1810
16373TIP3    H270611   2.303   5.472  14.756  0.7685 -1.3307  0.1238
16374TIP3   OH270612   4.366   4.469  13.061 -0.4707  0.1860  0.3369
16374TIP3    H170613   4.283   4.501  13.026  0.0022  1.2932  0.1874
16374TIP3    H270614   4.424   4.546  13.061  1.0111 -0.8788 -0.8962
16375TIP3   OH270615   5.108   2.213  13.687  0.3712 -0.0478 -0.1614
16375TIP3    H170616   5.131   2.298  13.649  2.5942 -0.6237 -0.2380
16375TIP3    H270617   5.016   2.200  13.663  0.4243  1.6388 -1.4521
16376TIP3   OH270618   2.044   0.556   4.416 -0.2357 -0.0901  0.5057
16376TIP3    H170619   2.108   0.492   4.384  0.4694  0.4943  0.7288
16376TIP3    H270620   1.998   0.586   4.337  1.9104  1.8094 -0.1400
16377TIP3   OH270621   4.638   5.334   2.236  0.1462  0.0648  0.7951
16377TIP3    H170622   4.656   5.379   2.319 -1.5176 -1.7413  2.2251
16377TIP3    H270623   4.574   5.391   2.192  1.5646  1.3948  0.3218
16378TIP3   OH270624   0.897   2.993  16.288  0.2984  0.0468 -0.1480
16378TIP3    H170625   0.951   3.053  16.238 -1.5786  1.1106 -1.0108
16378TIP3    H270626   0.861   3.046  16.359 -1.9128  0.2049 -1.3080
16379TIP3   OH270627   5.845   6.523   0.944  0.3175 -0.1575  0.3177
16379TIP3    H170628   5.844   6.611   0.906  1.2071 -0.1241  0.3534
16379TIP3    H270629   5.765   6.519   0.996 -0.7379 -0.0654 -1.2170
16380TIP3   OH270630   5.718   6.771   5.107 -0.8742 -0.1631  0.1137
16380TIP3    H170631   5.741   6.855   5.067 -0.5517 -0.3190 -0.0232
16380TIP3    H270632   5.762   6.705   5.053 -0.5300 -0.3789  0.6545
16381TIP3   OH270633   4.115   6.418  12.143  0.1043 -0.2056  0.4642
16381TIP3    H170634   4.132   6.363  12.219 -1.1917  0.9583  1.6592
16381TIP3    H270635   4.071   6.360  12.080  0.8280 -1.0790  0.7377
16382TIP3   OH270636   1.567   5.053   3.183  0.3862  0.4110 -0.4382
16382TIP3    H170637   1.591   5.097   3.265 -0.2631 -0.4473  0.2329
16382TIP3    H270638   1.616   4.970   3.186  0.9969  0.7260 -1.3187
16383TIP3   OH270639   4.637   4.155  16.918 -0.1104  0.6072 -0.5556
16383TIP3    H170640   4.594   4.070  16.912 -0.1324  0.4010  1.7587
16383TIP3    H270641   4.598   4.206  16.847 -1.7848 -0.6013 -0.5765
16384TIP3   OH270642   2.968   4.175   0.392  0.7302  1.1951  0.6526
16384TIP3    H170643   3.002   4.250   0.342  1.6529 -0.1352 -0.8393
16384TIP3    H270644   3.017   4.100   0.358 -1.2470 -0.3308  0.9454
16385TIP3   OH270645   4.110   2.435   1.894  0.1476 -0.6500 -0.0404
16385TIP3    H170646   4.170   2.361   1.898  0.5101 -0.3248  1.2522
16385TIP3    H270647   4.062   2.431   1.977  0.0004  0.3983 -0.0625
16386TIP3   OH270648   2.498   3.758   4.316 -0.4965 -0.4999  0.2721
16386TIP3    H170649   2.509   3.825   4.384  0.0907  0.7031 -0.9456
16386TIP3    H270650   2.416   3.714   4.338 -0.4238 -0.0085  1.6262
16387TIP3   OH270651   3.115   3.827  10.466 -0.1408 -0.3529  0.0814
16387TIP3    H170652   3.029   3.866  10.481 -0.4376 -0.2917 -1.6227
16387TIP3    H270653   3.109   3.739  10.504 -0.8815 -0.2720  0.1583
16388TIP3   OH270654   1.881   0.304  15.117 -0.9129  0.5863 -0.1938
16388TIP3    H170655   1.799   0.337  15.079 -0.8620  2.2032  0.9945
16388TIP3    H270656   1.948   0.358  15.076 -0.6102  0.4485  0.1223
16389TIP3   OH270657   0.006   2.123  16.386 -0.1127 -0.6418 -0.2481
16389TIP3    H170658  -0.073   2.101  16.436  0.5128  0.1982  1.1837
16389TIP3    H270659  -0.027   2.168  16.308 -1.0517  1.6866  1.3575
16390TIP3   OH270660   4.111   4.607   2.550  0.2674 -0.1189 -0.4884
16390TIP3    H170661   4.072   4.689   2.580 -1.0463 -0.7550 -0.3979
16390TIP3    H270662   4.201   4.630   2.527  0.0404  1.2543 -0.0710
16391TIP3   OH270663   0.881   1.241   3.999 -0.2364 -0.1953 -0.1429
16391TIP3    H170664   0.871   1.283   3.914 -0.1518 -1.1152 -0.6215
16391TIP3    H270665   0.793   1.210   4.021 -0.5806  1.3981  0.8507
16392TIP3   OH270666   1.280   5.489  11.761  0.2664  0.1290  0.4421
16392TIP3    H170667   1.232   5.417  11.801 -0.4453  0.2303 -0.1962
16392TIP3    H270668   1.372   5.466  11.770  0.0697 -0.4429  1.0038
16393TIP3   OH270669   3.896   5.778  15.950  0.0434  0.0797 -0.0949
16393TIP3    H170670   3.802   5.760  15.941 -0.2826  0.2434  2.3503
16393TIP3    H270671   3.902   5.838  16.025  2.1478 -0.5402  0.2981
16394TIP3   OH270672   3.498   2.313   5.467  0.2938 -0.3638  0.0550
16394TIP3    H170673   3.458   2.337   5.550 -1.0133 -0.8511 -0.4064
16394TIP3    H270674   3.537   2.395   5.435  0.1004  0.0139  0.7637
16395TIP3   OH270675   4.138   4.800  15.584  0.6351  0.0440 -0.0891
16395TIP3    H170676   4.090   4.815  15.665 -0.1149  0.3354 -0.5751
16395TIP3    H270677   4.164   4.708  15.589  2.0012  0.4613  1.1978
16396TIP3   OH270678   6.231   4.883  14.034 -0.7653  0.0302 -0.3770
16396TIP3    H170679   6.206   4.973  14.012 -3.4740 -0.8637 -1.2815
16396TIP3    H270680   6.182   4.863  14.113  0.1165 -0.5633  0.0398
16397TIP3   OH270681   0.586   1.240  10.516 -0.1412 -0.3989 -0.0558
16397TIP3    H170682   0.599   1.202  10.429  0.2197 -2.2351  0.7754
16397TIP3    H270683   0.539   1.322  10.498 -0.8863 -1.1561 -1.9154
16398TIP3   OH270684   4.152   4.316  14.026 -0.2828 -0.4826 -0.3259
16398TIP3    H170685   4.096   4.369  13.969 -1.9851 -1.3188  0.4677
16398TIP3    H270686   4.201   4.379  14.078 -2.2330  0.3974  0.5665
16399TIP3   OH270687   4.487   4.314   1.518  0.0470  0.0076  0.0534
16399TIP3    H170688   4.514   4.262   1.442 -0.0456  1.1162 -0.7602
16399TIP3    H270689   4.546   4.286   1.588  0.4069 -0.7386 -0.5310
16400TIP3   OH270690   1.062   1.193   6.114 -0.1284  0.1910  0.0930
16400TIP3    H170691   1.080   1.148   6.197  0.1214 -1.4107 -0.7992
16400TIP3    H270692   0.997   1.260   6.137 -0.8887 -0.9407  1.3739
16401TIP3   OH270693   0.784   3.445   5.321 -0.1133  0.0360 -0.7666
16401TIP3    H170694   0.857   3.463   5.261  2.1212 -2.1622  1.0826
16401TIP3    H270695   0.823   3.393   5.391 -2.3382  3.0138  3.0940
16402TIP3   OH270696   6.219   3.564  11.966 -0.0485  0.0736  0.5055
16402TIP3    H170697   6.124   3.569  11.974 -0.0426  2.1088  0.0454
16402TIP3    H270698   6.252   3.606  12.045  0.4513 -0.0081  0.3470
16403TIP3   OH270699   0.466   1.812   1.125 -0.0895 -0.0458  0.0179
16403TIP3    H170700   0.537   1.764   1.169 -1.0372  0.5774  2.4012
16403TIP3    H270701   0.511   1.881   1.077  0.9460  0.9508  2.2661
16404TIP3   OH270702   2.951   1.782  16.022  0.1017 -0.3084  0.1034
16404TIP3    H170703   3.025   1.724  16.007  0.0932 -0.1370 -0.6651
16404TIP3    H270704   2.966   1.820  16.108 -0.0849 -1.7234  0.7885
16405TIP3   OH270705   3.182   3.352  15.658 -0.0361 -0.1210 -0.3334
16405TIP3    H170706   3.234   3.431  15.676 -0.1259 -0.4179  1.3968
16405TIP3    H270707   3.199   3.333  15.566  0.4834  1.5526 -0.6328
16406TIP3   OH270708   6.704   2.563  13.093  0.2615 -0.2829  0.1116
16406TIP3    H170709   6.733   2.553  13.002  0.6355  1.2444  0.0476
16406TIP3    H270710   6.685   2.473  13.121  1.9876 -1.0002 -0.8518
16407TIP3   OH270711   2.243   2.533   0.161 -0.6144  0.1543 -0.3531
16407TIP3    H170712   2.178   2.506   0.096 -0.7734 -0.0522 -0.1068
16407TIP3    H270713   2.300   2.595   0.113 -0.5189 -0.2641 -0.7871
16408TIP3   OH270714   2.407   6.502  13.756 -0.1125  0.5487 -0.3157
16408TIP3    H170715   2.483   6.503  13.814 -0.2183 -0.8933 -0.1111
16408TIP3    H270716   2.370   6.590  13.764  0.3564  0.6455  1.1733
16409TIP3   OH270717   0.241   4.964   5.286 -0.1387 -0.3345  0.0564
16409TIP3    H170718   0.222   5.039   5.343  0.8503  0.6079 -0.8075
16409TIP3    H270719   0.295   4.907   5.340  3.4909  2.0015 -0.7427
16410TIP3   OH270720   5.514   1.899   4.207  0.3157  0.4858 -0.3596
16410TIP3    H170721   5.470   1.943   4.135 -1.2503 -0.7232 -0.1852
16410TIP3    H270722   5.445   1.882   4.272  1.2569 -0.4011  0.4586
16411TIP3   OH270723   0.901   1.069   0.900 -0.6802  0.5206 -0.4493
16411TIP3    H170724   0.959   1.142   0.878  0.8900 -0.6240 -0.2059
16411TIP3    H270725   0.930   0.997   0.845 -0.2636 -0.7795  1.3699
16412TIP3   OH270726   6.607   5.728   1.654  0.1287 -0.0441  0.0112
16412TIP3    H170727   6.596   5.739   1.749 -0.2760 -1.0889  0.0948
16412TIP3    H270728   6.689   5.774   1.634  1.1107 -1.2201  1.1444
16413TIP3   OH270729   3.198   6.437  12.302  0.8710 -0.0898  0.5509
16413TIP3    H170730   3.252   6.512  12.278 -0.5223  1.5442  2.1401
16413TIP3    H270731   3.169   6.400  12.219  0.1352  2.2925 -0.3489
16414TIP3   OH270732   0.585   2.307  13.800  0.0337 -0.3387 -0.3265
16414TIP3    H170733   0.499   2.347  13.816 -0.3561 -1.5147  0.7432
16414TIP3    H270734   0.644   2.351  13.861 -0.0750 -0.3381 -0.2206
16415TIP3   OH270735   4.213   4.357  11.102  0.5359 -0.4658  0.5333
16415TIP3    H170736   4.239   4.398  11.019 -0.4641  1.2273  1.0108
16415TIP3    H270737   4.127   4.395  11.122  0.4117 -1.4171  1.9709
16416TIP3   OH270738   6.147   2.424   2.452 -0.5835 -0.4471 -0.1385
16416TIP3    H170739   6.063   2.467   2.434 -1.1138 -0.7367  1.4757
16416TIP3    H270740   6.197   2.488   2.503 -0.5931 -0.9823  0.5580
16417TIP3   OH270741   3.177   4.695  15.876 -0.3174  0.4928 -0.6529
16417TIP3    H170742   3.083   4.711  15.867  0.0157  1.7928 -2.0716
16417TIP3    H270743   3.215   4.726  15.795  1.2309 -1.2174 -0.6451
16418TIP3   OH270744   0.931   1.164   3.278  0.4558 -0.6387  0.0627
16418TIP3    H170745   0.866   1.107   3.321  0.5000 -1.2574 -0.6654
16418TIP3    H270746   1.005   1.106   3.261  0.6987 -0.2384 -0.2348
16419TIP3   OH270747   2.620   2.693   5.501 -0.3181 -0.5313  0.5320
16419TIP3    H170748   2.669   2.769   5.470 -0.8326 -0.0624  0.8477
16419TIP3    H270749   2.539   2.729   5.535 -1.6775 -1.4346 -1.5571
16420TIP3   OH270750   0.569   5.966  15.224  0.6230 -0.5397  0.5462
16420TIP3    H170751   0.634   6.027  15.189 -1.4181  1.3400 -0.2150
16420TIP3    H270752   0.566   5.986  15.318  0.3270  0.2161  0.3855
16421TIP3   OH270753   3.180   6.041   4.973 -0.0579 -0.0452  0.1610
16421TIP3    H170754   3.189   5.965   4.915 -1.8809 -1.9002  2.1476
16421TIP3    H270755   3.242   6.024   5.044  1.2923  1.6130 -0.5550
16422TIP3   OH270756   6.637   0.029  13.156  0.3873  0.1785  0.7219
16422TIP3    H170757   6.613   0.121  13.143  0.9108  0.1802 -0.3173
16422TIP3    H270758   6.562  -0.010  13.200 -1.2571  0.3396 -1.7725
16423TIP3   OH270759   2.080   1.179  15.377 -0.6494  0.4255 -0.2742
16423TIP3    H170760   2.027   1.099  15.383 -0.1140  0.1061  0.3421
16423TIP3    H270761   2.051   1.221  15.296  0.4235 -1.3691 -1.6481
16424TIP3   OH270762   0.710   1.241  16.609 -0.3465  0.5421  0.4905
16424TIP3    H170763   0.647   1.188  16.658 -0.3490 -0.4766 -0.5803
16424TIP3    H270764   0.692   1.222  16.517  0.6591  1.2515  0.1241
16425TIP3   OH270765   0.757   2.388  14.730  0.6951 -0.6352 -0.6810
16425TIP3    H170766   0.847   2.356  14.723  1.4155  1.2395 -0.5851
16425TIP3    H270767   0.756   2.440  14.811 -0.5295 -0.8175 -0.5676
16426TIP3   OH270768   0.902   5.203  11.473 -0.0561  0.3272  0.0982
16426TIP3    H170769   0.886   5.297  11.474  1.0895  0.5366  0.1363
16426TIP3    H270770   0.860   5.172  11.392  0.4458  1.0465 -0.4532
16427TIP3   OH270771   4.085   5.539  11.747 -1.0310 -0.3524  0.2693
16427TIP3    H170772   4.119   5.628  11.752  0.4245 -0.8511 -0.2766
16427TIP3    H270773   4.071   5.513  11.839 -0.3929  0.0478  0.4818
16428TIP3   OH270774   6.223   1.888  16.859 -0.2093  0.2267 -0.1837
16428TIP3    H170775   6.318   1.892  16.846 -0.2699  1.5426 -0.3517
16428TIP3    H270776   6.190   1.970  16.823 -1.1911  0.6928  1.6495
16429TIP3   OH270777   0.030   2.893  11.354 -0.7112  0.8867  0.6466
16429TIP3    H170778   0.105   2.948  11.377  0.7997 -1.0950  0.7013
16429TIP3    H270779  -0.003   2.930  11.271  4.0038 -1.4281 -2.7223
16430TIP3   OH270780   1.657   1.979  16.120  0.2892  0.5553 -0.4511
16430TIP3    H170781   1.637   2.065  16.157  0.3702  1.4956 -2.4538
16430TIP3    H270782   1.620   1.982  16.031  1.2611 -1.0594 -0.9539
16431TIP3   OH270783   0.211   3.405   3.572 -0.3342  0.2450  0.8852
16431TIP3    H170784   0.282   3.350   3.605  1.1291  0.1161 -2.1196
16431TIP3    H270785   0.255   3.479   3.531 -1.9024  0.4240 -0.6029
16432TIP3   OH270786   3.408   6.393  14.759  0.3278 -0.2653 -0.1347
16432TIP3    H170787   3.350   6.415  14.686  1.3018 -1.6585 -1.3745
16432TIP3    H270788   3.351   6.396  14.836 -0.7950  0.9152 -0.9583
16433TIP3   OH270789   5.847   0.716   2.254  0.5819  0.0771 -0.4306
16433TIP3    H170790   5.925   0.661   2.244 -0.4821 -1.4723 -0.6519
16433TIP3    H270791   5.822   0.705   2.346  2.1876  2.8661  0.4525
16434TIP3   OH270792   3.564   6.819  16.894  0.0817  0.5192 -0.3919
16434TIP3    H170793   3.479   6.819  16.938  0.5193 -0.9033  0.5337
16434TIP3    H270794   3.598   6.908  16.905 -0.2505  0.4572  1.3571
16435TIP3   OH270795   4.016   2.044   1.704 -0.1083 -0.5045  0.9229
16435TIP3    H170796   3.966   1.968   1.732 -1.1786  0.5830  2.1618
16435TIP3    H270797   3.951   2.113   1.692  0.9818  0.7561  1.8426
16436TIP3   OH270798   2.695   1.716  15.382 -0.4763 -0.1858 -0.2331
16436TIP3    H170799   2.674   1.786  15.321 -1.7113  1.2874  1.7771
16436TIP3    H270800   2.768   1.749  15.433 -0.0281 -1.0319 -0.3045
16437TIP3   OH270801   3.486   5.465  14.257  0.3021  0.1193  0.2917
16437TIP3    H170802   3.429   5.402  14.301  1.0432 -0.1280  0.9288
16437TIP3    H270803   3.526   5.514  14.329 -0.3708  1.4279 -0.1964
16438TIP3   OH270804   6.471   4.938   0.248  0.4035 -0.7310  0.2864
16438TIP3    H170805   6.414   5.010   0.273  0.7112 -0.3125 -0.2097
16438TIP3    H270806   6.469   4.879   0.323 -0.2455 -0.4531  0.4905
16439TIP3   OH270807   1.002   3.681   2.441 -0.3403  0.3185  0.3120
16439TIP3    H170808   0.995   3.595   2.399  4.1602  0.8174 -2.0577
16439TIP3    H270809   1.027   3.662   2.531  1.6330 -0.9939 -0.4456
16440TIP3   OH270810   6.366   5.382   6.126 -0.0706 -0.3548  0.3908
16440TIP3    H170811   6.283   5.348   6.092 -0.6207  0.9776  0.3257
16440TIP3    H270812   6.417   5.304   6.149 -1.2836 -1.2004  0.2970
16441TIP3   OH270813   2.218   4.019  16.972  0.3143 -1.0038  0.7450
16441TIP3    H170814   2.280   3.950  16.997 -0.3844 -1.5544  0.9972
16441TIP3    H270815   2.145   3.972  16.930  0.2125 -0.3380  0.1516
16442TIP3   OH270816   3.128   6.032  13.710  0.4239 -0.4454 -0.3745
16442TIP3    H170817   3.151   5.948  13.669 -0.5574 -0.2201 -1.4278
16442TIP3    H270818   3.032   6.035  13.705  0.4268  0.5463  0.0600
16443TIP3   OH270819   1.275   6.580   0.451  0.2542 -0.2780 -0.3851
16443TIP3    H170820   1.298   6.565   0.542 -0.3411  0.1407 -0.1609
16443TIP3    H270821   1.321   6.511   0.403 -0.9737 -1.7164  0.4115
16444TIP3   OH270822   3.946   0.858  11.849  0.0134 -0.0173 -0.0642
16444TIP3    H170823   3.910   0.864  11.937  2.4477 -0.4147  1.0548
16444TIP3    H270824   3.906   0.779  11.812  0.9325 -1.3900  1.7298
16445TIP3   OH270825   5.300   0.057   1.058 -0.0115 -0.1309 -0.0825
16445TIP3    H170826   5.259   0.032   0.975 -1.3437  2.2356 -0.2375
16445TIP3    H270827   5.244   0.017   1.125  0.8279 -1.6972 -0.2706
16446TIP3   OH270828   2.739   0.845  13.056 -0.1619  0.2220 -0.2973
16446TIP3    H170829   2.794   0.924  13.052  1.0468 -0.6211 -1.2713
16446TIP3    H270830   2.779   0.785  12.993  0.4354 -2.1039  2.1301
16447TIP3   OH270831   0.569   2.366  12.734 -0.8412 -0.5401 -0.3190
16447TIP3    H170832   0.543   2.437  12.793 -0.4006 -0.6420  0.0095
16447TIP3    H270833   0.662   2.383  12.716 -0.3674 -1.7450  0.8056
16448TIP3   OH270834   3.308   5.286   2.276  0.0246  0.4340 -0.1938
16448TIP3    H170835   3.340   5.306   2.189 -0.0062  0.9032 -0.1003
16448TIP3    H270836   3.282   5.194   2.272  1.1758  0.1032 -0.3249
16449TIP3   OH270837   5.422   2.874   0.694  0.5768  0.1315  0.3087
16449TIP3    H170838   5.376   2.846   0.615 -1.9039  0.8545  1.3990
16449TIP3    H270839   5.501   2.917   0.662  0.0887 -0.3919 -1.7181
16450TIP3   OH270840   2.778   1.889   1.163  0.1337 -0.3035 -0.4329
16450TIP3    H170841   2.700   1.909   1.112 -0.1540 -0.8370 -0.2218
16450TIP3    H270842   2.744   1.864   1.249  0.5148 -0.8161 -0.4248
16451TIP3   OH270843   5.031   4.518   3.995  0.0186 -0.0572 -0.4673
16451TIP3    H170844   5.069   4.550   3.914  0.5923  0.7140  0.0882
16451TIP3    H270845   4.938   4.536   3.987  0.2066  0.9385 -0.5500
16452TIP3   OH270846   4.428   2.327   4.264  0.2236 -0.2496 -0.5968
16452TIP3    H170847   4.382   2.354   4.185 -0.4079  1.2780  0.2624
16452TIP3    H270848   4.520   2.319   4.237  0.0893  0.7374 -1.3880
16453TIP3   OH270849   4.429   3.891   0.853  0.4242 -0.0206  0.5508
16453TIP3    H170850   4.336   3.871   0.840 -0.0444  2.1544  0.0249
16453TIP3    H270851   4.453   3.943   0.776  2.0879 -0.4938  0.7085
16454TIP3   OH270852   6.744   0.839   3.707  0.5547 -0.1466 -0.6407
16454TIP3    H170853   6.771   0.754   3.672  0.7424 -0.0340 -0.7735
16454TIP3    H270854   6.739   0.825   3.802  2.3018  0.1437 -0.4672
16455TIP3   OH270855   2.463   5.775  15.426  0.0571  0.1492 -0.2045
16455TIP3    H170856   2.450   5.866  15.398  0.9265  0.6365  0.8791
16455TIP3    H270857   2.539   5.779  15.484  1.3798 -1.6080 -1.6977
16456TIP3   OH270858   1.716   6.188  14.461  0.4044 -0.3975 -0.6174
16456TIP3    H170859   1.752   6.188  14.372 -0.5287 -0.0169 -1.0041
16456TIP3    H270860   1.776   6.242  14.512 -1.1007  2.6847 -1.8884
16457TIP3   OH270861   2.822   0.029   1.355 -0.0190  0.1093 -0.2047
16457TIP3    H170862   2.782  -0.033   1.295  0.4655  0.0576 -0.4809
16457TIP3    H270863   2.836  -0.021   1.435 -1.8266  0.5130  0.4127
16458TIP3   OH270864   0.545   4.277   1.138 -0.1339  0.0170  0.8953
16458TIP3    H170865   0.492   4.220   1.194 -1.5460  1.2166  0.8665
16458TIP3    H270866   0.492   4.357   1.129  0.6699  0.3886 -1.0455
16459TIP3   OH270867   3.947   0.577  15.897  0.1715 -0.4513  0.1091
16459TIP3    H170868   4.000   0.500  15.919  0.0363 -0.9782 -1.2925
16459TIP3    H270869   3.965   0.639  15.967 -0.3510 -2.0419  1.7356
16460TIP3   OH270870   1.231   2.969   3.253 -0.3444  0.0353  0.4960
16460TIP3    H170871   1.245   2.882   3.290  0.3179  0.3207  0.9407
16460TIP3    H270872   1.256   2.960   3.161  1.6348  0.1955  0.9617
16461TIP3   OH270873   2.620   6.228  13.462  0.2652 -0.4463  0.5189
16461TIP3    H170874   2.599   6.254  13.372  2.3135  0.5574  0.2711
16461TIP3    H270875   2.690   6.163  13.452  1.3206  0.5150  1.3696
16462TIP3   OH270876   2.238   0.476   5.848  0.0462 -0.2666 -0.0467
16462TIP3    H170877   2.256   0.567   5.870  0.9699 -0.1022 -1.3814
16462TIP3    H270878   2.320   0.430   5.866 -0.1401 -0.6704 -0.2263
16463TIP3   OH270879   4.317   4.002  10.636  0.0020 -0.7891  0.0448
16463TIP3    H170880   4.304   3.908  10.638 -0.8555 -0.6828  2.4100
16463TIP3    H270881   4.393   4.017  10.693 -0.8822  0.0341  1.0502
16464TIP3   OH270882   0.417   4.381  12.625  0.3589 -0.1149  0.0844
16464TIP3    H170883   0.430   4.368  12.531 -1.2804  0.9355 -0.3210
16464TIP3    H270884   0.353   4.315  12.650 -1.7956  1.7075 -0.2985
16465TIP3   OH270885   0.645   2.442   1.291 -0.1871 -0.2119 -0.6779
16465TIP3    H170886   0.622   2.533   1.273  1.4805 -0.1326 -2.8133
16465TIP3    H270887   0.561   2.398   1.301 -1.0910  1.8815  2.8769
16466TIP3   OH270888   0.590   4.619   4.445 -0.4137  0.5513  0.6541
16466TIP3    H170889   0.521   4.648   4.504 -0.8037  2.1336 -0.5123
16466TIP3    H270890   0.587   4.681   4.372  0.9054 -0.5557 -0.4037
16467TIP3   OH270891   0.438   3.550   3.471 -0.0046  0.0370  0.6211
16467TIP3    H170892   0.505   3.508   3.526 -0.4616 -0.4883  0.7791
16467TIP3    H270893   0.443   3.503   3.387  0.2893  0.4479  0.4079
16468TIP3   OH270894   0.522   2.174   0.828 -0.1408  0.5623  0.1248
16468TIP3    H170895   0.503   2.246   0.767  1.0651  0.2566 -0.6380
16468TIP3    H270896   0.443   2.120   0.826 -0.3796  0.9202 -0.6657
16469TIP3   OH270897   4.911   6.780  16.182  0.1400 -0.7917  0.6062
16469TIP3    H170898   5.000   6.809  16.203 -0.7069  1.7149  1.0416
16469TIP3    H270899   4.910   6.774  16.087  0.9822 -1.7088  0.6328
16470TIP3   OH270900   4.446   3.610  16.835  0.0817 -0.2270 -0.1912
16470TIP3    H170901   4.395   3.586  16.757  0.9785 -2.4684 -0.1598
16470TIP3    H270902   4.382   3.650  16.894 -1.0009 -0.2127 -1.3340
16471TIP3   OH270903   1.291   4.563  14.618  0.0316 -0.4605  0.1172
16471TIP3    H170904   1.254   4.629  14.559  0.5917 -0.1089  0.1488
16471TIP3    H270905   1.343   4.613  14.681  0.5110 -0.9348  0.1078
16472TIP3   OH270906   4.403   2.852  16.881 -0.0248 -0.0506 -0.2675
16472TIP3    H170907   4.411   2.932  16.828 -1.3480 -0.5303 -1.2587
16472TIP3    H270908   4.375   2.884  16.967 -1.9915  0.5233 -1.0585
16473TIP3   OH270909   0.069   1.952   4.738  0.1640 -0.7360 -0.5655
16473TIP3    H170910   0.056   1.860   4.761  2.4929 -0.6942  1.2829
16473TIP3    H270911   0.147   1.978   4.787  0.6168  1.7426 -2.4165
16474TIP3   OH270912   0.964   5.228  12.325  0.3271  0.0582  0.6011
16474TIP3    H170913   1.026   5.227  12.253  0.2429 -0.9957  0.5282
16474TIP3    H270914   1.000   5.292  12.387  0.8103  0.3854 -0.0037
16475TIP3   OH270915   2.954   3.027  15.527  0.0581 -0.1405  0.1642
16475TIP3    H170916   2.925   2.995  15.612 -1.2167 -0.9532 -0.5402
16475TIP3    H270917   2.913   2.968  15.464 -0.4268  1.4702 -1.1013
16476TIP3   OH270918   6.467   6.546  16.879 -0.0588  0.0064  0.1525
16476TIP3    H170919   6.526   6.514  16.947 -0.2673  3.8252  2.3755
16476TIP3    H270920   6.381   6.548  16.921 -0.4419  1.2224 -0.6426
16477TIP3   OH270921   4.055   3.641  11.604 -0.3214 -0.3716 -0.1652
16477TIP3    H170922   4.102   3.568  11.563  0.5052  0.1832 -0.2285
16477TIP3    H270923   4.104   3.719  11.578 -2.1464  0.3948 -1.4744
16478TIP3   OH270924   4.222   3.323   5.366 -0.0104  0.0875 -0.0003
16478TIP3    H170925   4.138   3.340   5.408 -1.3880  2.4199 -3.2158
16478TIP3    H270926   4.269   3.406   5.372  0.3454  0.0410 -1.5528
16479TIP3   OH270927   3.224   1.960  14.239  0.1645  0.5804 -0.1116
16479TIP3    H170928   3.301   1.967  14.183 -0.3196  2.3983 -0.6045
16479TIP3    H270929   3.237   2.025  14.308  0.1582 -0.7558  1.1989
16480TIP3   OH270930   1.515   1.424  16.447 -0.1803  0.1545 -0.2668
16480TIP3    H170931   1.454   1.357  16.417 -0.5404  0.5762 -0.4909
16480TIP3    H270932   1.554   1.388  16.527 -0.1016 -0.4698 -0.5825
16481TIP3   OH270933   2.986   0.990  12.761  0.1876  0.2382 -0.1570
16481TIP3    H170934   2.959   1.056  12.826  0.7615  0.3163  0.0066
16481TIP3    H270935   3.028   0.922  12.812  0.4817  0.2122 -0.4317
16482TIP3   OH270936   1.436   2.991   2.130 -0.4070  0.0317 -0.0234
16482TIP3    H170937   1.520   2.961   2.165  0.9142  1.5013 -1.6853
16482TIP3    H270938   1.403   3.052   2.196 -1.2108 -2.0336  1.5610
16483TIP3   OH270939   3.537   5.921  12.699 -0.2112  0.1762 -0.0529
16483TIP3    H170940   3.445   5.910  12.677 -0.0162 -0.2209 -0.6894
16483TIP3    H270941   3.544   6.012  12.729 -0.8445  0.1459  0.2104
16484TIP3   OH270942   0.749   0.274   3.943 -0.6153  0.1258 -0.4059
16484TIP3    H170943   0.811   0.337   3.979  1.3487 -1.5529 -0.6972
16484TIP3    H270944   0.664   0.304   3.976  0.4706  1.6903  1.1937
16485TIP3   OH270945   1.549   1.559   1.373 -0.0810  0.3688  0.5695
16485TIP3    H170946   1.551   1.467   1.344 -3.1250  0.4688 -0.3565
16485TIP3    H270947   1.520   1.554   1.464  1.6350  0.3903  1.1495
16486TIP3   OH270948   2.582   3.313   0.195  0.1954 -0.5024 -0.4329
16486TIP3    H170949   2.568   3.261   0.275  0.7863 -2.7801 -1.7152
16486TIP3    H270950   2.493   3.333   0.165 -0.0387  0.0915  0.5952
16487TIP3   OH270951   3.707   0.248  12.050 -0.7847  0.0366 -0.5084
16487TIP3    H170952   3.647   0.213  12.117 -2.2977  1.2627 -1.1590
16487TIP3    H270953   3.708   0.180  11.982 -1.1378 -0.1648 -0.3169
16488TIP3   OH270954   2.804   4.790   4.747 -0.2055  0.3051  0.0722
16488TIP3    H170955   2.789   4.882   4.768  2.1728  0.8817 -0.4589
16488TIP3    H270956   2.768   4.779   4.659 -0.2827  0.8144  0.0366
16489TIP3   OH270957   2.894   0.252   5.314  0.1928  0.8656 -0.0616
16489TIP3    H170958   2.965   0.191   5.334 -0.4018  0.1034 -0.2355
16489TIP3    H270959   2.816   0.211   5.350 -0.1514  1.7532  0.2274
16490TIP3   OH270960   2.593   6.488  13.937  0.4563 -0.4276 -0.8489
16490TIP3    H170961   2.618   6.568  13.981  0.8235  0.4161 -2.5125
16490TIP3    H270962   2.563   6.430  14.007 -2.9749  2.2649  0.1737
16491TIP3   OH270963   5.232   4.918  16.265  0.3465 -0.4259  0.3860
16491TIP3    H170964   5.207   4.826  16.265  0.3616 -0.4472 -0.9837
16491TIP3    H270965   5.221   4.946  16.174 -0.4322  1.1322  0.9172
16492TIP3   OH270966   1.644   0.002  13.533  0.8347 -0.2087  0.8298
16492TIP3    H170967   1.620   0.088  13.567  1.1024 -0.5704  1.9928
16492TIP3    H270968   1.723   0.017  13.482  1.7552  0.0349  2.2671
16493TIP3   OH270969   0.806   3.874   5.528 -0.4348  0.4640 -0.5626
16493TIP3    H170970   0.769   3.848   5.613 -0.8728  1.0271 -0.5744
16493TIP3    H270971   0.901   3.863   5.540 -0.6068 -1.8397 -0.8235
16494TIP3   OH270972   0.360   2.063  10.084 -0.4548 -1.2062  0.0908
16494TIP3    H170973   0.427   2.025  10.028  0.0406 -1.0969  0.6063
16494TIP3    H270974   0.374   2.158  10.076 -1.4812 -1.1121 -0.9411
16495TIP3   OH270975   0.192   2.243  16.575  0.5005  0.0620 -0.1338
16495TIP3    H170976   0.147   2.277  16.652 -0.2780 -4.9125  1.9714
16495TIP3    H270977   0.123   2.201  16.524  1.8247 -2.5174  0.0470
16496TIP3   OH270978   3.710   4.798   1.148 -0.3069 -0.5511  0.1102
16496TIP3    H170979   3.805   4.810   1.154 -0.4821  1.0312  0.1180
16496TIP3    H270980   3.691   4.792   1.055 -0.1571 -1.4052  0.1259
16497TIP3   OH270981   5.792   4.299  10.303  0.1903  0.0758 -0.3531
16497TIP3    H170982   5.792   4.366  10.235  1.2778 -0.8563 -1.3200
16497TIP3    H270983   5.737   4.229  10.268 -0.6572  0.2779  0.5020
16498TIP3   OH270984   0.330   1.088   2.468  0.0183 -0.4131 -0.5368
16498TIP3    H170985   0.239   1.119   2.474  0.0519 -0.0908 -1.4443
16498TIP3    H270986   0.380   1.151   2.520 -0.1889 -0.1652 -0.6333
16499TIP3   OH270987   4.193   0.163   3.218 -0.3787  0.4168 -0.2568
16499TIP3    H170988   4.098   0.158   3.227 -0.3013 -1.3531 -0.0717
16499TIP3    H270989   4.227   0.137   3.304  0.2711  1.0578 -0.3121
16500TIP3   OH270990   0.320   2.315  11.940  0.8669  0.1574 -0.3026
16500TIP3    H170991   0.381   2.306  12.013 -3.5133 -0.0466  3.8575
16500TIP3    H270992   0.290   2.406  11.946 -2.8168 -0.9587  1.4702
16501TIP3   OH270993   3.508   0.535   6.297 -0.0773  1.0227 -0.0160
16501TIP3    H170994   3.593   0.579   6.294  0.1847  0.6643  1.5268
16501TIP3    H270995   3.514   0.469   6.228  2.2325 -1.2479  2.1331
16502TIP3   OH270996   4.766   1.294  16.530 -0.4283  0.4454  0.5019
16502TIP3    H170997   4.734   1.207  16.505  3.5596 -0.8617 -0.9174
16502TIP3    H270998   4.789   1.336  16.447  0.8326  1.4458  1.3138
16503TIP3   OH270999   0.700   5.095   3.250 -0.0309  0.1582  0.1662
16503TIP3    H171000   0.700   5.002   3.272  0.5449  0.2124  0.4171
16503TIP3    H271001   0.779   5.130   3.293 -0.4142  0.8252  0.3435
16504TIP3   OH271002   3.297   5.345   3.249 -0.1054 -0.3069 -0.2516
16504TIP3    H171003   3.227   5.305   3.301 -1.2733  0.3643 -1.2540
16504TIP3    H271004   3.322   5.423   3.297  1.7034 -1.7656  1.3604
16505TIP3   OH271005   1.701   4.117   3.530 -0.4585  0.6197 -0.3045
16505TIP3    H171006   1.630   4.171   3.495  0.1960  1.9385  0.3400
16505TIP3    H271007   1.773   4.129   3.469 -0.4094  0.2127 -0.3292
16506TIP3   OH271008   2.013   0.550  14.547 -0.1478  0.8032 -0.3093
16506TIP3    H171009   1.936   0.512  14.505 -0.0268  0.7690 -0.5012
16506TIP3    H271010   1.981   0.630  14.588 -0.6455 -0.0981  1.0992
16507TIP3   OH271011   2.471   1.843  13.788  0.2483 -0.2141 -0.0027
16507TIP3    H171012   2.493   1.919  13.734  0.9035 -2.3828 -3.0000
16507TIP3    H271013   2.376   1.846  13.796  0.2612  0.8803 -0.0968
16508TIP3   OH271014   2.340   1.708  14.387 -0.2312  0.6926 -0.3781
16508TIP3    H171015   2.343   1.662  14.303 -0.7232 -0.4469  0.1910
16508TIP3    H271016   2.395   1.655  14.445 -1.1643  0.5600  0.4141
16509TIP3   OH271017   0.309   0.651   6.147 -0.3744 -0.7643  0.2742
16509TIP3    H171018   0.377   0.602   6.102  0.8484  0.3343  0.8716
16509TIP3    H271019   0.232   0.642   6.091  0.3043 -1.8645 -0.5148
16510TIP3   OH271020   2.811   3.393   0.734 -0.2040 -0.1312  0.2081
16510TIP3    H171021   2.865   3.470   0.751 -2.2502  1.4211 -0.0442
16510TIP3    H271022   2.834   3.368   0.644 -0.1740  0.7284 -0.0336
16511TIP3   OH271023   0.602   1.281   5.761 -0.4293 -0.1210  0.1100
16511TIP3    H171024   0.648   1.257   5.841 -0.9685 -0.2842  0.3734
16511TIP3    H271025   0.671   1.314   5.703  0.2588 -1.8215 -0.0833
16512TIP3   OH271026   6.380   6.001  13.358 -0.0289 -0.5769  0.4430
16512TIP3    H171027   6.285   5.993  13.361 -0.4731 -0.9902 -4.9910
16512TIP3    H271028   6.397   6.089  13.324  1.5157 -0.6881  0.8160
16513TIP3   OH271029   6.672   4.316   3.476 -0.9523 -0.3862  0.1221
16513TIP3    H171030   6.677   4.220   3.472  0.4060 -0.2932 -0.6212
16513TIP3    H271031   6.647   4.343   3.388 -0.9376 -0.0289  0.2247
16514TIP3   OH271032   5.443   1.123  16.118  0.3787  0.1321  0.2909
16514TIP3    H171033   5.358   1.167  16.115  0.4185  0.1948  0.0440
16514TIP3    H271034   5.424   1.037  16.156 -0.2767 -0.9244 -2.2449
16515TIP3   OH271035   1.698   5.218  12.206 -0.4252 -0.1661  0.2124
16515TIP3    H171036   1.744   5.175  12.278 -3.9638 -2.7059  1.2848
16515TIP3    H271037   1.713   5.161  12.131 -0.5007 -0.1299  0.1698
16516TIP3   OH271038   4.542   4.940   3.403  0.0933 -0.0531  0.2195
16516TIP3    H171039   4.504   4.919   3.488 -0.3813  0.1017  0.0489
16516TIP3    H271040   4.514   4.868   3.346  2.1683 -1.3069  0.6709
16517TIP3   OH271041   2.667   6.827  15.601  0.5697  0.3577  0.5238
16517TIP3    H171042   2.655   6.738  15.567 -0.0199  0.6874 -0.1557
16517TIP3    H271043   2.597   6.837  15.666 -0.4300  0.8855 -0.5877
16518TIP3   OH271044   2.466   3.182   1.723  0.0321 -0.4159 -0.0013
16518TIP3    H171045   2.389   3.191   1.667 -1.0431  0.4536  1.5343
16518TIP3    H271046   2.540   3.188   1.663 -1.0710  0.2094 -1.3567
16519TIP3   OH271047   1.284   3.450   0.113  0.6181 -0.3112  1.0328
16519TIP3    H171048   1.359   3.393   0.096  0.3889 -0.5738  0.8801
16519TIP3    H271049   1.316   3.539   0.097 -0.2013 -0.5718 -3.4527
16520TIP3   OH271050   1.904   0.313   0.909 -0.0456 -0.1601 -0.3329
16520TIP3    H171051   1.945   0.227   0.902  1.3738  0.4438  0.1776
16520TIP3    H271052   1.812   0.295   0.930 -0.3376 -1.5846 -2.5201
16521TIP3   OH271053   5.891   5.067   4.646  0.1186  0.2670  0.3826
16521TIP3    H171054   5.935   5.143   4.684  1.6025 -0.3179 -0.0918
16521TIP3    H271055   5.934   4.991   4.686 -0.9509 -0.3410  0.4214
16522TIP3   OH271056   1.980   3.413   2.249  0.3748 -0.0907  0.0001
16522TIP3    H171057   2.020   3.349   2.190  2.4347 -0.9891  2.1786
16522TIP3    H271058   2.054   3.455   2.292 -1.0115  1.6514  0.8097
16523TIP3   OH271059   0.700   0.592  11.701 -0.5115 -0.3059 -0.6660
16523TIP3    H171060   0.792   0.571  11.714 -0.5536 -0.8588 -1.1746
16523TIP3    H271061   0.653   0.519  11.741 -0.7685  0.4424  0.4462
16524TIP3   OH271062   1.834   5.919   5.811 -0.1646 -0.5719 -0.3112
16524TIP3    H171063   1.755   5.968   5.787  0.0413 -0.2541 -0.3455
16524TIP3    H271064   1.814   5.881   5.897 -0.2370 -0.2296 -0.1747
16525TIP3   OH271065   0.605   4.328  16.159  0.2757  0.1352 -0.1021
16525TIP3    H171066   0.673   4.288  16.105 -0.3033 -0.3902 -0.4571
16525TIP3    H271067   0.647   4.403  16.199  0.2885  1.5202 -2.5411
16526TIP3   OH271068   4.552   4.421  12.044  0.0643 -0.2668 -0.1492
16526TIP3    H171069   4.642   4.387  12.045  0.8018  1.5797  1.7126
16526TIP3    H271070   4.562   4.515  12.032 -1.5602  0.1057  1.1102
16527TIP3   OH271071   5.907   0.567   3.575 -0.4024 -0.1351  0.7371
16527TIP3    H171072   5.944   0.590   3.489 -0.4828 -2.0806  0.1332
16527TIP3    H271073   5.815   0.591   3.569 -0.3344  0.0451  0.4021
16528TIP3   OH271074   2.189   3.328  10.682  0.1368 -0.4254  0.0762
16528TIP3    H171075   2.273   3.305  10.721  0.6858  1.2775  0.0138
16528TIP3    H271076   2.203   3.417  10.648 -1.0232 -0.9483 -1.9129
16529TIP3   OH271077   6.147   1.039  13.321  0.0792  0.1378  0.2759
16529TIP3    H171078   6.184   1.010  13.238 -0.0478  1.0968 -0.1220
16529TIP3    H271079   6.052   1.039  13.307  0.0789  0.7751  0.2554
16530TIP3   OH271080   0.420   2.910   0.202  0.3877  0.2494  0.2575
16530TIP3    H171081   0.345   2.968   0.215  0.8857  1.0461 -0.3360
16530TIP3    H271082   0.449   2.889   0.291  0.0043  0.6672  0.4876
16531TIP3   OH271083   1.373   2.221   3.644 -0.5968 -0.1100  0.2912
16531TIP3    H171084   1.323   2.233   3.725  0.7976 -0.3602  1.2230
16531TIP3    H271085   1.402   2.130   3.647  1.2434  0.4485  0.5974
16532TIP3   OH271086   3.035   6.441  14.887  0.4987  0.0089  0.1880
16532TIP3    H171087   3.051   6.362  14.939  2.0953  0.2672  0.1259
16532TIP3    H271088   3.022   6.510  14.952 -0.5412 -0.2124  0.2387
16533TIP3   OH271089   6.816   1.648  13.676 -0.1400  0.3194 -0.3373
16533TIP3    H171090   6.814   1.639  13.771  0.6076  2.6276 -0.0374
16533TIP3    H271091   6.734   1.609  13.646 -0.9690  0.6812  1.3565
16534TIP3   OH271092   4.341   0.907   5.012 -0.4382 -0.3568  0.2915
16534TIP3    H171093   4.257   0.952   5.018  0.5454  1.5226  0.8476
16534TIP3    H271094   4.364   0.885   5.102 -0.8010 -1.8488  0.0478
16535TIP3   OH271095   5.179   2.752  13.864  0.4019 -0.0980  0.0480
16535TIP3    H171096   5.236   2.776  13.937 -2.0270 -1.3619  2.5353
16535TIP3    H271097   5.113   2.820  13.862  0.6916  0.1786 -1.3706
16536TIP3   OH271098   3.565   6.665  11.039 -0.4679  0.0868  0.2982
16536TIP3    H171099   3.621   6.641  10.966  0.1363  2.1512  0.0257
16536TIP3    H271100   3.534   6.753  11.018 -1.3582  0.1956  1.9014
16537TIP3   OH271101   5.788   2.768   5.520 -0.0383  0.3110  0.8210
16537TIP3    H171102   5.723   2.714   5.476 -0.6785  0.2628  1.7827
16537TIP3    H271103   5.754   2.858   5.512  1.2531  0.6640 -1.1726
16538TIP3   OH271104   0.152   2.294   3.632  0.3638  0.2023 -0.0702
16538TIP3    H171105   0.235   2.339   3.616  0.2801  0.7534  0.9664
16538TIP3    H271106   0.147   2.229   3.563  1.5625  0.3000 -0.2788
16539TIP3   OH271107   0.491   6.509   4.406  0.0760 -0.1627 -0.3687
16539TIP3    H171108   0.584   6.498   4.423  0.4752  0.3117 -2.0376
16539TIP3    H271109   0.477   6.604   4.408 -0.1825 -0.1822 -0.8951
16540TIP3   OH271110   6.771   6.183   1.051 -0.1809  0.3509  0.1212
16540TIP3    H171111   6.863   6.196   1.028  0.0856 -1.4215  0.0456
16540TIP3    H271112   6.762   6.222   1.138  1.3604 -1.8473  1.3313
16541TIP3   OH271113   5.742   5.795  14.196 -0.2078  0.0970  0.1512
16541TIP3    H171114   5.652   5.763  14.198 -0.8488  1.7825 -0.0465
16541TIP3    H271115   5.796   5.717  14.209 -1.6986 -0.8955  0.5856
16542TIP3   OH271116   2.227   1.138   0.250 -0.2438  0.1295  0.3155
16542TIP3    H171117   2.134   1.151   0.266 -0.3310  1.6799 -1.1908
16542TIP3    H271118   2.234   1.116   0.157  0.9564  1.2579  0.0951
16543TIP3   OH271119   0.021   1.984   0.392  0.3661  0.4048  0.2991
16543TIP3    H171120   0.103   1.943   0.363 -0.3674 -1.6882  0.9773
16543TIP3    H271121  -0.037   1.978   0.316  0.5417  1.0016  0.1192
16544TIP3   OH271122   5.117   2.443  14.749 -0.2492 -0.3540  0.0273
16544TIP3    H171123   5.198   2.477  14.788  0.6362 -0.7854 -1.3777
16544TIP3    H271124   5.048   2.499  14.785  0.6755  0.0922  1.1615
16545TIP3   OH271125   0.905   1.395  15.370 -0.2228 -0.3590 -0.4991
16545TIP3    H171126   0.924   1.474  15.319  0.1800 -1.4950 -2.2172
16545TIP3    H271127   0.974   1.391  15.436  0.0198  0.4663 -0.6942
16546TIP3   OH271128   1.296   6.445   3.745 -0.0619  0.1458 -0.3345
16546TIP3    H171129   1.297   6.446   3.840 -0.7156 -2.8626 -0.1940
16546TIP3    H271130   1.244   6.522   3.721  1.0116  1.5628  1.6443
16547TIP3   OH271131   4.572   0.473  16.984 -0.2900  0.3540  0.4521
16547TIP3    H171132   4.615   0.548  17.024  1.9037 -0.0917 -0.9396
16547TIP3    H271133   4.627   0.450  16.909 -1.0708 -2.4184  0.6138
16548TIP3   OH271134   1.107   5.413   3.972  0.4482 -0.6693  0.2096
16548TIP3    H171135   1.078   5.322   3.968 -1.1289 -0.2396  0.9326
16548TIP3    H271136   1.118   5.431   4.065  0.7645 -0.1200  0.0739
16549TIP3   OH271137   6.533   2.866  15.354  0.0823  0.0642 -0.4260
16549TIP3    H171138   6.610   2.917  15.328  0.5150 -0.8586 -1.0114
16549TIP3    H271139   6.568   2.794  15.406 -0.6901  1.3609  2.0371
16550TIP3   OH271140   5.076   6.387   1.396  0.1619 -0.2203  0.3421
16550TIP3    H171141   4.996   6.436   1.413 -0.2227  0.1214 -2.1253
16550TIP3    H271142   5.070   6.361   1.304  3.1174  0.2542 -0.0893
16551TIP3   OH271143   1.226   4.033  15.883  0.0325 -0.6017  0.1314
16551TIP3    H171144   1.248   4.122  15.855  0.0666 -0.6306  0.0664
16551TIP3    H271145   1.162   4.003  15.818 -1.6835  0.1882  1.3856
16552TIP3   OH271146   3.787   4.599  14.522 -0.3429 -0.8170 -0.4752
16552TIP3    H171147   3.849   4.609  14.449 -1.2864  0.7342 -1.1001
16552TIP3    H271148   3.701   4.596  14.481 -0.7677 -2.3453  0.4340
16553TIP3   OH271149   4.495   0.015  10.666  0.2275 -0.4217 -0.3014
16553TIP3    H171150   4.509   0.108  10.687 -3.2576  0.8169 -2.5155
16553TIP3    H271151   4.529  -0.032  10.742  1.2857  2.6900  1.3645
16554TIP3   OH271152   2.805   3.145   4.575  0.0679  0.2578  0.0038
16554TIP3    H171153   2.789   3.065   4.624  0.6658  0.3507  0.3523
16554TIP3    H271154   2.778   3.215   4.635 -1.8526  0.3054 -0.8146
16555TIP3   OH271155   5.628   4.963   1.851 -0.3629  0.1360  0.2388
16555TIP3    H171156   5.599   4.990   1.764 -2.0797  2.7574  1.4757
16555TIP3    H271157   5.670   5.041   1.888 -0.1714 -0.7268  1.9669
16556TIP3   OH271158   2.383   0.111  12.974 -0.0308 -0.1928  0.1571
16556TIP3    H171159   2.411   0.147  12.890 -0.5451 -0.1021  0.0197
16556TIP3    H271160   2.373   0.017  12.958 -2.4086  0.1073 -0.5597
16557TIP3   OH271161   1.385   1.847   0.145  0.1959  0.0682  0.3036
16557TIP3    H171162   1.404   1.788   0.218  1.2685  1.2560  1.0227
16557TIP3    H271163   1.347   1.925   0.187  0.5786  0.6628 -0.4347
16558TIP3   OH271164   3.723   4.253   1.884  0.1177  0.4028 -0.1783
16558TIP3    H171165   3.792   4.318   1.884  1.0898 -0.5590  1.4348
16558TIP3    H271166   3.642   4.303   1.897  0.6412  1.4138 -0.7311
16559TIP3   OH271167   2.356   0.216   1.482 -0.3818 -0.1878 -0.7013
16559TIP3    H171168   2.396   0.207   1.396 -1.2292  1.2701 -1.2824
16559TIP3    H271169   2.344   0.310   1.494 -0.4786 -0.3818  0.9213
16560TIP3   OH271170   3.817   4.812   0.860  0.0565 -0.0960  0.4356
16560TIP3    H171171   3.826   4.898   0.901 -3.0831 -0.0270  1.2263
16560TIP3    H271172   3.867   4.819   0.779  1.0665  1.9541  1.1526
16561TIP3   OH271173   2.390   1.622  12.699 -0.1554  0.1499  0.0489
16561TIP3    H171174   2.460   1.557  12.699 -1.7812 -1.7070 -1.1560
16561TIP3    H271175   2.333   1.597  12.772 -0.6280  0.4312 -0.2173
16562TIP3   OH271176   3.605   1.185  14.810 -0.3068  0.6172  0.6761
16562TIP3    H171177   3.598   1.116  14.744  1.0970  0.6096  0.5209
16562TIP3    H271178   3.673   1.156  14.870  1.6698  2.6371 -0.4227
16563TIP3   OH271179   0.140   4.742  14.389 -0.0467 -0.2374  0.1489
16563TIP3    H171180   0.224   4.697  14.396 -0.5629 -1.2102  0.2115
16563TIP3    H271181   0.145   4.814  14.452 -0.1279 -1.6957  1.8862
16564TIP3   OH271182   6.226   0.563  12.002 -0.4027 -0.2018 -0.1812
16564TIP3    H171183   6.195   0.561  11.912 -0.3129 -0.2214 -0.2113
16564TIP3    H271184   6.195   0.480  12.040 -2.8146  0.9650  0.6024
16565TIP3   OH271185   0.807   0.669   4.431 -0.1663 -0.1371 -0.2749
16565TIP3    H171186   0.795   0.631   4.518  4.0156 -0.2592  0.4385
16565TIP3    H271187   0.832   0.760   4.448 -0.6095  0.2249 -1.4553
16566TIP3   OH271188   4.147   1.093   2.223 -0.1716  0.4652 -0.3769
16566TIP3    H171189   4.177   1.006   2.195  0.0196  0.5106 -0.3113
16566TIP3    H271190   4.088   1.122   2.153 -0.0399  0.3890 -0.5180
16567TIP3   OH271191   6.064   6.840  16.845 -0.1799 -0.4142  0.7904
16567TIP3    H171192   6.091   6.928  16.872  0.7879 -0.7169  0.8686
16567TIP3    H271193   6.120   6.781  16.896  1.0966 -1.0239 -1.1714
16568TIP3   OH271194   5.617   5.625   4.760 -0.0862  0.0770 -0.1620
16568TIP3    H171195   5.633   5.534   4.735 -0.3088 -0.5501  1.8355
16568TIP3    H271196   5.684   5.644   4.825 -0.7398  0.9662  0.2651
16569TIP3   OH271197   2.901   3.830  12.742  0.9079 -0.1369  0.1592
16569TIP3    H171198   2.960   3.757  12.764 -0.2246 -0.4366  2.5210
16569TIP3    H271199   2.897   3.882  12.822  0.6589  1.8303 -1.0843
16570TIP3   OH271200   5.626   0.567   0.510  0.0835  0.1671  0.1405
16570TIP3    H171201   5.608   0.608   0.426 -0.4159 -0.3372 -0.0069
16570TIP3    H271202   5.543   0.529   0.537 -0.0294  1.2361  1.3846
16571TIP3   OH271203   1.249   5.329   4.820 -0.0347 -0.3369  0.4071
16571TIP3    H171204   1.307   5.360   4.889  0.0191 -2.9646  1.6513
16571TIP3    H271205   1.273   5.238   4.806 -2.0644 -0.7454 -0.9712
16572TIP3   OH271206   0.566   1.774  15.741  0.1738  0.4844  0.0002
16572TIP3    H171207   0.660   1.794  15.736 -0.0152  1.1235 -2.3450
16572TIP3    H271208   0.524   1.859  15.730 -0.6622 -0.0125 -0.7385
16573TIP3   OH271209   2.502   4.866  14.933  0.1150 -0.0857 -0.0924
16573TIP3    H171210   2.407   4.863  14.945  0.2777 -0.5427  1.3270
16573TIP3    H271211   2.536   4.885  15.021  1.2917  1.2681 -0.7921
16574TIP3   OH271212   2.340   0.638  15.719  0.4209 -0.6018  0.2469
16574TIP3    H171213   2.258   0.594  15.740 -1.0248  1.6518 -0.2624
16574TIP3    H271214   2.329   0.727  15.755  1.8686  0.3167 -1.4333
16575TIP3   OH271215   1.510   4.497  10.441  0.1641  0.1290  0.2891
16575TIP3    H171216   1.498   4.539  10.526 -0.8417 -0.9272  0.6837
16575TIP3    H271217   1.548   4.566  10.386 -2.1704  1.8579  0.6742
16576TIP3   OH271218   0.007   6.173  15.866 -0.6237 -0.1920  0.1142
16576TIP3    H171219  -0.010   6.135  15.953 -1.4992  1.2376  0.6064
16576TIP3    H271220   0.021   6.097  15.809 -1.8324 -1.2372  1.1362
16577TIP3   OH271221   0.604   3.238  14.592 -0.4155 -0.1110  0.3225
16577TIP3    H171222   0.607   3.274  14.504 -0.7965 -0.5699  0.1157
16577TIP3    H271223   0.685   3.187  14.600 -0.1998  0.2355  0.3772
16578TIP3   OH271224   5.200   0.297  11.957 -0.0664  0.3237  0.4615
16578TIP3    H171225   5.253   0.354  11.901 -3.2760  2.8144 -0.3053
16578TIP3    H271226   5.189   0.347  12.038 -1.9930  0.3707  0.2137
16579TIP3   OH271227   0.573   6.778  11.805 -0.7615 -0.0249  0.5038
16579TIP3    H171228   0.606   6.689  11.815  2.2607  0.7740 -1.1016
16579TIP3    H271229   0.497   6.769  11.747 -0.9360 -1.5889  0.9272
16580TIP3   OH271230   4.838   1.695   2.896  0.6949  0.3558  0.3397
16580TIP3    H171231   4.871   1.701   2.986 -0.8605  0.6539  0.9295
16580TIP3    H271232   4.902   1.741   2.843  0.4812  2.2435  1.6295
16581TIP3   OH271233   0.166   4.116  12.943  0.1097  0.4204  0.2813
16581TIP3    H171234   0.202   4.123  13.032 -0.1837 -0.5660  0.4788
16581TIP3    H271235   0.079   4.156  12.949 -1.4090 -2.7577  1.3257
16582TIP3   OH271236   0.416   5.175   3.752 -0.2239  0.1793 -0.4201
16582TIP3    H171237   0.371   5.123   3.685 -0.2965  0.2781 -0.4481
16582TIP3    H271238   0.387   5.137   3.835  1.0581 -0.9550 -0.4560
16583TIP3   OH271239   2.364   6.791   2.659 -0.1558  0.4558  0.5825
16583TIP3    H171240   2.374   6.817   2.751 -1.3295  0.1129  0.8298
16583TIP3    H271241   2.272   6.765   2.652  0.6031 -2.4554  0.0678
16584TIP3   OH271242   4.931   3.760   5.398  0.0887 -0.4422 -0.1969
16584TIP3    H171243   4.952   3.717   5.481 -2.2921 -1.1637  0.1123
16584TIP3    H271244   4.879   3.696   5.350  1.4660 -0.0583 -2.3262
16585TIP3   OH271245   5.508   0.028  14.146 -0.2101  0.4201  1.0033
16585TIP3    H171246   5.438  -0.037  14.152  0.7063 -0.5189  2.0766
16585TIP3    H271247   5.571  -0.011  14.085 -0.3590  0.9953  0.4840
16586TIP3   OH271248   0.425   5.518  13.605 -0.4366 -0.1154  0.4939
16586TIP3    H171249   0.417   5.606  13.570 -0.1223  0.8398  2.6792
16586TIP3    H271250   0.471   5.529  13.688 -0.6943 -2.2961  0.9876
16587TIP3   OH271251   2.774   5.144  12.373  0.1013  0.1457 -0.2728
16587TIP3    H171252   2.838   5.085  12.332  0.1625 -1.6639  2.2202
16587TIP3    H271253   2.693   5.093  12.376 -0.6433  1.2729 -0.6044
16588TIP3   OH271254   5.790   5.904   2.902  0.2594 -0.1494  0.2797
16588TIP3    H171255   5.866   5.895   2.959  0.9770 -0.6951 -0.7156
16588TIP3    H271256   5.755   5.990   2.922  2.5118  1.1289 -0.8109
16589TIP3   OH271257   4.924   1.679   0.238 -0.4417 -0.7290  0.3778
16589TIP3    H171258   4.844   1.632   0.217 -1.7709  1.7062 -0.2619
16589TIP3    H271259   4.976   1.677   0.158 -0.5949 -0.8734  0.2839
16590TIP3   OH271260   2.214   3.782   4.260  0.2904 -0.1950  0.0584
16590TIP3    H171261   2.121   3.796   4.242  0.5311  1.9412  0.1946
16590TIP3    H271262   2.218   3.762   4.353  0.0930  2.1951  0.6587
16591TIP3   OH271263   2.777   6.448  15.841 -0.0914  0.6274  0.1193
16591TIP3    H171264   2.804   6.471  15.752 -0.6298  2.3285  0.3513
16591TIP3    H271265   2.717   6.518  15.866  0.6093  0.5858  2.0841
16592TIP3   OH271266   3.339   1.030  12.458  0.7072 -0.6774 -0.0816
16592TIP3    H171267   3.424   1.059  12.490  0.9338  0.5155 -1.6021
16592TIP3    H271268   3.297   1.110  12.426 -1.4794 -1.0493  1.6017
16593TIP3   OH271269   2.665   1.122  10.733 -1.1719 -0.0177  0.2784
16593TIP3    H171270   2.630   1.159  10.814 -1.5260  0.0564  0.0927
16593TIP3    H271271   2.657   1.027  10.743  0.3257 -0.0993  1.0250
16594TIP3   OH271272   6.423   6.517   5.106 -0.1074  0.0192 -0.5385
16594TIP3    H171273   6.507   6.522   5.152  0.1165 -0.0529 -0.9276
16594TIP3    H271274   6.361   6.485   5.172 -0.3765  2.3675  0.4384
16595TIP3   OH271275   5.796   6.444   1.974 -0.2971  0.0701  0.0495
16595TIP3    H171276   5.829   6.475   2.058 -0.7214  1.8530 -0.4023
16595TIP3    H271277   5.830   6.506   1.910 -0.7481 -0.7224 -0.9965
16596TIP3   OH271278   5.375   1.539  13.502  0.0757 -0.4774  0.6242
16596TIP3    H171279   5.288   1.578  13.507 -0.0761 -0.4670 -1.4272
16596TIP3    H271280   5.412   1.552  13.590 -0.5065  3.0212  0.5118
16597TIP3   OH271281   4.462   6.229   4.845  0.2846  0.2236 -0.3634
16597TIP3    H171282   4.368   6.214   4.857  0.5223  0.2272  1.9551
16597TIP3    H271283   4.504   6.165   4.903  1.6430  1.5060  0.1409
16598TIP3   OH271284   0.861   3.112  10.348 -0.9888 -0.5478  0.5277
16598TIP3    H171285   0.943   3.063  10.357 -0.8473 -0.4036  0.0293
16598TIP3    H271286   0.797   3.061  10.398 -0.6026 -0.6694  0.9109
16599TIP3   OH271287   3.076   3.281   1.368 -0.1844 -0.8195 -0.3489
16599TIP3    H171288   3.036   3.200   1.336  1.1241 -2.3887  1.7215
16599TIP3    H271289   3.144   3.252   1.428  0.0453  1.8521  0.8272
16600TIP3   OH271290   6.123   1.306  13.253  0.7693 -0.1413  0.0921
16600TIP3    H171291   6.155   1.378  13.308 -2.1323  0.9271  0.5729
16600TIP3    H271292   6.156   1.227  13.295  1.2436  0.7917  1.5379
16601TIP3   OH271293   1.211   0.655  12.927 -0.3593 -0.0221  0.2374
16601TIP3    H171294   1.193   0.749  12.933  1.6423  0.3805  0.6744
16601TIP3    H271295   1.213   0.637  12.833  0.8214  0.7468  0.0890
16602TIP3   OH271296   0.659   0.054   4.712 -0.2204 -0.3489 -0.8049
16602TIP3    H171297   0.750   0.085   4.716  0.3494 -2.0269  0.6510
16602TIP3    H271298   0.611   0.113   4.770 -0.0398  0.4145 -1.4153
16603TIP3   OH271299   4.378   2.225   3.098  0.3210 -0.0289  0.5722
16603TIP3    H171300   4.448   2.175   3.138 -1.1134 -0.9249  2.0677
16603TIP3    H271301   4.306   2.163   3.089 -0.6819  1.1526  0.1651
16604TIP3   OH271302   5.950   4.819  16.643 -0.1838 -0.1487 -0.4309
16604TIP3    H171303   6.038   4.823  16.680  0.3592 -0.2558 -1.6398
16604TIP3    H271304   5.961   4.771  16.561 -1.8087 -2.4298  0.5824
16605TIP3   OH271305   4.019   4.866  13.828  0.3657 -0.4952 -0.5307
16605TIP3    H171306   3.952   4.826  13.771 -0.8112  0.6679 -0.0175
16605TIP3    H271307   3.971   4.933  13.877  2.1189  1.0109 -0.8055
16606TIP3   OH271308   5.137   0.735  12.061  0.1041 -0.4833 -0.0742
16606TIP3    H171309   5.220   0.687  12.069  0.2960 -0.8082 -2.8630
16606TIP3    H271310   5.072   0.667  12.041 -0.2394  0.0776 -0.8894
16607TIP3   OH271311   5.481   0.469   2.575 -0.2273 -0.1369 -0.3569
16607TIP3    H171312   5.499   0.549   2.525 -0.9418 -1.2220 -2.5026
16607TIP3    H271313   5.554   0.462   2.636  0.9789  1.0410 -1.5835
16608TIP3   OH271314   0.676   6.012  13.257  0.0818  0.0120  0.1398
16608TIP3    H171315   0.752   6.051  13.212 -0.0202  0.9648  0.7645
16608TIP3    H271316   0.624   6.088  13.286 -0.3847 -0.6048  0.9563
16609TIP3   OH271317   2.720   3.507   2.457  0.6372  0.1280  0.3647
16609TIP3    H171318   2.749   3.550   2.537 -0.3186  2.1986 -0.3325
16609TIP3    H271319   2.793   3.450   2.432  0.7134 -1.0469  2.9780
16610TIP3   OH271320   2.454   0.003   5.684 -0.3275  0.2147 -0.2420
16610TIP3    H171321   2.395  -0.042   5.745  0.2575 -0.4585 -0.1557
16610TIP3    H271322   2.536   0.011   5.733  0.2166 -0.5275 -0.9948
16611TIP3   OH271323   5.515   6.825  11.078 -0.4302  0.5472  0.6105
16611TIP3    H171324   5.570   6.748  11.091 -0.2218  0.8315  1.4391
16611TIP3    H271325   5.448   6.797  11.015 -0.3647 -0.3076  0.9176
16612TIP3   OH271326   3.463   5.493   1.188 -0.1842 -0.1790  0.2265
16612TIP3    H171327   3.474   5.557   1.118  0.8929 -1.2962 -0.6718
16612TIP3    H271328   3.543   5.500   1.240  0.6180 -1.7366 -0.7174
16613TIP3   OH271329   3.855   0.308  16.562  0.7278 -0.3903 -0.3093
16613TIP3    H171330   3.861   0.321  16.467 -0.1972 -1.7106 -0.5714
16613TIP3    H271331   3.920   0.240  16.581 -0.2686 -1.3836 -0.3019
16614TIP3   OH271332   3.352   2.883   3.204 -0.6190  0.3456 -0.6048
16614TIP3    H171333   3.364   2.890   3.299  1.5597 -1.9043 -0.6154
16614TIP3    H271334   3.274   2.828   3.194 -0.3432 -0.1504 -0.0850
16615TIP3   OH271335   2.812   5.987  12.592  0.5310 -0.1554 -0.4850
16615TIP3    H171336   2.770   5.921  12.537 -0.6554 -0.6247  0.9134
16615TIP3    H271337   2.886   5.942  12.632 -0.5399 -0.8078  0.8135
16616TIP3   OH271338   3.726   6.230  13.398 -0.0777  0.6746 -0.4402
16616TIP3    H171339   3.738   6.299  13.463 -1.3196  0.0905  0.4517
16616TIP3    H271340   3.763   6.152  13.440 -1.3200  0.1918 -0.2060
16617TIP3   OH271341   6.112   6.718   4.299 -0.4509 -0.0869 -0.3287
16617TIP3    H171342   6.038   6.777   4.291 -0.5108 -0.2699 -1.2190
16617TIP3    H271343   6.165   6.734   4.221  0.3695 -0.0663  0.2194
16618TIP3   OH271344   2.315   3.554  16.598  0.4603  0.8213  0.1181
16618TIP3    H171345   2.371   3.605  16.656  2.4389 -1.8382  0.7906
16618TIP3    H271346   2.355   3.564  16.512 -0.1026  1.6148 -0.0586
16619TIP3   OH271347   5.116   4.480   1.535  0.4728 -0.0151 -0.0122
16619TIP3    H171348   5.134   4.545   1.467  0.9627  3.5738  3.2168
16619TIP3    H271349   5.197   4.475   1.585 -0.1202 -1.9133  0.8499
16620TIP3   OH271350   0.804   0.275  12.588 -0.2483  0.7126 -0.1088
16620TIP3    H171351   0.891   0.269  12.629  0.0424 -0.5161 -0.8738
16620TIP3    H271352   0.746   0.228  12.648  0.0442 -0.4384 -0.6952
16621TIP3   OH271353   1.373   3.165  14.698  0.1613  0.3760 -0.5766
16621TIP3    H171354   1.354   3.148  14.606 -0.2165 -1.4116 -0.2155
16621TIP3    H271355   1.415   3.250  14.699  0.8358  0.1072 -2.4765
16622TIP3   OH271356   1.663   5.718  12.516 -0.2574  0.2686 -0.3278
16622TIP3    H171357   1.637   5.773  12.589  0.0271  1.7873 -1.3231
16622TIP3    H271358   1.739   5.668  12.548 -0.1244  0.9290  0.3943
16623TIP3   OH271359   6.651   6.015   5.251  0.6925 -0.6259  0.5130
16623TIP3    H171360   6.695   5.943   5.297  2.3095 -0.1801 -0.2931
16623TIP3    H271361   6.710   6.089   5.260 -1.2471  0.8556  1.8935
16624TIP3   OH271362   3.359   0.872  16.660  0.0439 -0.1711 -0.1890
16624TIP3    H171363   3.277   0.829  16.682  0.2549 -0.9058 -0.7983
16624TIP3    H271364   3.361   0.872  16.565  0.6449  0.0500 -0.1787
16625TIP3   OH271365   0.802   4.215   0.061  0.0982  0.5351  0.0965
16625TIP3    H171366   0.725   4.178   0.018  0.4242  0.9748 -0.8894
16625TIP3    H271367   0.781   4.307   0.074 -0.8127  0.0484  2.7845
16626TIP3   OH271368   4.517   6.834   4.648 -0.7309 -0.2745 -0.0845
16626TIP3    H171369   4.493   6.898   4.715  1.0402 -0.8441  1.1563
16626TIP3    H271370   4.436   6.784   4.633 -1.5091  0.7316  0.6409
16627TIP3   OH271371   5.927   1.092   1.302 -0.1901  0.0032 -0.1242
16627TIP3    H171372   5.927   1.000   1.276  2.7706  0.2813 -1.5442
16627TIP3    H271373   5.977   1.095   1.383  0.5082  0.4116 -0.5526
16628TIP3   OH271374   3.208   6.674  12.640 -0.5739  0.1545  0.1220
16628TIP3    H171375   3.206   6.582  12.614  0.4428 -0.2930  1.4971
16628TIP3    H271376   3.117   6.702  12.639 -0.7156 -0.1389 -2.6883
16629TIP3   OH271377   1.376   2.449   5.759  0.1421  0.0249  0.0982
16629TIP3    H171378   1.290   2.460   5.720  0.2020 -0.8817 -0.3126
16629TIP3    H271379   1.437   2.456   5.685  0.2038 -2.5964 -0.1961
16630TIP3   OH271380   1.038   0.572  14.331  0.0833  0.1456 -0.3964
16630TIP3    H171381   1.104   0.629  14.370  0.7235 -1.4165  0.8994
16630TIP3    H271382   1.065   0.563  14.240  0.6254  0.9455 -0.3256
16631TIP3   OH271383   4.210   2.046   4.883 -0.5672 -0.5122 -0.1334
16631TIP3    H171384   4.272   1.999   4.938 -0.9689  1.3283  2.0582
16631TIP3    H271385   4.125   2.004   4.899 -0.7061  0.0997  0.8314
16632TIP3   OH271386   4.927   2.763  11.905 -0.0918 -0.1108  0.6981
16632TIP3    H171387   4.850   2.770  11.961  0.9180  0.4167  2.0600
16632TIP3    H271388   4.932   2.848  11.861 -0.7460 -0.4434 -0.0623
16633TIP3   OH271389   4.720   0.516   4.400 -0.0079  0.2016  0.4216
16633TIP3    H171390   4.704   0.425   4.426  1.6708 -0.8916 -1.9387
16633TIP3    H271391   4.791   0.545   4.458 -1.2627  0.4290  1.8998
16634TIP3   OH271392   2.161   6.795  13.202 -0.4312  0.1133  0.2345
16634TIP3    H171393   2.231   6.747  13.157 -0.2403 -0.1027  0.7545
16634TIP3    H271394   2.191   6.886  13.203 -0.0548 -0.0120  0.6384
16635TIP3   OH271395   5.043   3.422  11.642  0.0151  0.4547  0.5902
16635TIP3    H171396   5.135   3.417  11.669 -0.4210  0.5442  2.2323
16635TIP3    H271397   5.028   3.341  11.594  0.8009  0.1477  0.8343
16636TIP3   OH271398   3.060   2.107  10.776  0.1219  0.0790  0.1053
16636TIP3    H171399   3.097   2.063  10.699 -0.9877 -0.3040 -0.2247
16636TIP3    H271400   2.969   2.078  10.778  0.3328 -0.5803  2.0457
16637TIP3   OH271401   0.328   2.070   1.168 -0.7201 -0.0296  0.4842
16637TIP3    H171402   0.385   1.997   1.192 -1.3132 -0.1460  1.6200
16637TIP3    H271403   0.286   2.042   1.087  1.9200  0.6830 -1.2187
16638TIP3   OH271404   0.350   1.518  14.220  0.0916 -0.1990  0.4129
16638TIP3    H171405   0.260   1.493  14.198 -0.2457  2.1475 -1.2114
16638TIP3    H271406   0.352   1.516  14.316 -2.0080  0.6160  0.5245
16639TIP3   OH271407   5.264   6.077  13.856  0.2907  0.1993  0.0848
16639TIP3    H171408   5.344   6.129  13.854 -0.4389  1.3806  0.6208
16639TIP3    H271409   5.270   6.027  13.938 -0.1642  1.3977  0.8827
16640TIP3   OH271410   4.258   3.951  11.936 -0.2752 -0.0554  0.7918
16640TIP3    H171411   4.174   3.994  11.951  0.0137  0.6802  0.3782
16640TIP3    H271412   4.236   3.859  11.921 -0.7512 -0.4311  3.4408
16641TIP3   OH271413   1.442   1.602   5.301 -0.3823 -0.3506  0.2585
16641TIP3    H171414   1.353   1.636   5.310  0.3910  1.5955  1.1526
16641TIP3    H271415   1.455   1.547   5.378 -0.3684  0.5114  0.8901
16642TIP3   OH271416   6.059   3.505   0.294  0.2005  0.0999 -0.1726
16642TIP3    H171417   6.149   3.486   0.268  0.0861  1.6777 -1.8955
16642TIP3    H271418   6.037   3.587   0.250 -1.5327  0.6508  1.5635
16643TIP3   OH271419   3.820   1.610  10.944 -0.3121 -0.1469  0.1543
16643TIP3    H171420   3.827   1.645  11.032  1.2753  1.1159 -0.4203
16643TIP3    H271421   3.840   1.684  10.887  2.5430 -1.7581 -1.1453
16644TIP3   OH271422   0.438   1.128   3.208 -0.1252  0.6004 -0.1991
16644TIP3    H171423   0.374   1.165   3.147 -2.4518 -0.6349  1.3645
16644TIP3    H271424   0.468   1.048   3.165  0.1700  1.0288 -0.8070
16645TIP3   OH271425   3.656   4.148   6.487  0.0499 -0.6500 -0.6482
16645TIP3    H171426   3.660   4.243   6.480  0.6497 -0.6672 -0.5916
16645TIP3    H271427   3.598   4.131   6.561 -0.7172 -0.3477 -1.1599
16646TIP3   OH271428   2.095   4.913   5.399 -0.7462  1.2274 -0.3805
16646TIP3    H171429   2.102   4.885   5.490  0.0384  2.1826 -0.1276
16646TIP3    H271430   2.023   4.977   5.399 -1.9281 -0.0525 -0.7862
16647TIP3   OH271431   6.367   4.178  16.233 -0.5465  0.0423  0.2131
16647TIP3    H171432   6.335   4.258  16.190  0.3557  0.1251 -0.3211
16647TIP3    H271433   6.318   4.108  16.190 -0.4872  0.2184 -0.1509
16648TIP3   OH271434   1.993   2.471  11.522 -0.2364  0.8757  0.1560
16648TIP3    H171435   2.077   2.427  11.534  0.2763  1.5549 -0.7634
16648TIP3    H271436   1.935   2.403  11.487  0.1511  0.5848  0.0735
16649TIP3   OH271437   3.769   3.986  14.783 -0.5405  0.3315 -0.1880
16649TIP3    H171438   3.715   3.908  14.792 -1.9288  1.3566  0.7992
16649TIP3    H271439   3.743   4.042  14.856 -0.2568  2.1139 -1.3871
16650TIP3   OH271440   6.572   6.527  12.251  0.2409 -0.3645 -0.2645
16650TIP3    H171441   6.482   6.504  12.276 -0.0574  1.7345  0.7794
16650TIP3    H271442   6.563   6.582  12.174  0.7116 -0.7788 -0.6273
16651TIP3   OH271443   6.738   5.003  10.731 -0.4508  0.7172 -0.3621
16651TIP3    H171444   6.818   5.045  10.761 -0.2021  0.3907 -0.5696
16651TIP3    H271445   6.734   5.023  10.637 -0.2783  0.1951 -0.4843
16652TIP3   OH271446   6.580   4.570  14.091 -0.3123  0.2303  0.8846
16652TIP3    H171447   6.559   4.513  14.165  0.0137 -0.5119  0.4076
16652TIP3    H271448   6.532   4.533  14.018  2.0506 -1.1266 -0.0957
16653TIP3   OH271449   2.963   1.281  13.148  0.2576 -0.1070 -0.4081
16653TIP3    H171450   3.049   1.322  13.154 -0.1399  0.7639 -0.3899
16653TIP3    H271451   2.980   1.187  13.149  1.1800  0.0557 -0.0529
16654TIP3   OH271452   5.488   1.616  14.045  0.0599 -0.1192 -0.5594
16654TIP3    H171453   5.523   1.527  14.045  1.8445  0.5260  0.4343
16654TIP3    H271454   5.564   1.672  14.062 -1.0895  1.5707 -0.6743
16655TIP3   OH271455   5.783   5.302  15.197  0.0302 -0.4041  0.2393
16655TIP3    H171456   5.871   5.310  15.233  0.8461 -1.8307 -1.3041
16655TIP3    H271457   5.785   5.354  15.117 -0.1570 -1.3672 -0.4052
16656TIP3   OH271458   3.792   4.872   2.373 -0.3339 -0.2890 -0.0591
16656TIP3    H171459   3.821   4.854   2.462  0.5778 -1.2031 -0.5212
16656TIP3    H271460   3.870   4.857   2.319 -0.5804  1.2785 -0.9160
16657TIP3   OH271461   0.022   2.572   0.925  0.0903 -0.3993  0.8563
16657TIP3    H171462   0.015   2.478   0.942  0.7750 -0.9305 -1.3910
16657TIP3    H271463   0.067   2.577   0.841 -0.5236  1.9349  0.6095
16658TIP3   OH271464   3.489   4.119  10.529  0.4203  0.7805 -0.1870
16658TIP3    H171465   3.560   4.055  10.537 -2.7703 -3.0600  0.5042
16658TIP3    H271466   3.496   4.152  10.439  1.8676 -1.0685 -0.8108
16659TIP3   OH271467   5.262   4.748   1.759 -0.1800 -0.2486 -0.1675
16659TIP3    H171468   5.293   4.809   1.826 -0.3210  0.3251 -0.6238
16659TIP3    H271469   5.269   4.796   1.677  0.3333 -1.0721 -0.6194
16660TIP3   OH271470   3.205   3.010   4.342  0.9239  0.9484  0.2236
16660TIP3    H171471   3.137   2.943   4.348  1.4197  0.4650  0.6976
16660TIP3    H271472   3.160   3.089   4.315  0.1664  0.6507  0.5991
16661TIP3   OH271473   1.728   0.887   3.379  0.0626  0.0693  0.0846
16661TIP3    H171474   1.779   0.968   3.386 -0.9202  0.9430 -1.9552
16661TIP3    H271475   1.779   0.831   3.320 -0.7140  0.5004 -1.0476
16662TIP3   OH271476   4.695   5.578  16.837  0.0426 -0.0036 -0.5457
16662TIP3    H171477   4.758   5.571  16.766 -0.7865  0.6047 -1.3614
16662TIP3    H271478   4.732   5.644  16.895  1.4749 -1.5608  0.4338
16663TIP3   OH271479   3.740   6.637   2.268 -0.3118 -0.1019  0.1221
16663TIP3    H171480   3.697   6.717   2.300 -1.0234  0.4680 -2.1271
16663TIP3    H271481   3.747   6.581   2.346 -1.6549  1.3173  1.3287
16664TIP3   OH271482   2.428   3.793  12.925 -0.6364 -0.4417 -0.1661
16664TIP3    H171483   2.335   3.802  12.902 -0.7941 -1.9454 -0.2235
16664TIP3    H271484   2.442   3.699  12.929  0.6877 -0.2267  0.7037
16665TIP3   OH271485   6.669   3.865   4.020  0.1180  0.0087 -0.0773
16665TIP3    H171486   6.666   3.872   4.116  0.4029 -4.0160  0.4149
16665TIP3    H271487   6.762   3.867   3.999  0.3742 -2.8098  0.3287
16666TIP3   OH271488   1.061   2.213  10.508  0.2135 -0.2464  0.1872
16666TIP3    H171489   1.030   2.303  10.502  0.7985  0.0484  1.2915
16666TIP3    H271490   1.147   2.215  10.467  0.3421 -0.2316  0.4528
16667TIP3   OH271491   1.507   3.604  13.960  0.5042  0.2251  0.2901
16667TIP3    H171492   1.429   3.549  13.952 -1.4664  2.3193  3.0277
16667TIP3    H271493   1.499   3.667  13.889  0.0722 -0.0053  0.1286
16668TIP3   OH271494   2.197   4.261  13.547 -0.6816 -0.1466 -0.0602
16668TIP3    H171495   2.227   4.297  13.463 -2.6014  1.1101 -0.2521
16668TIP3    H271496   2.198   4.335  13.607 -1.3949 -0.5596  0.4762
16669TIP3   OH271497   4.183   1.060   5.549  0.1975 -0.0990 -0.6268
16669TIP3    H171498   4.199   0.993   5.616  2.3172  0.2712 -0.6758
16669TIP3    H271499   4.205   1.143   5.592  0.5635  0.2462 -1.4505
16670TIP3   OH271500   0.454   2.660  11.893 -0.0259  0.1834  0.5057
16670TIP3    H171501   0.490   2.661  11.804  0.8500  1.3223  0.8506
16670TIP3    H271502   0.529   2.640  11.949 -0.4255  0.2044  1.0585
16671TIP3   OH271503   2.850   0.955  11.905 -0.0514  0.4614 -0.1136
16671TIP3    H171504   2.881   0.865  11.915  0.0452  0.4590 -0.4233
16671TIP3    H271505   2.773   0.960  11.960  0.5072  0.4687  0.6767
16672TIP3   OH271506   1.395   6.040  16.414  0.3195 -0.0494  0.0296
16672TIP3    H171507   1.311   5.996  16.404  2.3385 -3.9181 -1.5452
16672TIP3    H271508   1.396   6.067  16.506 -3.0062  1.2498 -0.1649
16673TIP3   OH271509   0.978   3.940   0.656 -0.0482 -0.4350 -0.6980
16673TIP3    H171510   0.966   3.990   0.575  0.4316  0.5796 -0.1620
16673TIP3    H271511   1.013   4.003   0.718 -1.1866 -0.9970  0.5569
16674TIP3   OH271512   3.217   1.634   5.146  0.5438 -0.0620  0.8857
16674TIP3    H171513   3.253   1.693   5.080 -0.2408  0.2501  0.7292
16674TIP3    H271514   3.183   1.692   5.214  0.2146 -0.3532  0.9697
16675TIP3   OH271515   4.924   1.449  12.897  0.3480  0.2626 -0.5406
16675TIP3    H171516   4.955   1.364  12.864  0.7060 -0.2885  1.0987
16675TIP3    H271517   4.839   1.429  12.937  0.1448  0.8066 -0.6978
16676TIP3   OH271518   1.539   4.637   1.056 -0.1626 -0.3331  0.3611
16676TIP3    H171519   1.585   4.554   1.068  0.7991  0.2212  0.5836
16676TIP3    H271520   1.608   4.703   1.051 -0.8545  0.3247 -1.1078
16677TIP3   OH271521   4.853   0.008  10.692 -0.0194  0.7996  0.2082
16677TIP3    H171522   4.765  -0.023  10.711  1.2327 -2.5191  1.3015
16677TIP3    H271523   4.855   0.098  10.726 -3.0709  1.1769 -0.3663
16678TIP3   OH271524   4.837   3.189   3.955 -0.3656  0.0969 -0.6380
16678TIP3    H171525   4.789   3.241   3.891 -2.7595 -1.4521 -0.2227
16678TIP3    H271526   4.858   3.108   3.909  0.0038 -0.0758 -0.1716
16679TIP3   OH271527   0.447   0.767   4.576  0.2400 -0.2969  0.1482
16679TIP3    H171528   0.468   0.676   4.559  0.1951 -0.5468  1.3390
16679TIP3    H271529   0.467   0.779   4.669  0.2146  0.8949  0.0145
16680TIP3   OH271530   3.532   4.274   6.199 -0.0483  0.1092  0.2995
16680TIP3    H171531   3.512   4.190   6.159 -0.0082  1.6654 -3.3873
16680TIP3    H271532   3.627   4.274   6.212  0.3383  0.4518 -2.1414
16681TIP3   OH271533   5.827   1.730  12.952  0.6801  0.0144  0.4918
16681TIP3    H171534   5.830   1.642  12.991 -0.0735  0.5136  1.7626
16681TIP3    H271535   5.755   1.773  12.998  1.3059  1.4368  0.1765
16682TIP3   OH271536   0.888   0.142  10.989  0.3913 -0.3077  0.4510
16682TIP3    H171537   0.799   0.178  10.998  1.4104  1.8977  2.8693
16682TIP3    H271538   0.935   0.209  10.938  0.8865 -1.1020 -0.1548
16683TIP3   OH271539   4.798   1.116  13.231 -0.8622  0.3051 -0.0405
16683TIP3    H171540   4.753   1.033  13.219 -0.8244  0.3304 -0.3700
16683TIP3    H271541   4.880   1.093  13.276 -1.2677  0.2783  0.6920
16684TIP3   OH271542   0.253   1.344   4.839  0.3401 -0.6645  0.4711
16684TIP3    H171543   0.298   1.371   4.920 -0.0853 -2.2642  1.2830
16684TIP3    H271544   0.315   1.287   4.795  0.3858 -0.1763 -0.0988
16685TIP3   OH271545   0.139   1.090  13.964  0.3087 -0.2651  0.3547
16685TIP3    H171546   0.144   1.000  13.995  0.9918 -1.3563 -2.5791
16685TIP3    H271547   0.184   1.089  13.879 -1.5376  2.3471 -0.7967
16686TIP3   OH271548   0.895   6.707   4.884 -0.2614  0.3002  0.0366
16686TIP3    H171549   0.845   6.639   4.930 -0.9093  0.0738 -0.9529
16686TIP3    H271550   0.942   6.659   4.816 -0.1128  0.7463 -0.1787
16687TIP3   OH271551   3.921   3.859  14.435 -0.0761  0.6065 -0.1282
16687TIP3    H171552   3.843   3.885  14.485  0.4751  1.8289  0.1482
16687TIP3    H271553   3.905   3.890  14.346 -1.8588 -3.1698 -1.3065
16688TIP3   OH271554   1.723   0.494   5.461 -0.1520 -0.0192  0.8149
16688TIP3    H171555   1.662   0.522   5.530 -3.2819  1.7499 -2.3222
16688TIP3    H271556   1.683   0.415   5.424  0.8725 -0.3136  0.3180
16689TIP3   OH271557   2.233   5.382  15.511  0.9273 -0.1681 -0.0249
16689TIP3    H171558   2.144   5.356  15.487  1.5955 -0.6259 -2.2953
16689TIP3    H271559   2.224   5.428  15.594 -1.5705  0.7197 -0.7211
16690TIP3   OH271560   2.713   6.148   3.936 -0.5320  0.3043  0.6384
16690TIP3    H171561   2.665   6.137   3.854 -0.8058  2.3199  0.4785
16690TIP3    H271562   2.726   6.059   3.968 -0.8227 -0.5088 -1.3480
16691TIP3   OH271563   0.079   6.575   2.921 -0.8365 -0.0738  0.1048
16691TIP3    H171564   0.108   6.617   3.002 -1.5358  0.3226  0.1615
16691TIP3    H271565   0.025   6.641   2.878 -0.7380 -0.3990 -0.5310
16692TIP3   OH271566   0.204   3.036  16.718  0.5056  0.3923 -0.2946
16692TIP3    H171567   0.133   3.054  16.656  1.5313 -1.7673 -2.2849
16692TIP3    H271568   0.212   2.940  16.717  1.9819  0.4440  1.5973
16693TIP3   OH271569   5.675   3.050   3.945 -0.4242 -0.3917  0.7006
16693TIP3    H171570   5.631   3.135   3.937  2.5603  1.0765 -4.1391
16693TIP3    H271571   5.633   2.995   3.878  0.8000 -1.1142  0.5041
16694TIP3   OH271572   2.955   0.956  10.882  0.0082  0.0257 -0.2325
16694TIP3    H171573   2.911   0.892  10.826 -0.1454 -0.6059  0.5919
16694TIP3    H271574   2.977   1.028  10.823 -0.3820 -0.5066 -1.0505
16695TIP3   OH271575   6.429   0.592  15.087 -0.3457 -0.0889 -0.0636
16695TIP3    H171576   6.398   0.602  15.177  0.3450  2.2701 -0.0119
16695TIP3    H271577   6.437   0.682  15.055  2.4594 -0.7073 -1.4047
16696TIP3   OH271578   1.279   4.625   5.190  0.2165  0.0466  0.0551
16696TIP3    H171579   1.274   4.579   5.106  1.6568 -0.2813  0.1258
16696TIP3    H271580   1.288   4.717   5.167 -2.7896  0.3935 -0.0878
16697TIP3   OH271581   1.139   2.182  16.760  0.1684 -0.1053 -0.6556
16697TIP3    H171582   1.140   2.087  16.770 -2.0612 -0.1079  0.0548
16697TIP3    H271583   1.122   2.215  16.848  1.2353  0.9940 -0.8346
16698TIP3   OH271584   6.630   5.669   4.172  0.5007 -0.3353 -0.0912
16698TIP3    H171585   6.611   5.758   4.143 -1.9002 -0.5322  0.6045
16698TIP3    H271586   6.715   5.675   4.216 -1.3700  2.6443  3.7574
16699TIP3   OH271587   2.716   3.415  11.830  0.2640 -0.2114 -0.4766
16699TIP3    H171588   2.789   3.382  11.778 -0.4519 -0.3119 -1.4553
16699TIP3    H271589   2.644   3.356  11.809 -0.4328  0.6333 -0.5094
16700TIP3   OH271590   6.814   1.298   1.305 -0.0308  0.6272  0.5366
16700TIP3    H171591   6.801   1.362   1.374 -0.9175  1.7754 -0.6446
16700TIP3    H271592   6.726   1.268   1.283 -0.1500  2.5687 -2.1389
16701TIP3   OH271593   5.044   3.792  11.809 -0.6164  0.3133 -0.2561
16701TIP3    H171594   5.099   3.857  11.853 -0.7512  0.8911 -0.9383
16701TIP3    H271595   5.061   3.711  11.858 -0.0282  0.7282  0.2554
16702TIP3   OH271596   0.566   5.589  11.907 -0.4668 -0.7207 -0.2621
16702TIP3    H171597   0.491   5.646  11.891  1.1080  1.3967 -0.5506
16702TIP3    H271598   0.591   5.556  11.820 -0.6015 -0.8043 -0.2681
16703TIP3   OH271599   5.466   6.171   4.617  0.0187 -0.1492 -0.2697
16703TIP3    H171600   5.482   6.130   4.702 -0.7717  1.2441  0.5891
16703TIP3    H271601   5.396   6.234   4.633 -1.7951 -1.4353 -2.4706
16704TIP3   OH271602   4.664   2.956   3.628  0.1874  0.5620  0.6248
16704TIP3    H171603   4.678   2.887   3.692 -0.6672  1.0006  1.3220
16704TIP3    H271604   4.572   2.946   3.602  0.1192  1.2619  0.5523
16705TIP3   OH271605   6.648   6.537   4.642 -0.6508  0.2366  0.6440
16705TIP3    H171606   6.607   6.597   4.704 -0.7986  1.4351 -0.5728
16705TIP3    H271607   6.718   6.495   4.692 -3.6461 -2.4401  3.0675
16706TIP3   OH271608   5.993   5.043  11.866 -0.2756 -0.0296 -0.3411
16706TIP3    H171609   5.965   5.121  11.818  2.9396 -0.3355 -3.0870
16706TIP3    H271610   5.971   5.062  11.957 -0.6846  3.5718 -1.0334
16707TIP3   OH271611   2.201   6.206  10.963  0.3424 -0.2794 -0.2270
16707TIP3    H171612   2.228   6.133  10.907  1.6368  0.1961 -0.2585
16707TIP3    H271613   2.152   6.264  10.905  0.8784 -0.2465 -0.6621
16708TIP3   OH271614   0.766   2.580   5.102  0.6164  0.1921  0.0302
16708TIP3    H171615   0.844   2.586   5.156  0.6469 -1.2785  0.1756
16708TIP3    H271616   0.774   2.653   5.040  2.0608  0.0836  0.0710
16709TIP3   OH271617   2.583   5.190  11.246 -0.5903  0.4082  0.4310
16709TIP3    H171618   2.630   5.132  11.306 -1.0209  0.7454  1.1003
16709TIP3    H271619   2.535   5.250  11.303  2.0050  3.2851 -0.1308
16710TIP3   OH271620   3.173   2.021   0.805  0.0421 -0.0722  0.2748
16710TIP3    H171621   3.137   1.957   0.744 -0.2318  0.3219  0.0200
16710TIP3    H271622   3.122   2.009   0.886 -0.2511  0.0615  0.1135
16711TIP3   OH271623   1.161   6.751  14.617  0.3515  0.1824  0.2093
16711TIP3    H171624   1.117   6.720  14.538  1.2577 -1.6791  0.3780
16711TIP3    H271625   1.232   6.806  14.585 -0.9120  1.6692 -0.1308
16712TIP3   OH271626   4.671   1.778   1.522 -0.5233  0.1729  0.6320
16712TIP3    H171627   4.609   1.846   1.498  0.8302  0.8387 -1.1898
16712TIP3    H271628   4.670   1.717   1.447  1.6700  0.7215  0.0801
16713TIP3   OH271629   4.080   3.606   2.479 -0.2400 -0.0936 -0.1802
16713TIP3    H171630   4.041   3.681   2.434  2.3325  1.8439  0.6172
16713TIP3    H271631   4.126   3.558   2.410  0.6907  0.8288 -0.2090
16714TIP3   OH271632   4.580   3.387  16.948 -0.0323  0.3730 -0.1860
16714TIP3    H171633   4.530   3.465  16.923 -0.3201  0.4313  0.5446
16714TIP3    H271634   4.648   3.420  17.007  0.3484  0.1793 -0.5159
16715TIP3   OH271635   5.984   4.688  15.029 -0.1268  0.2158 -0.1280
16715TIP3    H171636   6.032   4.606  15.016 -1.4397 -0.7048  0.5818
16715TIP3    H271637   5.999   4.710  15.121 -0.2823  0.4211 -0.1526
16716TIP3   OH271638   1.943   5.700  11.618  0.3381  0.3511 -0.0500
16716TIP3    H171639   1.973   5.622  11.573  1.9231  0.9573 -0.0961
16716TIP3    H271640   1.895   5.666  11.694  0.7188 -0.6580 -0.2417
16717TIP3   OH271641   0.013   4.524   2.710  0.3866  0.3736  0.0830
16717TIP3    H171642   0.037   4.612   2.681  0.7938 -0.0052 -0.7660
16717TIP3    H271643   0.073   4.506   2.782 -0.8196  1.4361  1.4145
16718TIP3   OH271644   4.702   5.996   4.557  0.1321 -0.3732 -0.2012
16718TIP3    H171645   4.770   6.038   4.610  2.0116 -0.9098 -2.0232
16718TIP3    H271646   4.648   6.068   4.526  0.4000  0.1781  0.5812
16719TIP3   OH271647   3.088   4.300  10.429 -0.1792 -0.3104  0.1987
16719TIP3    H171648   3.118   4.344  10.509  1.4942 -0.8801 -0.0630
16719TIP3    H271649   3.064   4.371  10.370  1.0482  0.2365  0.3154
16720TIP3   OH271650   1.763   6.007  12.099  0.1991  0.0352  0.1234
16720TIP3    H171651   1.807   6.060  12.033 -0.8102  0.4595 -0.2172
16720TIP3    H271652   1.829   5.942  12.125  0.7071  0.0576 -1.0595
16721TIP3   OH271653   2.162   6.505  15.936 -0.4939  0.5636 -0.4491
16721TIP3    H171654   2.241   6.558  15.932  0.7314 -1.2445 -1.3350
16721TIP3    H271655   2.116   6.523  15.854  0.5461 -0.6231 -1.3219
16722TIP3   OH271656   5.724   1.129  15.841 -0.1050 -0.3163  0.4449
16722TIP3    H171657   5.760   1.141  15.929  0.1327 -1.8318  0.5750
16722TIP3    H271658   5.686   1.214  15.819  2.3993  0.9619  0.8066
16723TIP3   OH271659   0.528   6.776  12.069  0.4651  0.4823  0.3612
16723TIP3    H171660   0.560   6.772  11.979 -0.8004  2.5612 -0.2482
16723TIP3    H271661   0.445   6.823  12.063 -0.8732 -1.4394  2.3375
16724TIP3   OH271662   1.051   1.630   4.442  0.0029 -0.1349  0.7672
16724TIP3    H171663   1.070   1.541   4.414  0.7290  0.8093 -2.1474
16724TIP3    H271664   1.130   1.658   4.489  0.8863 -0.2159 -0.6230
16725TIP3   OH271665   3.683   1.241  14.373  0.1297 -0.2029  0.0418
16725TIP3    H171666   3.601   1.206  14.408 -1.1224  1.9155 -0.5474
16725TIP3    H271667   3.745   1.233  14.446 -1.3120  0.4029  1.4168
16726TIP3   OH271668   5.511   4.307  11.861  0.6877  1.0460 -0.3764
16726TIP3    H171669   5.530   4.400  11.875  1.4949  0.8331  0.0041
16726TIP3    H271670   5.512   4.269  11.949 -2.3191  1.1282 -0.2036
16727TIP3   OH271671   0.657   5.807   4.275 -0.0674 -0.3679 -0.3670
16727TIP3    H171672   0.569   5.790   4.310  0.0977 -1.3656 -0.4208
16727TIP3    H271673   0.704   5.846   4.349 -1.4309  3.3186 -1.1982
16728TIP3   OH271674   3.760   6.113  12.046 -0.3857  0.8300 -0.4014
16728TIP3    H171675   3.803   6.195  12.071  0.1028  0.3091  0.5036
16728TIP3    H271676   3.800   6.090  11.962  0.3664  0.8928 -0.0693
16729TIP3   OH271677   0.686   3.399   3.581  0.1891 -0.0842 -0.7682
16729TIP3    H171678   0.704   3.401   3.487  2.4724 -0.9342 -0.4135
16729TIP3    H271679   0.763   3.359   3.619 -0.8130 -0.0284  1.4736
16730TIP3   OH271680   1.990   0.657  12.703 -0.1835  0.6008 -0.0657
16730TIP3    H171681   2.043   0.579  12.722 -1.4061  0.0164  1.0871
16730TIP3    H271682   1.905   0.639  12.743 -0.1680  2.9883  1.2228
16731TIP3   OH271683   6.109   3.629  16.842 -0.4036 -0.4638  0.4049
16731TIP3    H171684   6.178   3.667  16.895 -0.3819  0.3021 -0.1489
16731TIP3    H271685   6.120   3.534  16.851  0.1831 -0.3414  0.9966
16732TIP3   OH271686   4.183   3.583   4.657  0.3537 -0.2916  0.6126
16732TIP3    H171687   4.105   3.530   4.670 -0.8228  1.2331  0.0240
16732TIP3    H271688   4.228   3.579   4.742 -0.7827 -0.5456  1.2282
16733TIP3   OH271689   6.230   3.098  16.257 -0.8373  0.4496 -0.2032
16733TIP3    H171690   6.221   3.141  16.172 -0.2748  0.9650 -0.0167
16733TIP3    H271691   6.241   3.170  16.319  2.4228  0.0798 -0.1643
16734TIP3   OH271692   4.696   4.538  12.962 -0.2492  0.6348 -0.3705
16734TIP3    H171693   4.665   4.579  12.881 -0.3311  0.6710 -0.3211
16734TIP3    H271694   4.642   4.577  13.031 -1.1001 -0.3820 -0.4421
16735TIP3   OH271695   6.625   5.267  13.859  0.2663  0.3042  0.3128
16735TIP3    H171696   6.596   5.178  13.880  0.4525  0.5486  1.6765
16735TIP3    H271697   6.546   5.310  13.827 -0.2460  0.1521  1.3285
16736TIP3   OH271698   3.605   4.808  16.193 -0.0503 -0.0928 -0.4708
16736TIP3    H171699   3.672   4.874  16.214  1.3964 -1.5885 -0.1841
16736TIP3    H271700   3.584   4.825  16.101 -0.1568  1.1466 -0.2343
16737TIP3   OH271701   3.637   1.394   3.721 -0.2082  0.4079 -0.3278
16737TIP3    H171702   3.652   1.485   3.744  1.3484  0.6089 -1.8612
16737TIP3    H271703   3.668   1.344   3.797  2.6563  1.0869 -0.9234
16738TIP3   OH271704   3.277   0.956  13.217 -0.3705 -0.4570 -0.0085
16738TIP3    H171705   3.255   0.905  13.138 -0.6499  1.0347 -0.9336
16738TIP3    H271706   3.317   0.892  13.276 -0.2247 -1.6444 -1.3308
16739TIP3   OH271707   5.695   0.951   0.749 -0.1514  0.6691 -0.2166
16739TIP3    H171708   5.737   0.867   0.730  0.7093  1.2760 -1.1318
16739TIP3    H271709   5.715   1.005   0.672 -0.6067  1.7354  0.3963
16740TIP3   OH271710   1.691   2.865   2.228  0.0596 -0.0493  0.1957
16740TIP3    H171711   1.751   2.842   2.157  0.5469  0.5949  0.3970
16740TIP3    H271712   1.687   2.786   2.282  2.7573  0.6709  1.6137
16741TIP3   OH271713   0.980   0.725   1.311  0.2250 -0.0007 -0.2646
16741TIP3    H171714   0.986   0.819   1.327 -0.0157  0.0420 -0.4253
16741TIP3    H271715   1.019   0.712   1.224  0.2440 -0.0483 -0.2493
16742TIP3   OH271716   3.219   0.988   0.414  0.6567  0.1207  0.1866
16742TIP3    H171717   3.216   1.071   0.462 -3.4470 -0.0261  0.5153
16742TIP3    H271718   3.155   0.932   0.459  2.6707 -3.0308 -0.5277
16743TIP3   OH271719   6.490   5.337  11.865  0.3363 -0.0785 -0.5455
16743TIP3    H171720   6.550   5.300  11.930  0.4397  0.5367 -0.2902
16743TIP3    H271721   6.528   5.422  11.843 -0.7492  0.5802  0.0537
16744TIP3   OH271722   1.835   2.465  14.241 -0.2247  0.1105  0.0640
16744TIP3    H171723   1.803   2.451  14.152  3.9516 -3.3246 -1.3208
16744TIP3    H271724   1.815   2.383  14.287  0.1937  0.7042  1.3641
16745TIP3   OH271725   6.150   6.644  11.651 -0.0225  0.1810  0.1350
16745TIP3    H171726   6.200   6.569  11.620 -0.7137 -0.8848  1.4734
16745TIP3    H271727   6.204   6.681  11.722 -0.7429 -0.5080  1.0655
16746TIP3   OH271728   3.922   0.205   2.889  0.3475 -0.6065 -0.4936
16746TIP3    H171729   3.831   0.194   2.860  0.8697 -0.7552 -2.1707
16746TIP3    H271730   3.924   0.164   2.976 -1.4140  0.3328  0.0405
16747TIP3   OH271731   4.576   4.969   4.861  0.2395 -0.6002  0.1418
16747TIP3    H171732   4.637   4.905   4.824 -0.6824 -0.8181 -1.0337
16747TIP3    H271733   4.523   4.918   4.922  1.0830 -0.4452  1.0381
16748TIP3   OH271734   4.713   0.883  11.924  0.9359  0.4623  0.0660
16748TIP3    H171735   4.809   0.883  11.928  1.0253  2.7300 -0.6980
16748TIP3    H271736   4.686   0.926  12.006  0.5014 -1.1121  0.7732
16749TIP3   OH271737   1.997   3.847   1.335 -0.0050 -0.3196  0.0095
16749TIP3    H171738   1.949   3.799   1.402  1.3377 -0.5151  0.8763
16749TIP3    H271739   2.089   3.828   1.353  0.4967  1.4619 -0.4813
16750TIP3   OH271740   6.788   4.977  13.339  0.0002  0.4882 -0.3321
16750TIP3    H171741   6.779   4.954  13.432 -1.7880  0.4310 -0.4820
16750TIP3    H271742   6.882   4.989  13.326  0.2916  0.4094  1.4664
16751TIP3   OH271743   0.678   4.162  10.017  0.0636  0.2453  0.1088
16751TIP3    H171744   0.751   4.159   9.954 -0.2196  0.3907 -0.2299
16751TIP3    H271745   0.706   4.106  10.088  0.3285 -0.0404 -0.2152
16752TIP3   OH271746   5.492   2.145   5.626 -0.2539  0.4061  0.4590
16752TIP3    H171747   5.433   2.146   5.551  1.4887  1.0820 -0.9990
16752TIP3    H271748   5.504   2.053   5.647  1.8796 -0.1078 -2.4024
16753TIP3   OH271749   3.748   1.508   4.715  0.0194  0.4805 -0.5415
16753TIP3    H171750   3.785   1.505   4.804 -0.3404 -1.6445 -0.4331
16753TIP3    H271751   3.721   1.600   4.705 -2.3288  0.3000  2.5653
16754TIP3   OH271752   1.508   2.624  13.337  0.6906  0.2104 -0.2232
16754TIP3    H171753   1.555   2.585  13.263 -0.0678  0.4430 -0.8404
16754TIP3    H271754   1.524   2.564  13.410 -0.0678 -1.0316 -1.0377
16755TIP3   OH271755   3.130   3.147  14.486 -0.3483  0.0526  0.0520
16755TIP3    H171756   3.103   3.065  14.445 -1.2647  0.6013 -0.4660
16755TIP3    H271757   3.055   3.175  14.537 -0.0429  0.5655  0.2270
16756TIP3   OH271758   6.623   4.339   5.112  0.8837  0.0002 -0.1512
16756TIP3    H171759   6.696   4.298   5.067  0.5287 -3.7424  2.2722
16756TIP3    H271760   6.658   4.362   5.198 -0.1029  0.8817  0.0372
16757TIP3   OH271761   0.057   5.575   1.325  0.1893  0.4184  0.7957
16757TIP3    H171762  -0.014   5.639   1.315  2.3082  3.1678  1.9310
16757TIP3    H271763   0.111   5.611   1.395  2.2432 -2.0054  0.5708
16758TIP3   OH271764   1.871   1.199   2.031  0.3327 -0.0827  0.0921
16758TIP3    H171765   1.937   1.234   2.090 -0.7536 -0.1287  1.3755
16758TIP3    H271766   1.795   1.182   2.086 -0.8059  0.0602 -1.3506
16759TIP3   OH271767   1.756   5.414   4.107  0.0309 -0.1287  0.3865
16759TIP3    H171768   1.815   5.474   4.153 -1.0372  1.2536 -0.0148
16759TIP3    H271769   1.815   5.358   4.056  1.1029 -0.2041  1.6603
16760TIP3   OH271770   2.470   0.669  12.025 -0.4654  0.1106 -0.1474
16760TIP3    H171771   2.494   0.710  12.108 -0.7135  0.4022 -0.2179
16760TIP3    H271772   2.406   0.729  11.986 -0.8652 -0.3681 -0.2338
16761TIP3   OH271773   3.991   1.107  12.911  0.8433 -0.8529  0.0945
16761TIP3    H171774   3.921   1.163  12.944  1.4831 -0.0371  0.1155
16761TIP3    H271775   3.973   1.099  12.818  0.2920 -1.2876  0.2373
16762TIP3   OH271776   3.090   3.646  12.765  0.1409 -0.1420  0.1118
16762TIP3    H171777   3.032   3.581  12.804  0.4022  0.6894  1.9892
16762TIP3    H271778   3.178   3.616  12.785  0.2710  0.5563  0.6464
16763TIP3   OH271779   4.007   3.242  13.086  0.4030  0.2263 -0.0816
16763TIP3    H171780   4.002   3.328  13.126 -2.5709 -0.2010  0.6574
16763TIP3    H271781   4.097   3.213  13.103  0.2821  1.4351  3.4125
16764TIP3   OH271782   2.627   3.422  12.537 -0.2389 -0.3029  0.0352
16764TIP3    H171783   2.669   3.353  12.486 -0.1858  0.4397 -0.9507
16764TIP3    H271784   2.534   3.399  12.536 -0.3461  0.1190 -1.0920
16765TIP3   OH271785   5.738   3.331  14.725  0.3101  0.0350  0.0014
16765TIP3    H171786   5.746   3.251  14.778 -0.4984  0.2011  0.3809
16765TIP3    H271787   5.766   3.401  14.784 -3.0209  0.5489  1.1342
16766TIP3   OH271788   5.903   3.703  13.861  0.2425  0.0961  0.6692
16766TIP3    H171789   5.960   3.745  13.797  0.3434 -0.5293  0.3352
16766TIP3    H271790   5.824   3.681  13.812  0.6097 -1.0438  0.5504
16767TIP3   OH271791   6.019   2.625  13.013 -0.0902  0.3322  0.5735
16767TIP3    H171792   6.044   2.705  13.060  2.4563 -1.3979  2.4323
16767TIP3    H271793   6.080   2.620  12.940  0.3457 -0.3178  0.9712
16768TIP3   OH271794   0.613   1.132  15.296  0.2760  0.5338 -0.5313
16768TIP3    H171795   0.611   1.228  15.296 -0.6620  0.5497 -1.7736
16768TIP3    H271796   0.556   1.107  15.369 -0.2574  0.9421 -0.7966
16769TIP3   OH271797   1.128   4.963   4.545  0.5883 -0.2660 -0.1884
16769TIP3    H171798   1.038   4.940   4.568 -0.4363  2.9491 -0.4348
16769TIP3    H271799   1.134   4.948   4.451  0.3950 -0.7239 -0.1279
16770TIP3   OH271800   3.667   2.349   2.402  0.5424  0.3556  0.6508
16770TIP3    H171801   3.730   2.421   2.398  1.2277 -0.2768 -1.7064
16770TIP3    H271802   3.651   2.326   2.310 -1.7146 -0.7434  1.2464
16771TIP3   OH271803   0.526   0.796   0.167  1.0071 -0.4248 -0.0985
16771TIP3    H171804   0.461   0.818   0.234  0.6116  1.2489 -0.9757
16771TIP3    H271805   0.474   0.759   0.095  1.3423 -1.4587  0.1694
16772TIP3   OH271806   0.634   4.298  11.702 -0.2284 -0.7536 -0.0257
16772TIP3    H171807   0.705   4.300  11.766 -0.5494  1.0550  0.3225
16772TIP3    H271808   0.675   4.265  11.622  0.4090 -2.0708  0.8045
16773TIP3   OH271809   3.589   1.159  15.439  0.2260 -0.1764  0.5729
16773TIP3    H171810   3.680   1.129  15.432  0.3873  0.3030  0.5813
16773TIP3    H271811   3.537   1.084  15.409  0.6562 -0.2034 -0.1270
16774TIP3   OH271812   6.330   5.045  12.202 -0.2753 -0.2264 -0.3794
16774TIP3    H171813   6.244   5.070  12.167 -1.1272 -0.6783  1.3183
16774TIP3    H271814   6.377   5.128  12.209 -1.4947  0.4002  1.0177
16775TIP3   OH271815   2.108   3.300   5.846 -0.6939 -0.2195  0.4123
16775TIP3    H171816   2.032   3.253   5.810  0.4255 -1.3442 -0.5771
16775TIP3    H271817   2.095   3.298   5.940 -2.6152  0.8876  0.2321
16776TIP3   OH271818   3.602   0.644   0.685  0.1665  0.2626 -0.0468
16776TIP3    H171819   3.694   0.630   0.705  0.1783  1.1591  0.5833
16776TIP3    H271820   3.580   0.574   0.624  1.6417  0.9136 -1.3989
16777TIP3   OH271821   0.060   1.784  11.375 -0.1615  0.7127  0.5001
16777TIP3    H171822  -0.017   1.751  11.329 -0.4772 -0.5286  1.8521
16777TIP3    H271823   0.133   1.732  11.342 -0.4100 -0.2765  1.4642
16778TIP3   OH271824   2.865   2.382  13.442  0.0003  0.8676  0.1744
16778TIP3    H171825   2.910   2.380  13.357 -0.0573  0.1345  0.1507
16778TIP3    H271826   2.829   2.293  13.452 -2.8510  1.8138 -0.5613
16779TIP3   OH271827   5.097   5.994  15.529 -0.7826 -0.3191  0.2931
16779TIP3    H171828   5.178   5.953  15.497 -0.9964 -0.9375  0.5220
16779TIP3    H271829   5.092   6.077  15.482 -0.6832 -0.8584 -0.7107
16780TIP3   OH271830   2.722   0.856   4.519  0.7249  0.2350  0.3723
16780TIP3    H171831   2.802   0.903   4.545  1.0299  1.1792 -1.9683
16780TIP3    H271832   2.652   0.921   4.528  0.4404 -0.1669  1.1023
16781TIP3   OH271833   5.419   5.119   0.241  1.0774  0.5110 -0.1102
16781TIP3    H171834   5.339   5.171   0.245 -0.5199 -1.8828  1.9488
16781TIP3    H271835   5.438   5.112   0.147  1.1592  4.2287 -0.5295
16782TIP3   OH271836   2.817   5.595  15.345  0.3714  0.1770  0.6195
16782TIP3    H171837   2.787   5.653  15.415 -2.4523 -0.5629  0.1553
16782TIP3    H271838   2.781   5.634  15.265  0.4522 -0.9193  0.0276
16783TIP3   OH271839   4.340   1.118   0.342  0.1906  0.1619  0.3791
16783TIP3    H171840   4.344   1.042   0.401  0.1329 -0.0606  0.0955
16783TIP3    H271841   4.362   1.192   0.399  0.7864 -0.1264  0.5444
16784TIP3   OH271842   2.196   2.113  16.135  0.4787  0.6314  0.3767
16784TIP3    H171843   2.187   2.188  16.193 -2.3292  0.2599  0.5528
16784TIP3    H271844   2.238   2.148  16.057  0.3777  2.1085  0.9605
16785TIP3   OH271845   0.200   1.836  12.463  0.3537 -0.3659 -0.4150
16785TIP3    H171846   0.272   1.783  12.430  0.4267  0.3199 -1.4049
16785TIP3    H271847   0.225   1.926  12.441  1.1472  0.3716  2.8737
16786TIP3   OH271848   0.944   2.255  13.039 -0.3146  0.2986 -0.4715
16786TIP3    H171849   0.924   2.235  13.130 -1.1944 -0.6338 -0.8431
16786TIP3    H271850   0.917   2.177  12.991 -0.8867  1.1760 -1.6464
16787TIP3   OH271851   2.185   1.081   2.179 -0.2196  0.1238  0.1262
16787TIP3    H171852   2.233   1.103   2.259  0.0826 -0.0388 -0.0076
16787TIP3    H271853   2.098   1.119   2.192 -1.2326 -2.5336  1.8892
16788TIP3   OH271854   1.794   6.308  14.173 -0.7667 -0.2038  0.3905
16788TIP3    H171855   1.806   6.336  14.082 -1.2304 -2.7522 -0.5273
16788TIP3    H271856   1.845   6.371  14.223  0.1405  0.8490 -1.6979
16789TIP3   OH271857   4.021   2.972   2.236 -0.0185  0.5735 -0.0591
16789TIP3    H171858   4.075   3.021   2.174  1.7872 -1.9928 -0.6402
16789TIP3    H271859   4.083   2.923   2.290 -1.6731 -1.6376 -0.0159
16790TIP3   OH271860   2.972   1.446  15.411  0.0250 -1.1726 -0.8142
16790TIP3    H171861   3.022   1.514  15.365  1.4556 -0.4862  1.5882
16790TIP3    H271862   3.038   1.391  15.452 -0.9944  0.3482  3.3465
16791TIP3   OH271863   3.349   2.269   4.427  0.4720 -0.2014  0.2661
16791TIP3    H171864   3.289   2.246   4.498 -0.2734  0.1137 -0.2518
16791TIP3    H271865   3.434   2.237   4.457 -0.0966 -1.4160  0.6253
16792TIP3   OH271866   2.507   5.838   2.226  0.2490  0.4424 -0.0012
16792TIP3    H171867   2.578   5.902   2.236  0.2548  0.2196  1.5103
16792TIP3    H271868   2.509   5.816   2.133  1.3817  1.3358 -0.2164
16793TIP3   OH271869   6.519   5.374   3.266  0.5352  0.0349  0.3136
16793TIP3    H171870   6.559   5.414   3.189  1.2851 -1.6429 -0.2111
16793TIP3    H271871   6.564   5.413   3.341  1.3152  0.0907 -0.1815
16794TIP3   OH271872   4.247   5.429  13.259  0.6821  0.1975 -0.1295
16794TIP3    H171873   4.251   5.477  13.342  0.3136  0.9880 -0.5571
16794TIP3    H271874   4.321   5.463  13.208  0.5813  0.1141 -0.3336
16795TIP3   OH271875   5.745   1.556  15.571 -0.5320 -0.6414 -0.3103
16795TIP3    H171876   5.671   1.576  15.513 -0.4800 -1.0881 -0.5362
16795TIP3    H271877   5.735   1.616  15.645 -1.1348 -0.7203 -0.3240
16796TIP3   OH271878   5.201   4.288  13.529 -0.1311 -0.2980 -0.0911
16796TIP3    H171879   5.151   4.207  13.539 -1.4997  0.5780  0.5225
16796TIP3    H271880   5.188   4.335  13.611  0.2129  0.7707 -0.6264
16797TIP3   OH271881   1.462   5.956  11.539 -0.3205 -0.0199  0.0504
16797TIP3    H171882   1.425   5.870  11.561 -2.1835  0.4373 -1.0304
16797TIP3    H271883   1.539   5.935  11.485  0.0028 -1.0002  0.8537
16798TIP3   OH271884   0.746   2.583  10.953  0.4084  0.1938  0.0482
16798TIP3    H171885   0.688   2.593  10.878 -1.0832  1.3948  1.2987
16798TIP3    H271886   0.827   2.627  10.927 -0.2285  0.9434 -0.7078
16799TIP3   OH271887   3.785   3.568  11.125 -0.5221 -0.3591  0.4131
16799TIP3    H171888   3.698   3.566  11.085 -0.8261 -0.8789  1.0795
16799TIP3    H271889   3.845   3.549  11.053 -0.8753  0.8692 -0.2314
16800TIP3   OH271890   0.775   2.295   2.947  0.6941  0.3377  0.1087
16800TIP3    H171891   0.753   2.206   2.918  0.2690  0.4060  0.2116
16800TIP3    H271892   0.789   2.287   3.041  1.1123  0.2972  0.0459
16801TIP3   OH271893   0.335   2.726  10.939  0.0013  0.2034 -0.0362
16801TIP3    H171894   0.312   2.726  10.846 -1.1691 -3.3077  0.1033
16801TIP3    H271895   0.253   2.747  10.983  0.5475  1.8255  0.2628
16802TIP3   OH271896   3.908   2.517   0.716 -0.6777 -0.1448 -0.4120
16802TIP3    H171897   3.995   2.551   0.695 -1.1958  1.1434 -0.5853
16802TIP3    H271898   3.889   2.552   0.803 -1.8977  1.4666 -1.2708
16803TIP3   OH271899   0.571   2.352  14.305  0.2102 -0.2742 -0.7595
16803TIP3    H171900   0.569   2.342  14.400 -0.2689 -0.0618 -0.7437
16803TIP3    H271901   0.640   2.292  14.276  0.7915  0.1166 -0.2247
16804TIP3   OH271902   4.858   1.794   1.285 -0.0699  0.3776  0.4950
16804TIP3    H171903   4.917   1.746   1.344  1.7395  0.4927 -1.1146
16804TIP3    H271904   4.782   1.737   1.276  0.1477 -0.1837  1.9953
16805TIP3   OH271905   2.448   6.789  13.801  0.5263 -0.0666 -0.1495
16805TIP3    H171906   2.459   6.861  13.739 -0.4238 -0.7562 -1.1528
16805TIP3    H271907   2.367   6.809  13.846  0.7948  0.0123  0.3032
16806TIP3   OH271908   3.931   5.007  12.866 -0.1415  0.3302 -0.1511
16806TIP3    H171909   3.899   5.088  12.905  1.7514  0.4002  1.4209
16806TIP3    H271910   3.917   4.940  12.933 -2.1632 -0.8496 -1.6135
16807TIP3   OH271911   4.442   6.435  14.718 -0.5406 -0.7297  0.0529
16807TIP3    H171912   4.351   6.457  14.738 -0.9939 -2.1854 -0.2356
16807TIP3    H271913   4.436   6.381  14.638  0.7123  0.3270 -0.7949
16808TIP3   OH271914   6.218   5.712  13.265  0.1328  0.1357 -0.4210
16808TIP3    H171915   6.159   5.659  13.210 -1.5933  3.1163 -1.6852
16808TIP3    H271916   6.170   5.723  13.347 -1.7227  3.3059 -1.7638
16809TIP3   OH271917   1.232   2.593  13.382 -0.1152 -0.2423 -0.2470
16809TIP3    H171918   1.194   2.585  13.295 -0.9086  1.4975 -0.1095
16809TIP3    H271919   1.323   2.617  13.367 -0.2814  0.1743 -0.6036
16810TIP3   OH271920   1.456   0.090   1.664  0.7336 -0.1246  0.5511
16810TIP3    H171921   1.470   0.023   1.731  0.8924 -0.8586 -0.2107
16810TIP3    H271922   1.432   0.042   1.585  0.0309  0.7642  0.1988
16811TIP3   OH271923   0.407   3.496   4.081  0.1311  0.4593 -0.3552
16811TIP3    H171924   0.417   3.591   4.084  0.1020  0.5113 -1.4080
16811TIP3    H271925   0.317   3.480   4.111  0.9094  0.5337  2.2777
16812TIP3   OH271926   2.555   4.346  13.483 -0.2542 -0.2766  0.2979
16812TIP3    H171927   2.522   4.434  13.462 -1.4184 -1.2007 -2.1436
16812TIP3    H271928   2.648   4.349  13.458 -0.1353  0.4225  0.7926
16813TIP3   OH271929   1.683   0.280   0.560  0.1451  0.1538  0.1398
16813TIP3    H171930   1.755   0.293   0.621  0.8054  0.4352 -0.6826
16813TIP3    H271931   1.692   0.190   0.530 -1.3741 -0.6676  1.9341
16814TIP3   OH271932   2.324   5.502  13.547  0.0671  0.1540 -0.0431
16814TIP3    H171933   2.409   5.534  13.517 -0.4940  0.2240 -1.6881
16814TIP3    H271934   2.325   5.514  13.642  2.4722 -1.2390  0.2010
16815TIP3   OH271935   2.686   2.757   1.214  0.4632 -0.5518 -0.1511
16815TIP3    H171936   2.717   2.767   1.124 -0.3465  0.8391 -0.3109
16815TIP3    H271937   2.603   2.805   1.216 -0.0721 -1.4621  1.0735
16816TIP3   OH271938   2.919   4.374  12.574  0.5592 -0.5528  0.3430
16816TIP3    H171939   2.903   4.435  12.646 -1.0383 -0.0783 -0.3912
16816TIP3    H271940   2.860   4.301  12.590  1.2999 -1.1735  0.3252
16817TIP3   OH271941   2.930   1.388  10.154 -0.0353 -0.4550 -0.5011
16817TIP3    H171942   2.984   1.310  10.167 -0.6205 -0.7624  0.1537
16817TIP3    H271943   2.929   1.401  10.059 -1.4167 -2.3291 -0.7970
16818TIP3   OH271944   4.124   1.200   0.198  0.4051  0.3457 -0.2605
16818TIP3    H171945   4.192   1.175   0.261 -0.0357 -1.2512 -0.3689
16818TIP3    H271946   4.051   1.141   0.217 -0.3867  1.0048 -1.1541
16819TIP3   OH271947   5.627   3.232  14.986 -0.5323  0.5078  0.3710
16819TIP3    H171948   5.548   3.183  14.964 -0.7180  0.4613  1.0884
16819TIP3    H271949   5.594   3.316  15.020 -0.2275  0.9965 -0.5341
16820TIP3   OH271950   0.791   3.416  12.397 -0.1734 -0.3766 -0.1522
16820TIP3    H171951   0.857   3.458  12.453 -1.0495 -0.4948  0.9967
16820TIP3    H271952   0.806   3.454  12.310  2.3914 -1.4723 -0.3068
16821TIP3   OH271953   0.128   6.203  12.557  0.5599  0.1540  0.0542
16821TIP3    H171954   0.082   6.286  12.568 -1.4628 -0.5205 -2.2430
16821TIP3    H271955   0.184   6.217  12.481  0.5624 -0.4229 -0.0580
16822TIP3   OH271956   3.748   5.089  13.535  0.1587  0.0402  0.1966
16822TIP3    H171957   3.734   4.995  13.551  0.3009  0.1777  1.1656
16822TIP3    H271958   3.738   5.130  13.621  0.5792  0.8634 -0.1362
16823TIP3   OH271959   5.373   1.447   3.453  0.2251  0.8954 -0.1608
16823TIP3    H171960   5.469   1.444   3.450  0.1822  0.0920 -2.1657
16823TIP3    H271961   5.351   1.535   3.423  0.3268  0.6799 -0.8833
16824TIP3   OH271962   3.177   1.998  10.520  0.6409 -0.2567 -0.4362
16824TIP3    H171963   3.142   2.087  10.514  1.8196  0.3853  1.3465
16824TIP3    H271964   3.248   1.995  10.457  0.5162  0.0172 -0.5914
16825TIP3   OH271965   2.749   1.344  11.177  0.3895  0.0921  0.4146
16825TIP3    H171966   2.835   1.381  11.198  0.3515  0.7285 -0.5220
16825TIP3    H271967   2.703   1.342  11.261  1.3612 -0.3793  0.9492
16826TIP3   OH271968   0.649   2.614   4.169  0.5458 -0.1153  0.1023
16826TIP3    H171969   0.619   2.703   4.185  1.6677 -0.0285  2.0338
16826TIP3    H271970   0.570   2.561   4.167 -0.1155  0.8724 -0.8167
16827TIP3   OH271971   5.465   4.114   3.521  0.5695 -0.3025 -0.1444
16827TIP3    H171972   5.474   4.208   3.508  1.7856 -0.3370  0.3546
16827TIP3    H271973   5.460   4.102   3.616  0.5836 -0.7510 -0.1956
16828TIP3   OH271974   6.153   4.810   5.312  0.3802 -0.5954  0.4662
16828TIP3    H171975   6.197   4.773   5.236  0.4274  0.1094  0.1420
16828TIP3    H271976   6.220   4.860   5.357 -0.2802  1.3253 -0.5828
16829TIP3   OH271977   5.718   1.933  16.197 -0.1552 -0.0297  0.6911
16829TIP3    H171978   5.793   1.982  16.232 -1.1512  0.0901  2.7418
16829TIP3    H271979   5.676   1.994  16.136  0.0743  0.7556  1.3046
16830TIP3   OH271980   0.338   6.790  15.786  0.7460 -0.0630  0.0555
16830TIP3    H171981   0.396   6.714  15.775  1.1286 -0.0592  1.8318
16830TIP3    H271982   0.289   6.794  15.704  0.3642 -2.5318  0.0906
16831TIP3   OH271983   5.760   2.583  15.146 -0.3385 -0.2904  0.2894
16831TIP3    H171984   5.826   2.515  15.160 -0.2217 -0.0507  0.9195
16831TIP3    H271985   5.743   2.619  15.233 -0.8279  0.0929  0.0434
16832TIP3   OH271986   5.262   4.699   0.491  0.3407 -0.8513 -0.4373
16832TIP3    H171987   5.313   4.750   0.428  0.2190 -0.0662  0.0944
16832TIP3    H271988   5.305   4.714   0.575 -0.6369 -0.3384 -0.0142
16833TIP3   OH271989   4.438   4.825  13.435 -0.2360 -0.1287 -0.4267
16833TIP3    H171990   4.372   4.768  13.396  0.2137 -2.5867  2.1126
16833TIP3    H271991   4.405   4.844  13.523 -0.0406  3.1431 -0.9200
16834TIP3   OH271992   6.005   5.459   5.075 -0.6311  0.0243 -0.1566
16834TIP3    H171993   6.028   5.511   5.152 -1.4087 -0.0697  0.1447
16834TIP3    H271994   6.067   5.385   5.077 -1.9685 -1.1173  1.5716
16835TIP3   OH271995   0.804   6.623  15.379  0.0619  0.0909 -0.3749
16835TIP3    H171996   0.736   6.689  15.386  0.5844  0.4562  1.8583
16835TIP3    H271997   0.885   6.668  15.402  1.1274 -0.3460 -2.9235
16836TIP3   OH271998   1.123   3.605  16.599  0.0124 -0.0187 -0.3322
16836TIP3    H171999   1.110   3.586  16.692  0.2042 -0.6629 -0.4294
16836TIP3    H272000   1.203   3.558  16.576  0.6922  1.1924 -0.5277
16837TIP3   OH272001   5.121   2.811  10.913 -0.1798 -0.1634 -0.5503
16837TIP3    H172002   5.203   2.856  10.894  0.2849 -0.4407  0.7157
16837TIP3    H272003   5.148   2.726  10.949 -1.0019 -0.0186  0.4473
16838TIP3   OH272004   5.460   4.305   0.099  0.2518 -0.2642  0.8095
16838TIP3    H172005   5.542   4.257   0.091  0.2385 -0.0247 -1.3517
16838TIP3    H272006   5.446   4.312   0.194  1.4700 -2.3767  1.2199
16839TIP3   OH272007   4.340   5.326  11.913  0.4643 -0.5298  0.1728
16839TIP3    H172008   4.399   5.392  11.877 -0.5787  0.9611  1.0696
16839TIP3    H272009   4.296   5.288  11.837  1.0575 -0.1895 -0.3528
16840TIP3   OH272010   4.789   6.383   6.529 -0.0877  0.8127  0.0400
16840TIP3    H172011   4.804   6.324   6.454  0.7832  1.2745 -0.1638
16840TIP3    H272012   4.696   6.404   6.525 -0.1935  0.2679 -0.4985
16841TIP3   OH272013   5.780   0.942   1.036 -0.7246 -0.5567 -0.0467
16841TIP3    H172014   5.733   0.928   0.954 -1.9515  1.1403  0.3125
16841TIP3    H272015   5.865   0.977   1.011 -0.6863 -1.0571 -0.6207
16842TIP3   OH272016   5.895   5.438   2.814 -0.0780  0.4143  0.4229
16842TIP3    H172017   5.875   5.508   2.876 -1.7409  0.1435  0.2310
16842TIP3    H272018   5.868   5.472   2.729 -1.6193 -0.6953  0.4235
16843TIP3   OH272019   2.446   5.530   1.486 -0.3088  0.1025  0.2227
16843TIP3    H172020   2.360   5.487   1.492 -0.3355  0.1205 -0.0375
16843TIP3    H272021   2.495   5.477   1.423  0.8167 -1.5238  2.3323
16844TIP3   OH272022   0.064   0.145   3.358  0.0439 -0.1552 -0.2263
16844TIP3    H172023  -0.017   0.110   3.396  0.4547 -0.5817  0.2632
16844TIP3    H272024   0.050   0.139   3.263  0.2418 -2.0233 -0.1668
16845TIP3   OH272025   5.676   5.397  11.173  0.3289  0.7722 -0.1227
16845TIP3    H172026   5.619   5.380  11.097 -0.6915 -1.1280  0.9874
16845TIP3    H272027   5.757   5.429  11.135 -0.0480 -0.3824 -2.0741
16846TIP3   OH272028   6.150   2.661   4.040 -0.4608  0.2730  0.7127
16846TIP3    H172029   6.220   2.621   4.092  0.7665  0.8807 -0.4138
16846TIP3    H272030   6.159   2.622   3.953 -0.2058  1.8290  0.0111
16847TIP3   OH272031   3.208   1.424  12.123 -0.6769 -0.2733  0.6557
16847TIP3    H172032   3.195   1.503  12.175  0.0102  0.3896 -0.1530
16847TIP3    H272033   3.298   1.432  12.090 -0.7165 -1.2307  0.2782
16848TIP3   OH272034   2.153   4.833  13.645 -0.2160 -0.4404  0.3831
16848TIP3    H172035   2.061   4.823  13.619  0.0244 -0.0482 -0.6712
16848TIP3    H272036   2.201   4.831  13.563  0.5560  1.1027  0.7662
16849TIP3   OH272037   1.608   4.374   5.093 -0.2696 -0.0331  0.2632
16849TIP3    H172038   1.687   4.322   5.078  0.0669  1.0092 -1.9783
16849TIP3    H272039   1.640   4.464   5.101 -1.2418  0.5628 -1.8036
16850TIP3   OH272040   2.512   0.370  11.489 -0.1225 -0.8169 -0.1592
16850TIP3    H172041   2.561   0.303  11.441 -1.3736 -0.8607 -1.4441
16850TIP3    H272042   2.461   0.320  11.553  0.8285 -0.8458  0.5938
16851TIP3   OH272043   3.844   3.651  16.137  0.6928 -0.0503 -0.2530
16851TIP3    H172044   3.786   3.726  16.124 -0.8804 -1.0916  0.3813
16851TIP3    H272045   3.834   3.599  16.058  2.1191  0.5797 -0.8829
16852TIP3   OH272046   0.060   3.851   2.642  0.1595 -0.2560  0.0337
16852TIP3    H172047   0.088   3.857   2.734 -0.1346 -2.6605  0.3482
16852TIP3    H272048  -0.034   3.838   2.646  0.0897 -0.0027 -0.6432
16853TIP3   OH272049   4.127   4.362   2.168  0.4236  0.1012  0.3947
16853TIP3    H172050   4.083   4.434   2.121  0.1464 -1.0112 -1.1427
16853TIP3    H272051   4.201   4.340   2.112  1.6192  0.4055  1.8089
16854TIP3   OH272052   5.866   4.197  10.568  0.4065 -0.4468 -0.0228
16854TIP3    H172053   5.808   4.136  10.524  0.1590  0.4548 -0.9948
16854TIP3    H272054   5.864   4.276  10.513  2.7412 -0.4680 -0.2216
16855TIP3   OH272055   2.432   5.056  14.069  0.2920 -0.5318 -0.1379
16855TIP3    H172056   2.354   5.080  14.118 -1.1890 -2.2152 -1.5138
16855TIP3    H272057   2.455   4.969  14.102  1.4239 -0.1688  0.0494
16856TIP3   OH272058   4.898   2.959  12.120 -0.0422 -0.5433 -0.3256
16856TIP3    H172059   4.892   2.921  12.207  2.0700  0.5760  0.3860
16856TIP3    H272060   4.981   2.925  12.085  1.8991  3.0386  0.3015
16857TIP3   OH272061   6.700   1.507  14.527  0.2333 -0.4777 -0.1022
16857TIP3    H172062   6.662   1.542  14.608 -1.2961 -1.9113 -0.1666
16857TIP3    H272063   6.729   1.419  14.550 -0.4474 -1.0004 -1.1599
16858TIP3   OH272064   3.060   2.576  13.086  0.1693  0.0969  0.0402
16858TIP3    H172065   3.154   2.587  13.072  0.1143 -1.0377 -1.4638
16858TIP3    H272066   3.026   2.666  13.087  0.8734  0.4857 -2.6245
16859TIP3   OH272067   1.033   2.784  11.588 -0.3971  0.0252  0.1812
16859TIP3    H172068   1.056   2.877  11.579 -0.9662  0.1970  0.4880
16859TIP3    H272069   0.983   2.779  11.669 -0.5055 -0.5265  0.0820
16860TIP3   OH272070   0.062   4.427  16.019 -0.0459 -0.4891 -0.0431
16860TIP3    H172071  -0.024   4.416  16.061  0.4818 -1.4259  0.8301
16860TIP3    H272072   0.060   4.516  15.983 -1.2586 -0.3840  0.2415
16861TIP3   OH272073   3.136   3.414   0.638 -0.3981 -0.1957  0.1187
16861TIP3    H172074   3.057   3.429   0.586  0.5360  0.4096 -1.1817
16861TIP3    H272075   3.179   3.340   0.595 -0.3378 -0.6487  0.9336
16862TIP3   OH272076   1.364   1.249   4.270  0.4306 -0.3343  0.8873
16862TIP3    H172077   1.349   1.171   4.217  1.9298 -1.2302  1.7092
16862TIP3    H272078   1.450   1.235   4.308  0.1086  1.0728  2.2049
16863TIP3   OH272079   0.367   2.037  14.834  0.2268  0.0720 -0.3602
16863TIP3    H172080   0.322   1.954  14.845  2.5260 -1.4069 -1.4982
16863TIP3    H272081   0.306   2.091  14.784 -1.7655 -0.4325  1.3505
16864TIP3   OH272082   1.997   0.485  12.436 -0.4482  0.0200 -0.3351
16864TIP3    H172083   1.981   0.540  12.512 -0.8987  0.4238 -0.7082
16864TIP3    H272084   1.913   0.442  12.420 -0.2265 -0.4183 -0.3240
16865TIP3   OH272085   3.207   0.113  12.822  0.2644 -0.1776 -0.7732
16865TIP3    H172086   3.175   0.108  12.732  1.0908 -0.5592 -1.0515
16865TIP3    H272087   3.197   0.025  12.857 -3.8859  0.6776  0.9197
16866TIP3   OH272088   6.117   5.139   5.656 -0.2399  0.0566  0.1951
16866TIP3    H172089   6.088   5.162   5.568 -0.0781  0.9334  0.3613
16866TIP3    H272090   6.037   5.138   5.709 -0.2094  0.6309  0.2628
16867TIP3   OH272091   1.442   6.126  12.814 -0.4083  0.2937 -1.0377
16867TIP3    H172092   1.368   6.146  12.757 -0.4364  2.0595 -0.4326
16867TIP3    H272093   1.519   6.145  12.760 -0.4100  0.1500 -1.0917
16868TIP3   OH272094   5.711   6.770   0.230  0.1995  0.1773 -0.4221
16868TIP3    H172095   5.793   6.818   0.242  0.9112 -0.2330 -3.1391
16868TIP3    H272096   5.732   6.680   0.256 -0.1912  0.5860  1.4360
16869TIP3   OH272097   4.279   4.893   0.555  0.1467  0.2983  0.2139
16869TIP3    H172098   4.334   4.930   0.623  2.4426 -0.9355 -0.8275
16869TIP3    H272099   4.214   4.840   0.602 -0.3822  2.0152  1.4997
16870TIP3   OH272100   0.543   0.754  14.374 -0.6225  0.5058 -0.4736
16870TIP3    H172101   0.547   0.662  14.351 -1.8082  0.4146 -0.4001
16870TIP3    H272102   0.617   0.794  14.329  1.2132 -0.8091  1.1889
16871TIP3   OH272103   5.270   1.529  14.425  0.1183  0.2328  0.8364
16871TIP3    H172104   5.292   1.612  14.381  1.0350 -0.7920 -0.7215
16871TIP3    H272105   5.174   1.526  14.423  0.0568  1.3580  1.1360
16872TIP3   OH272106   1.807   3.669  16.018  0.4425 -0.4305 -0.4373
16872TIP3    H172107   1.713   3.679  16.034  0.6822  0.2378  0.6289
16872TIP3    H272108   1.821   3.709  15.932  0.0654  1.2001  0.2388
16873TIP3   OH272109   2.353   4.983   1.441  0.0447 -0.0345  0.5141
16873TIP3    H172110   2.302   5.028   1.508  1.9961  0.5494  1.6608
16873TIP3    H272111   2.324   5.023   1.359 -0.1929  1.4022  1.2738
16874TIP3   OH272112   2.332   6.163   4.092  0.1125 -0.7659  0.3907
16874TIP3    H172113   2.291   6.237   4.137 -0.4180 -1.8039  1.6645
16874TIP3    H272114   2.276   6.146   4.017 -1.0831 -1.3147  1.3694
16875TIP3   OH272115   1.613   6.657  16.637  0.5948 -0.5911 -0.0570
16875TIP3    H172116   1.611   6.570  16.597 -0.9481 -1.0760  0.9699
16875TIP3    H272117   1.617   6.639  16.731 -2.4396  0.3220  0.3643
16876TIP3   OH272118   2.641   0.454  13.178 -0.0444 -0.5230  0.4401
16876TIP3    H172119   2.612   0.364  13.165 -3.0539  0.4514 -0.3272
16876TIP3    H272120   2.610   0.476  13.266 -0.1935  0.0563  0.2470
16877TIP3   OH272121   1.745   4.712   3.428  0.1721  0.5040 -0.1246
16877TIP3    H172122   1.675   4.752   3.481 -1.1849  0.5878 -1.9050
16877TIP3    H272123   1.811   4.781   3.420 -0.9750  1.5286 -1.0182
16878TIP3   OH272124   5.318   3.694  11.230 -0.0543  0.1588  0.0790
16878TIP3    H172125   5.241   3.643  11.256 -1.4326  1.9627 -0.2641
16878TIP3    H272126   5.282   3.772  11.188  2.0014  0.7061 -0.7699
16879TIP3   OH272127   3.663   5.069  11.029 -0.4019  0.3323  0.5137
16879TIP3    H172128   3.627   5.032  11.110 -1.6916  1.8956  0.6803
16879TIP3    H272129   3.706   5.150  11.056  0.3387  0.1871 -0.1882
16880TIP3   OH272130   3.649   2.657   5.148 -0.4101  0.8596 -0.3008
16880TIP3    H172131   3.601   2.733   5.182 -1.3081 -0.6970  2.1107
16880TIP3    H272132   3.649   2.670   5.053 -1.2836  3.4095 -0.0271
16881TIP3   OH272133   6.432   3.688  15.617  0.4327 -0.2823  0.0656
16881TIP3    H172134   6.512   3.666  15.569  1.0519  2.9397 -0.6116
16881TIP3    H272135   6.363   3.686  15.551  0.8467  1.5652 -0.4979
16882TIP3   OH272136   0.575   5.577  13.350 -0.0909  0.4926  0.2200
16882TIP3    H172137   0.530   5.549  13.271 -0.8145  0.2847  0.6917
16882TIP3    H272138   0.544   5.517  13.418  0.7732  0.4551  0.5957
16883TIP3   OH272139   3.389   0.296   3.831  0.5823 -0.0594 -0.1294
16883TIP3    H172140   3.372   0.366   3.895  2.2413 -1.0996  1.5689
16883TIP3    H272141   3.408   0.343   3.749  0.8281  1.4654  0.7536
16884TIP3   OH272142   0.141   0.886  16.420 -0.1240  0.0487  0.0519
16884TIP3    H172143   0.193   0.873  16.500 -0.6786  0.4595  0.4831
16884TIP3    H272144   0.069   0.943  16.447  0.3596  1.2045 -1.0313
16885TIP3   OH272145   5.011   2.384  15.526 -0.0166 -0.1766  0.1127
16885TIP3    H172146   5.020   2.397  15.432  0.4365  3.0360  0.4600
16885TIP3    H272147   4.919   2.403  15.544  0.3869  1.6368  0.5100
16886TIP3   OH272148   3.682   1.585   1.791  0.2634 -0.1440  0.3413
16886TIP3    H172149   3.775   1.599   1.807  0.2120  0.6335 -0.0042
16886TIP3    H272150   3.644   1.673   1.793 -0.0784 -0.1999 -1.9866
16887TIP3   OH272151   6.297   0.601   6.103  0.3911  0.2249 -0.0615
16887TIP3    H172152   6.317   0.679   6.154 -0.3256 -0.8137  1.9250
16887TIP3    H272153   6.206   0.581   6.124  0.3975 -0.8616 -0.9509
16888TIP3   OH272154   0.804   1.356   3.731 -0.3859 -0.5066 -0.5977
16888TIP3    H172155   0.729   1.414   3.721  1.3255  2.1998  0.9641
16888TIP3    H272156   0.848   1.358   3.646  0.5646  2.0200 -0.1270
16889TIP3   OH272157   3.352   5.723   1.594 -0.3129 -0.5442  0.0637
16889TIP3    H172158   3.419   5.754   1.533  0.5358  0.1111  1.2900
16889TIP3    H272159   3.271   5.725   1.543 -0.1077  2.5102 -0.3464
16890TIP3   OH272160   6.089   0.281  14.134  0.4919  0.1737  0.3377
16890TIP3    H172161   6.163   0.259  14.078 -0.4703  1.0929 -1.3532
16890TIP3    H272162   6.089   0.377  14.138  0.6449  0.1366  2.1051
16891TIP3   OH272163   5.890   1.684   4.575 -0.1213 -0.1033 -0.0673
16891TIP3    H172164   5.871   1.639   4.493 -1.4375 -3.1235  1.7569
16891TIP3    H272165   5.985   1.678   4.584 -0.2226 -2.3552 -0.0396
16892TIP3   OH272166   1.205   1.868  13.918 -0.0748  0.1313  0.2170
16892TIP3    H172167   1.245   1.905  13.840  0.1347 -0.1666  0.1813
16892TIP3    H272168   1.111   1.881  13.906 -0.0814 -0.4193 -0.3455
16893TIP3   OH272169   5.694   1.982   6.073  0.3074 -0.0488 -0.4108
16893TIP3    H172170   5.618   1.926   6.089 -1.7966  3.2770  2.6918
16893TIP3    H272171   5.666   2.043   6.005  0.6978  0.4424 -0.1381
16894TIP3   OH272172   3.292   3.282   5.773 -0.2249 -0.0718  0.1303
16894TIP3    H172173   3.271   3.222   5.845 -0.7551  0.3026  0.2928
16894TIP3    H272174   3.293   3.369   5.814 -0.0343  0.0932 -0.2177
16895TIP3   OH272175   3.544   3.179  15.865 -0.2780 -0.2268  0.1295
16895TIP3    H172176   3.639   3.173  15.874 -0.3698  0.8917  3.0661
16895TIP3    H272177   3.526   3.147  15.777  2.6522 -1.9023  0.0075
16896TIP3   OH272178   3.785   6.571  13.199  0.2103 -0.2788  0.0853
16896TIP3    H172179   3.746   6.549  13.114 -0.8956  0.0551  0.4886
16896TIP3    H272180   3.715   6.617  13.246  1.8795  2.8276 -0.1504
16897TIP3   OH272181   2.487   3.109   3.672  0.2975 -0.0876 -0.2900
16897TIP3    H172182   2.521   3.189   3.710 -0.8718  0.2063  0.1703
16897TIP3    H272183   2.457   3.057   3.747  0.1250 -0.5226 -0.6544
16898TIP3   OH272184   3.735   6.361  14.954  0.1475  0.1134 -0.0485
16898TIP3    H172185   3.793   6.437  14.947  0.8165 -0.3749  0.1760
16898TIP3    H272186   3.792   6.288  14.976 -0.5555 -0.3773  0.1963
16899TIP3   OH272187   2.722   1.276  14.381 -0.1048  0.3305  0.2703
16899TIP3    H172188   2.671   1.262  14.302 -0.6029 -0.9754  0.7889
16899TIP3    H272189   2.748   1.368  14.378  0.2678  0.1885 -1.6130
16900TIP3   OH272190   2.217   3.272  11.512 -0.1808 -0.0730 -0.2220
16900TIP3    H172191   2.208   3.293  11.419 -2.4946 -0.4037 -0.1425
16900TIP3    H272192   2.203   3.355  11.557  0.6132  0.0273 -0.1588
16901TIP3   OH272193   3.417   3.505  14.282  0.3676 -0.3860 -0.2976
16901TIP3    H172194   3.407   3.514  14.187  0.9181 -0.9361 -0.4149
16901TIP3    H272195   3.380   3.419  14.302 -2.0776  0.7368  0.3690
16902TIP3   OH272196   3.199   3.158   3.499  0.0727  0.2166  0.4097
16902TIP3    H172197   3.266   3.208   3.451  0.5738 -1.6012 -0.8747
16902TIP3    H272198   3.141   3.225   3.535  1.0009  1.7506 -0.8147
16903TIP3   OH272199   0.453   2.922   0.488  0.4779 -0.4286 -0.2308
16903TIP3    H172200   0.538   2.965   0.483  0.1826  0.0831 -1.4458
16903TIP3    H272201   0.391   2.994   0.502  0.0876 -0.5610 -1.1608
16904TIP3   OH272202   0.131   0.519   4.847 -0.1597  0.3413 -0.2369
16904TIP3    H172203   0.129   0.601   4.897 -1.5063  0.8049 -0.9962
16904TIP3    H272204   0.196   0.466   4.892 -0.6363  1.0935  1.4524
16905TIP3   OH272205   5.306   5.222  16.209 -0.5207 -0.4477  0.1912
16905TIP3    H172206   5.319   5.135  16.172 -0.1809  0.5941 -2.3092
16905TIP3    H272207   5.388   5.243  16.253 -0.0243 -0.7958 -0.5528
16906TIP3   OH272208   4.929   1.532   0.932 -0.4782  0.4053  0.2224
16906TIP3    H172209   5.016   1.570   0.918 -0.0019 -0.7587 -0.1661
16906TIP3    H272210   4.871   1.583   0.877  0.4422 -0.5146 -1.7041
16907TIP3   OH272211   3.871   4.671  12.846  0.3809  0.1660 -0.1014
16907TIP3    H172212   3.908   4.733  12.784  0.2110  0.3470 -0.0219
16907TIP3    H272213   3.858   4.721  12.926  2.3670 -0.4955  0.7100
16908TIP3   OH272214   0.455   6.610   0.107  0.2884  0.0639 -0.5873
16908TIP3    H172215   0.403   6.530   0.115 -0.0144  0.2511 -0.6332
16908TIP3    H272216   0.537   6.592   0.153 -0.6196  0.4650  1.2978
16909TIP3   OH272217   5.474   5.166  13.923 -0.3180  0.1675  0.1334
16909TIP3    H172218   5.504   5.079  13.949  0.2999  0.1707 -0.5489
16909TIP3    H272219   5.387   5.174  13.964 -0.1598 -0.5530  0.6362
16910TIP3   OH272220   0.770   1.938   4.590  0.4349 -0.0163  0.2190
16910TIP3    H172221   0.770   1.872   4.659  0.7122 -0.2000  0.0452
16910TIP3    H272222   0.696   1.915   4.534 -0.4790  0.7798  1.0604
16911TIP3   OH272223   6.189   5.335  12.691  0.9338 -0.0610 -0.5791
16911TIP3    H172224   6.236   5.410  12.654 -0.7638  0.6337 -1.4734
16911TIP3    H272225   6.112   5.326  12.635 -0.1571 -0.9401  0.9954
16912TIP3   OH272226   0.450   1.250  11.407 -0.1791 -0.2524 -0.2024
16912TIP3    H172227   0.402   1.170  11.388 -0.2238 -0.2971  0.0882
16912TIP3    H272228   0.524   1.250  11.346 -1.0102  0.2463 -1.2494
16913TIP3   OH272229   3.690   0.029  11.511  0.1533  0.9617  0.0234
16913TIP3    H172230   3.647   0.060  11.431 -0.0186  0.9754  0.1214
16913TIP3    H272231   3.654  -0.059  11.524  0.2426  0.9279  0.0408
16914TIP3   OH272232   1.971   5.993  13.720 -0.4738 -0.1363  1.0660
16914TIP3    H172233   2.059   6.007  13.756 -0.4793 -1.7084  1.7456
16914TIP3    H272234   1.946   6.079  13.687  2.0070 -0.0007 -0.7409
16915TIP3   OH272235   5.212   6.311   0.221  0.6147 -0.1610  0.4702
16915TIP3    H172236   5.267   6.368   0.168  0.6153  1.0266  1.7106
16915TIP3    H272237   5.256   6.226   0.218  2.2954  0.6365  1.0443
16916TIP3   OH272238   0.782   6.740  12.919 -0.0881  0.1833 -0.1170
16916TIP3    H172239   0.863   6.754  12.870  0.1167  0.3875  0.2760
16916TIP3    H272240   0.723   6.809  12.889 -0.5784 -0.7187 -1.3510
16917TIP3   OH272241   0.904   1.683  14.672  0.4497  0.1992 -0.7810
16917TIP3    H172242   0.964   1.635  14.615 -1.8817 -0.3048 -3.0280
16917TIP3    H272243   0.838   1.618  14.696 -0.9426  1.4586 -1.0948
16918TIP3   OH272244   0.221   3.326   4.937  0.3248  0.1963 -0.2524
16918TIP3    H172245   0.286   3.297   5.001 -0.5269  0.2360  0.6516
16918TIP3    H272246   0.205   3.249   4.883 -0.0736 -0.2958  0.5482
16919TIP3   OH272247   1.325   5.606  16.527  0.0251 -0.5899  0.6497
16919TIP3    H172248   1.278   5.637  16.450 -2.1296 -2.8230  0.9304
16919TIP3    H272249   1.303   5.669  16.595 -1.4225 -0.7873  0.3968
16920TIP3   OH272250   1.873   5.422   1.192 -1.1869  0.0697 -0.4207
16920TIP3    H172251   1.802   5.365   1.223  1.0984 -2.8366 -0.0142
16920TIP3    H272252   1.900   5.471   1.269 -0.4563 -1.5591  0.4236
16921TIP3   OH272253   0.552   1.862   5.084  0.2020 -0.1338 -0.0038
16921TIP3    H172254   0.463   1.884   5.110 -0.0999  1.1175 -1.8859
16921TIP3    H272255   0.550   1.767   5.068 -0.8260 -0.0908 -0.1858
16922TIP3   OH272256   2.708   4.934  16.838  0.2564 -0.4229  0.4718
16922TIP3    H172257   2.619   4.965  16.857 -0.3135 -1.0620 -0.9930
16922TIP3    H272258   2.703   4.839  16.846  0.7642 -0.4737  0.2236
16923TIP3   OH272259   0.048   1.693   4.902  0.4951  0.0320  1.2373
16923TIP3    H172260   0.038   1.775   4.950  1.3005 -0.2028  1.8371
16923TIP3    H272261   0.015   1.626   4.961 -0.2966 -0.0692  0.6922
16924TIP3   OH272262   3.922   0.228  15.749  0.2488 -0.1896 -0.0168
16924TIP3    H172263   3.940   0.152  15.804 -2.2139  0.9606  2.6619
16924TIP3    H272264   3.982   0.296  15.782 -0.4093  0.1560  0.5089
16925TIP3   OH272265   3.334   2.238   5.680 -0.3463  0.4843 -0.3762
16925TIP3    H172266   3.322   2.192   5.597  0.4012 -0.1781 -0.1333
16925TIP3    H272267   3.245   2.258   5.709 -0.6452  0.0531 -0.9717
16926TIP3   OH272268   6.002   6.017  12.762  0.1085 -0.1310 -0.0989
16926TIP3    H172269   5.937   5.984  12.824  0.8613 -1.2514  0.1416
16926TIP3    H272270   6.076   6.043  12.817  0.3441 -0.0510 -0.4478
16927TIP3   OH272271   4.480   6.636  11.085  0.2179 -0.2863  0.0110
16927TIP3    H172272   4.433   6.688  11.150 -0.0517 -1.1218  0.4961
16927TIP3    H272273   4.412   6.587  11.040  0.1466  1.8745 -2.4279
16928TIP3   OH272274   6.061   1.595   5.408 -0.3707 -0.3896  0.0813
16928TIP3    H172275   6.064   1.691   5.413 -1.0667 -0.2004 -2.2550
16928TIP3    H272276   6.150   1.568   5.434  0.7084  1.0819 -1.7756
16929TIP3   OH272277   4.825   6.791   4.037 -0.6025 -0.3245  0.0134
16929TIP3    H172278   4.786   6.878   4.026  0.2762 -0.1477 -2.2054
16929TIP3    H272279   4.844   6.762   3.948  2.3745 -1.2763  0.8641
16930TIP3   OH272280   6.655   5.554  14.777  0.0204 -0.0441 -0.3578
16930TIP3    H172281   6.610   5.604  14.709 -1.0412  1.6390  1.4428
16930TIP3    H272282   6.620   5.589  14.859  0.7208 -2.4405  1.0732
16931TIP3   OH272283   1.375   4.536  13.338 -0.7058  0.0256  0.7601
16931TIP3    H172284   1.328   4.482  13.275  1.2518 -0.1275 -0.6604
16931TIP3    H272285   1.399   4.615  13.290 -1.3701  1.0884  2.0894
16932TIP3   OH272286   3.366   3.657  12.353 -0.3785 -0.3069 -0.0041
16932TIP3    H172287   3.303   3.696  12.413  0.6768  0.4871  0.6249
16932TIP3    H272288   3.403   3.583  12.401 -0.4007 -0.4124 -0.1465
16933TIP3   OH272289   4.333   1.259   2.682 -0.2856 -0.2775 -0.1257
16933TIP3    H172290   4.305   1.348   2.658 -0.2401 -0.7514 -2.0894
16933TIP3    H272291   4.346   1.215   2.599  0.6858 -1.8471  0.8083
16934TIP3   OH272292   5.503   3.318  10.373 -0.4278 -0.1505 -0.3755
16934TIP3    H172293   5.511   3.389  10.310  0.0925  0.8102  0.7390
16934TIP3    H272294   5.536   3.354  10.455 -2.4220 -0.8571  0.8325
16935TIP3   OH272295   1.837   1.681   4.824 -0.2947  0.1827  0.0128
16935TIP3    H172296   1.845   1.599   4.775  0.7186  1.1572 -1.5228
16935TIP3    H272297   1.927   1.712   4.835 -0.5020  0.1962  2.2553
16936TIP3   OH272298   4.851   5.589  16.618  0.4272 -0.1293 -0.2314
16936TIP3    H172299   4.939   5.595  16.581  0.7440 -2.2585  0.0860
16936TIP3    H272300   4.800   5.545  16.551 -0.3273  0.7081 -0.2329
16937TIP3   OH272301   5.141   0.165  12.862  0.0468  0.2939  0.2083
16937TIP3    H172302   5.205   0.221  12.819 -0.5852 -0.3909 -1.7457
16937TIP3    H272303   5.188   0.082  12.875  0.3939  0.6550  1.3550
16938TIP3   OH272304   5.555   6.821   0.432  0.5979  0.4632  0.0898
16938TIP3    H172305   5.529   6.729   0.442  1.1322  0.1339 -1.3660
16938TIP3    H272306   5.606   6.823   0.351  2.6991  1.6119  1.3675
16939TIP3   OH272307   5.270   2.604   3.880 -0.3566 -0.6326 -0.0587
16939TIP3    H172308   5.276   2.535   3.813 -1.3712 -0.4895 -0.3256
16939TIP3    H272309   5.232   2.679   3.834  2.5772  0.8422 -0.2698
16940TIP3   OH272310   3.342   5.448  15.347 -0.4078  0.0652  0.4628
16940TIP3    H172311   3.274   5.504  15.310  0.2617 -0.9642 -2.5747
16940TIP3    H272312   3.307   5.359  15.342 -0.8116 -0.0947  3.7473
16941TIP3   OH272313   3.810   2.666   0.458  0.2973 -0.2915  0.6396
16941TIP3    H172314   3.893   2.710   0.470  0.9042 -1.2168 -0.0265
16941TIP3    H272315   3.804   2.605   0.532 -0.3732  0.6120  1.3595
16942TIP3   OH272316   6.003   4.687  16.428 -0.3343 -0.6310  0.5347
16942TIP3    H172317   6.056   4.608  16.423  0.9371  0.2189 -0.2804
16942TIP3    H272318   6.020   4.733  16.345 -0.9975  0.5030  0.9973
16943TIP3   OH272319   0.463   0.664   1.382 -0.0382  0.3555  0.4822
16943TIP3    H172320   0.536   0.668   1.320 -0.4345 -0.7871 -0.0726
16943TIP3    H272321   0.461   0.573   1.411 -1.2010  0.3912  0.5504
16944TIP3   OH272322   4.094   2.526  14.939  0.0335  0.1226 -0.5540
16944TIP3    H172323   4.108   2.598  14.877  1.6493 -1.1045 -1.6895
16944TIP3    H272324   4.027   2.471  14.897  0.7976 -0.4702 -1.0053
16945TIP3   OH272325   4.121   5.730  16.859  0.4893 -0.4153 -0.8437
16945TIP3    H172326   4.087   5.737  16.948 -1.0827 -1.0092 -1.3511
16945TIP3    H272327   4.084   5.806  16.813  2.7495  0.9191 -0.6054
16946TIP3   OH272328   5.257   1.795  14.060  0.0216  0.2585 -0.0240
16946TIP3    H172329   5.254   1.814  14.154 -0.6894 -0.7357  0.1703
16946TIP3    H272330   5.332   1.738  14.050 -0.7376 -0.7969  0.1789
16947TIP3   OH272331   6.314   4.749   2.624  0.0267 -0.0071  0.1303
16947TIP3    H172332   6.269   4.726   2.542 -0.8551  1.4941  0.1624
16947TIP3    H272333   6.334   4.664   2.664 -0.7078 -0.7531 -1.0149
16948TIP3   OH272334   1.445   4.535  16.267  0.3805  0.3191 -0.4569
16948TIP3    H172335   1.428   4.545  16.174  0.4672  1.9467 -0.3251
16948TIP3    H272336   1.387   4.464  16.295 -1.4013  1.3829 -1.2923
16949TIP3   OH272337   6.442   4.143   3.348  0.0023  0.6164 -0.3966
16949TIP3    H172338   6.433   4.123   3.441  1.6216  0.6683 -0.2063
16949TIP3    H272339   6.353   4.136   3.313 -0.6874  0.9587  1.2220
16950TIP3   OH272340   0.329   2.826   5.106 -0.3205  0.7851  0.0045
16950TIP3    H172341   0.384   2.851   5.032  0.4088 -0.9502 -0.0981
16950TIP3    H272342   0.296   2.909   5.141 -0.3080  1.6766 -1.9573
16951TIP3   OH272343   5.704   5.029  11.034 -0.2844 -0.3798 -0.2629
16951TIP3    H172344   5.678   5.074  11.114  2.0102 -0.6093  0.6916
16951TIP3    H272345   5.637   5.053  10.970 -1.8930  0.2425  1.5640
16952TIP3   OH272346   1.218   5.681   1.260 -0.2041  0.0446  0.0524
16952TIP3    H172347   1.138   5.630   1.268  0.1115 -0.5512 -0.4702
16952TIP3    H272348   1.195   5.753   1.202 -0.1646 -0.5639 -0.7343
16953TIP3   OH272349   2.770   5.034   0.769  0.6975  0.4766 -0.3894
16953TIP3    H172350   2.697   4.972   0.775  0.1676  1.1618  0.6378
16953TIP3    H272351   2.744   5.106   0.827  1.9511  0.9816 -0.4346
16954TIP3   OH272352   1.194   2.588  16.581 -0.0383 -0.2825 -0.3516
16954TIP3    H172353   1.275   2.553  16.545  1.0443  0.1610  1.4886
16954TIP3    H272354   1.170   2.659  16.522  1.4667  0.2179 -0.4035
16955TIP3   OH272355   4.681   5.734  14.686 -0.1854  0.9306 -0.0500
16955TIP3    H172356   4.618   5.805  14.687 -0.0213  1.0894  1.1903
16955TIP3    H272357   4.631   5.658  14.658 -0.0991  1.7280 -2.5723
16956TIP3   OH272358   6.476   2.585  16.723 -0.2026  0.4087  0.4851
16956TIP3    H172359   6.463   2.646  16.796 -0.3185  1.1557 -0.1441
16956TIP3    H272360   6.571   2.572  16.719 -0.2273  0.0489  1.0187
16957TIP3   OH272361   5.360   4.712  16.825 -0.5501 -0.0926 -0.0916
16957TIP3    H172362   5.339   4.770  16.899  1.6739  1.5453 -0.6491
16957TIP3    H272363   5.401   4.636  16.866 -1.4637 -0.3092  0.4810
16958TIP3   OH272364   5.555   3.785  14.826  0.7977 -0.2158  0.4786
16958TIP3    H172365   5.551   3.821  14.914 -0.2899 -1.0538  0.7939
16958TIP3    H272366   5.555   3.690  14.839 -0.0089 -0.3540 -0.4380
16959TIP3   OH272367   1.382   4.697   0.205  0.2078 -0.0666 -0.6422
16959TIP3    H172368   1.411   4.606   0.211  0.0102 -0.0245  3.4611
16959TIP3    H272369   1.298   4.699   0.250 -0.4158  1.9597 -1.7646
16960TIP3   OH272370   6.356   3.563   1.822  0.5891  0.1374  0.3933
16960TIP3    H172371   6.394   3.502   1.885  1.0825 -0.8797 -0.8437
16960TIP3    H272372   6.303   3.508   1.765  0.5664  0.9592 -0.3961
16961TIP3   OH272373   6.565   2.250   2.824  0.3749 -0.2790  0.0872
16961TIP3    H172374   6.610   2.269   2.906  1.0206 -0.6241 -0.1745
16961TIP3    H272375   6.623   2.286   2.757  0.0349 -0.3350 -0.2371
16962TIP3   OH272376   5.868   3.267   4.035  0.5072 -0.5428 -0.0837
16962TIP3    H172377   5.833   3.189   3.992  2.5033 -1.8138  0.4710
16962TIP3    H272378   5.922   3.233   4.107  2.7793  1.2160 -0.8184
16963TIP3   OH272379   0.370   5.739   5.194  0.8208 -0.2916 -0.8703
16963TIP3    H172380   0.316   5.660   5.192  0.2492  0.0314  0.6994
16963TIP3    H272381   0.412   5.741   5.108  0.7517 -2.2226 -0.9922
16964TIP3   OH272382   1.776   6.774   2.977  0.4240 -0.2553 -1.0436
16964TIP3    H172383   1.828   6.845   3.016  1.0204 -1.2280  0.0104
16964TIP3    H272384   1.778   6.705   3.043 -3.7260  0.2629 -0.0837
16965TIP3   OH272385   0.459   0.764   5.336 -0.2038 -0.2574  0.1990
16965TIP3    H172386   0.524   0.832   5.321  1.4069 -2.0738 -1.7234
16965TIP3    H272387   0.496   0.710   5.406 -0.2986 -0.5024  0.0636
16966TIP3   OH272388   3.581   2.031  12.030  0.6232  0.4101 -0.0150
16966TIP3    H172389   3.570   1.938  12.050  1.1062  0.7517  2.0789
16966TIP3    H272390   3.555   2.076  12.111 -0.0696  2.1454 -1.1416
16967TIP3   OH272391   1.922   0.690   2.852  0.3385 -0.1309 -0.6020
16967TIP3    H172392   1.843   0.738   2.826 -0.1449  0.6990  2.0414
16967TIP3    H272393   1.889   0.604   2.878  0.6602 -0.5931 -1.6950
16968TIP3   OH272394   5.728   5.022   1.098 -0.3724  0.2475  0.6116
16968TIP3    H172395   5.665   5.093   1.109  0.6885  1.2466  0.5168
16968TIP3    H272396   5.703   4.957   1.163 -1.6638  0.4765  0.3729
16969TIP3   OH272397   2.548   3.722  13.930  0.1648  0.1484  0.2359
16969TIP3    H172398   2.625   3.706  13.877  0.3419  1.5324  0.0198
16969TIP3    H272399   2.515   3.807  13.899 -0.4907  0.3532  1.4251
16970TIP3   OH272400   1.538   4.604   0.476 -0.0752 -0.4232  0.3156
16970TIP3    H172401   1.517   4.557   0.556 -0.7023 -0.8792 -0.1035
16970TIP3    H272402   1.473   4.673   0.470  0.0860 -0.2719  0.2975
16971TIP3   OH272403   0.928   5.035   5.087  0.0365  0.5201 -0.4608
16971TIP3    H172404   0.989   5.062   5.019 -2.4766  1.6897 -2.3772
16971TIP3    H272405   0.851   5.090   5.075 -2.0589 -1.8845  0.8472
16972TIP3   OH272406   2.092   3.800  12.818 -0.1092 -0.0929  0.3598
16972TIP3    H172407   2.009   3.779  12.860 -1.0259 -0.4681 -1.5168
16972TIP3    H272408   2.118   3.719  12.774 -0.5661  0.9015 -1.9144
16973TIP3   OH272409   4.729   6.006  14.857 -0.4445  0.7403 -0.3898
16973TIP3    H172410   4.656   6.061  14.885  1.6322  2.0781  2.9332
16973TIP3    H272411   4.688   5.926  14.824 -3.3961  2.0045 -0.0408
16974TIP3   OH272412   5.022   2.858  10.558 -0.1948  0.2867 -0.5470
16974TIP3    H172413   5.115   2.849  10.579 -0.0893 -1.5284 -1.5778
16974TIP3    H272414   4.993   2.769  10.541 -2.3743  0.7123  0.6150
16975TIP3   OH272415   3.930   4.132  11.075  0.5397  0.2583 -0.3431
16975TIP3    H172416   3.990   4.073  11.029 -2.4819 -1.8548 -1.9577
16975TIP3    H272417   3.888   4.181  11.005 -1.0698  0.1466  0.5119
16976TIP3   OH272418   1.526   1.082  10.401 -0.0639  0.0503  0.0434
16976TIP3    H172419   1.596   1.120  10.349 -1.5802  0.8749 -1.4849
16976TIP3    H272420   1.445   1.112  10.359 -1.3549 -0.5724  1.9456
16977TIP3   OH272421   2.117   1.715  14.553 -0.3373 -0.0304 -0.2958
16977TIP3    H172422   2.167   1.788  14.589  0.6397 -0.1902 -1.2734
16977TIP3    H272423   2.165   1.690  14.474 -0.8691 -1.4778 -0.1868
16978TIP3   OH272424   6.362   1.041  12.371  0.5292  0.2974 -0.4506
16978TIP3    H172425   6.446   1.006  12.342  0.1100 -0.3473 -0.9046
16978TIP3    H272426   6.319   1.073  12.292  0.1676  0.2431 -0.2807
16979TIP3   OH272427   6.033   2.321  15.599  0.6989 -0.0071 -0.2835
16979TIP3    H172428   6.116   2.308  15.645  1.0018 -0.2668 -0.8863
16979TIP3    H272429   6.049   2.287  15.511  1.1557  3.1894 -1.6047
16980TIP3   OH272430   0.688   5.425  14.837  0.3057  0.3826  0.1713
16980TIP3    H172431   0.712   5.515  14.815 -0.3149  0.5007 -0.0167
16980TIP3    H272432   0.598   5.415  14.806  0.7242 -0.6387 -0.8098
16981TIP3   OH272433   0.632   0.773  10.769  0.0578  0.3895  0.5976
16981TIP3    H172434   0.611   0.752  10.678 -2.5517 -2.2458  1.6585
16981TIP3    H272435   0.718   0.732  10.783  0.9657  1.6658 -0.8563
16982TIP3   OH272436   5.885   1.677  13.889  0.5337 -0.1902 -0.0906
16982TIP3    H172437   5.887   1.676  13.985  1.8800  1.2669 -0.0726
16982TIP3    H272438   5.801   1.718  13.868 -0.5909 -2.1157  0.3956
16983TIP3   OH272439   3.562   6.516  12.998  0.3662 -0.1590  0.2182
16983TIP3    H172440   3.470   6.544  12.993  0.5017  0.4931  1.1680
16983TIP3    H272441   3.598   6.537  12.912  0.2026  1.6783  0.5698
16984TIP3   OH272442   3.234   1.253   0.592  0.4919  0.1658  0.3783
16984TIP3    H172443   3.301   1.203   0.637  0.9574 -0.3493 -0.8573
16984TIP3    H272444   3.279   1.291   0.516 -0.4810  0.2460 -0.1723
16985TIP3   OH272445   4.298   0.464  11.055 -0.5149 -0.3883 -0.1672
16985TIP3    H172446   4.380   0.413  11.050 -0.3052 -0.0222 -0.5107
16985TIP3    H272447   4.312   0.537  10.995 -1.0199 -0.2104 -0.0683
16986TIP3   OH272448   5.954   1.092   2.596  0.3853  0.2868 -0.8227
16986TIP3    H172449   5.877   1.149   2.592  0.2562  0.0787 -1.3500
16986TIP3    H272450   5.942   1.030   2.525 -0.7231 -1.9798  1.1889
16987TIP3   OH272451   0.147   4.528   4.340  0.3295 -0.7325  0.2556
16987TIP3    H172452   0.181   4.560   4.256  1.2891  1.1773  1.3005
16987TIP3    H272453   0.225   4.517   4.395 -0.2589 -2.2232  0.8276
16988TIP3   OH272454   1.932   2.359  12.197  0.2270  0.0905  0.2673
16988TIP3    H172455   1.837   2.364  12.213  0.1470 -0.5326 -0.0022
16988TIP3    H272456   1.940   2.307  12.118  0.8236 -0.3439  0.6106
16989TIP3   OH272457   3.178   0.219   4.931  0.3530 -0.3409 -0.1095
16989TIP3    H172458   3.142   0.305   4.955 -2.2676 -1.2177 -0.5927
16989TIP3    H272459   3.220   0.187   5.011  2.3480  1.7866 -0.2068
16990TIP3   OH272460   6.449   3.034   2.693  0.4571  0.3278  0.2792
16990TIP3    H172461   6.541   3.057   2.697  0.3929  0.9217 -1.3087
16990TIP3    H272462   6.403   3.118   2.695  0.0935  0.2345 -1.9601
16991TIP3   OH272463   0.741   5.626  16.535  0.0585  0.1707  0.2936
16991TIP3    H172464   0.703   5.708  16.503 -0.8770 -0.8046 -1.2065
16991TIP3    H272465   0.788   5.590  16.460  0.0886 -0.8707  0.7918
16992TIP3   OH272466   5.212   0.140  14.864 -0.0992 -0.0530 -0.2434
16992TIP3    H172467   5.265   0.220  14.875  0.5255 -0.5523  0.5167
16992TIP3    H272468   5.130   0.159  14.909 -0.5102  0.6536 -1.2502
16993TIP3   OH272469   1.926   3.458   0.805 -0.1382 -0.3740 -0.0651
16993TIP3    H172470   1.846   3.437   0.758 -0.3006  0.0744  0.0073
16993TIP3    H272471   1.898   3.479   0.894  0.1234 -0.8058  0.1241
16994TIP3   OH272472   0.588   6.112   2.997  0.4822 -0.4371 -0.0608
16994TIP3    H172473   0.564   6.183   3.056 -1.1130 -0.8390 -0.1863
16994TIP3    H272474   0.678   6.132   2.970  0.2534  1.2172  0.3368
16995TIP3   OH272475   3.763   3.220   6.471  0.1598  0.0190 -0.0173
16995TIP3    H172476   3.851   3.202   6.439 -0.0218  0.4058 -0.7539
16995TIP3    H272477   3.705   3.185   6.403 -0.2789 -0.9481  0.8248
16996TIP3   OH272478   4.287   0.618  15.097  0.4224 -0.3307  0.7725
16996TIP3    H172479   4.205   0.592  15.054  1.2717 -1.8445 -0.0112
16996TIP3    H272480   4.264   0.627  15.189 -0.6803 -0.4690  0.5244
16997TIP3   OH272481   2.485   1.915   0.273  0.0369  0.3842  0.2581
16997TIP3    H172482   2.536   1.923   0.192  1.5566 -0.5876  1.0630
16997TIP3    H272483   2.421   1.846   0.254 -0.5897  1.1581 -0.5531
16998TIP3   OH272484   0.681   1.050  11.954  0.2869  0.1395  0.5553
16998TIP3    H172485   0.664   1.008  11.870  0.7248  0.3647  0.3521
16998TIP3    H272486   0.609   1.112  11.965  0.0266 -0.1579  0.5221
16999TIP3   OH272487   3.154   4.502   3.771  0.2658  0.3042 -0.3747
16999TIP3    H172488   3.166   4.448   3.849 -0.8868  0.6137  0.0376
16999TIP3    H272489   3.243   4.521   3.741  0.8812  2.1614  2.2467
17000TIP3   OH272490   4.865   2.805   5.821 -0.7282 -0.7245 -0.1701
17000TIP3    H172491   4.857   2.710   5.830  0.6197 -0.8993 -0.6962
17000TIP3    H272492   4.904   2.818   5.734 -0.6763  0.2982 -0.0042
17001TIP3   OH272493   3.595   5.565   0.074 -0.0093 -0.3099 -0.4124
17001TIP3    H172494   3.597   5.469   0.068  2.1329 -0.2450 -1.8184
17001TIP3    H272495   3.556   5.593  -0.009 -0.1030  0.0635 -0.2426
17002TIP3   OH272496   4.791   6.774   0.204 -0.1650  0.0435  0.1486
17002TIP3    H172497   4.737   6.811   0.275  1.5138  3.3031 -0.0615
17002TIP3    H272498   4.763   6.822   0.126  0.4943 -0.9031 -0.6883
17003TIP3   OH272499   4.725   0.991   1.544  0.3876 -0.8685  0.0884
17003TIP3    H172500   4.729   0.991   1.640  2.0588  3.5834  0.2783
17003TIP3    H272501   4.816   0.980   1.516 -0.3100 -4.7222 -1.3252
17004TIP3   OH272502   4.376   6.308  10.805  0.0849 -0.1870  0.4386
17004TIP3    H172503   4.467   6.332  10.785 -0.2665 -0.6085 -1.9578
17004TIP3    H272504   4.324   6.360  10.743 -1.2595 -0.6023  1.1873
17005TIP3   OH272505   0.459   3.507  14.104 -0.2981  0.8037  0.3205
17005TIP3    H172506   0.456   3.458  14.022  0.1003 -1.2564  1.4764
17005TIP3    H272507   0.549   3.496  14.135  0.0212  2.9208  0.2888
17006TIP3   OH272508   0.007   5.296   4.331  0.2220 -0.4605 -0.8163
17006TIP3    H172509  -0.016   5.384   4.362 -1.6094 -0.9593 -0.7002
17006TIP3    H272510   0.051   5.256   4.407 -0.5214 -0.2483 -0.2615
17007TIP3   OH272511   3.719   2.757  12.749  0.0910  0.0103  0.7729
17007TIP3    H172512   3.681   2.686  12.800  0.0704  0.5652  1.5468
17007TIP3    H272513   3.671   2.835  12.777  0.9122  0.5173  0.8224
17008TIP3   OH272514   3.146   0.895   1.758 -0.5787 -0.0251 -0.0183
17008TIP3    H172515   3.125   0.982   1.793  1.5003  0.1730  0.9102
17008TIP3    H272516   3.131   0.903   1.663 -1.0897  1.1161  0.1436
17009TIP3   OH272517   6.047   2.692   1.700 -0.4867 -0.0262 -0.4597
17009TIP3    H172518   5.959   2.719   1.728  0.3754  1.7211  0.6790
17009TIP3    H272519   6.076   2.762   1.641  0.4312 -0.2157 -0.2440
17010TIP3   OH272520   4.712   4.621  13.806  0.1934  0.5695 -0.1468
17010TIP3    H172521   4.642   4.639  13.869 -0.5337 -0.1332 -0.7411
17010TIP3    H272522   4.791   4.655  13.848 -0.3640  0.5999  0.9096
17011TIP3   OH272523   6.106   5.470  14.723 -0.3489 -0.1355  0.4990
17011TIP3    H172524   6.140   5.459  14.634 -0.3001 -1.5866  0.6744
17011TIP3    H272525   6.067   5.557  14.723 -0.5856 -0.2154 -1.0346
17012TIP3   OH272526   0.809   3.931   5.259 -0.0339 -0.9175 -0.0155
17012TIP3    H172527   0.743   4.000   5.251 -0.0115 -1.0398 -1.7214
17012TIP3    H272528   0.800   3.898   5.348 -0.4236  0.9060  0.6598
17013TIP3   OH272529   5.337   1.142  11.646  0.4077 -0.0750 -0.1829
17013TIP3    H172530   5.338   1.067  11.706 -0.9256 -0.8219 -1.0453
17013TIP3    H272531   5.401   1.203  11.682 -0.5093 -0.3942  2.1348
17014TIP3   OH272532   6.230   4.131   5.820 -0.4730  0.0095 -0.3870
17014TIP3    H172533   6.139   4.161   5.819 -0.2526  0.7089 -2.2179
17014TIP3    H272534   6.224   4.039   5.848 -1.6114  0.3658  0.6388
17015TIP3   OH272535   2.731   5.782  16.184  0.2207  0.0181  0.4692
17015TIP3    H172536   2.691   5.832  16.255 -1.4038 -1.0131  0.3399
17015TIP3    H272537   2.716   5.690  16.208  1.3369 -0.3903 -0.2926
17016TIP3   OH272538   4.345   3.797   2.523  0.1379 -0.3641  0.1074
17016TIP3    H172539   4.293   3.831   2.451  1.4322  0.8608 -0.2991
17016TIP3    H272540   4.295   3.818   2.602 -0.0915  0.6272 -0.2863
17017TIP3   OH272541   1.346   2.991   1.416 -0.5405  0.4832  0.5808
17017TIP3    H172542   1.266   3.024   1.457  0.2379  1.1909  1.5830
17017TIP3    H272543   1.360   3.048   1.341 -0.2088  1.3133  1.2482
17018TIP3   OH272544   2.606   4.825  16.511  0.1660  0.4117  0.3891
17018TIP3    H172545   2.650   4.866  16.585 -0.7263 -0.2232  1.2968
17018TIP3    H272546   2.598   4.733  16.536  0.0483  0.1395 -0.5938
17019TIP3   OH272547   1.375   2.305   5.979 -0.3296  0.2841 -0.3227
17019TIP3    H172548   1.307   2.359   6.020 -0.3605  0.9857 -1.2694
17019TIP3    H272549   1.399   2.353   5.899  1.6776  0.3372  0.2519
17020TIP3   OH272550   4.712   0.969  16.688 -0.1719 -0.4647  0.0536
17020TIP3    H172551   4.647   1.033  16.715  2.4702  1.0658  3.5881
17020TIP3    H272552   4.700   0.896  16.749  1.9709  0.3298  1.5448
17021TIP3   OH272553   4.337   5.161  10.926  0.2357  0.2615 -0.6202
17021TIP3    H172554   4.400   5.162  10.998  1.0495  1.9027 -1.2977
17021TIP3    H272555   4.273   5.095  10.951  2.3804 -1.7385 -0.0530
17022TIP3   OH272556   0.638   6.099  10.142  0.3067 -0.6676 -0.1291
17022TIP3    H172557   0.674   6.027  10.089 -0.0802 -0.7419 -0.2974
17022TIP3    H272558   0.550   6.068  10.166  0.3765 -0.5160  0.3268
17023TIP3   OH272559   2.718   5.838  12.362 -0.0951  0.6520 -0.1105
17023TIP3    H172560   2.758   5.796  12.286 -1.6857 -0.5365 -0.3363
17023TIP3    H272561   2.642   5.884  12.326 -0.4217  0.7188  0.6604
17024TIP3   OH272562   5.047   1.293  15.240 -0.7318 -0.1694 -0.4602
17024TIP3    H172563   4.957   1.323  15.254 -1.2063 -1.0812 -1.4834
17024TIP3    H272564   5.093   1.371  15.208 -1.8567 -0.3495 -2.7070
17025TIP3   OH272565   1.732   5.551   5.343  0.1400  0.6081 -0.2319
17025TIP3    H172566   1.748   5.644   5.355 -0.2247  0.6722 -0.2471
17025TIP3    H272567   1.792   5.508   5.404 -0.6352  0.8837  0.7417
17026TIP3   OH272568   0.581   4.319  10.800 -0.2523  0.2361 -0.0944
17026TIP3    H172569   0.622   4.275  10.875 -1.0475  1.7702  1.3011
17026TIP3    H272570   0.630   4.288  10.724  1.8010  0.0566  1.2370
17027TIP3   OH272571   5.019   1.080  16.919 -0.2957 -0.1941  0.1121
17027TIP3    H172572   4.974   1.094  16.836 -0.8970  1.1887  0.6503
17027TIP3    H272573   4.967   1.012  16.963 -1.3066  0.6651  0.2909
17028TIP3   OH272574   6.596   0.868  11.265  0.2616 -0.1105 -0.3698
17028TIP3    H172575   6.510   0.892  11.232  1.3637  0.5550 -2.9653
17028TIP3    H272576   6.591   0.888  11.359 -2.0234  0.9900 -0.6434
17029TIP3   OH272577   1.781   2.601   1.689 -0.4264  0.2871  0.1459
17029TIP3    H172578   1.753   2.577   1.601  0.2326  1.6079 -0.4487
17029TIP3    H272579   1.841   2.531   1.716 -1.4125 -0.6544 -0.0175
17030TIP3   OH272580   4.313   1.992  13.974  0.5950  0.0843 -0.7645
17030TIP3    H172581   4.239   1.937  13.949  1.1343 -0.6445 -0.7844
17030TIP3    H272582   4.378   1.931  14.009  0.8130  0.8083  0.1646
17031TIP3   OH272583   6.778   5.482  11.889 -0.2000  0.4527  0.2203
17031TIP3    H172584   6.777   5.554  11.827 -0.9645  0.0093 -0.2993
17031TIP3    H272585   6.815   5.519  11.969  0.8011  1.0265 -0.4968
17032TIP3   OH272586   4.678   0.727   5.183  0.0554  0.4049  0.1865
17032TIP3    H172587   4.760   0.745   5.139 -0.2978  0.4403 -0.4692
17032TIP3    H272588   4.677   0.786   5.259 -0.1785  1.7063 -0.8048
17033TIP3   OH272589   3.753   0.683  13.011  0.1943 -0.3853  0.0672
17033TIP3    H172590   3.658   0.672  13.007  0.3230 -1.5272 -0.2193
17033TIP3    H272591   3.768   0.775  12.988 -0.8688 -0.0558  0.6456
17034TIP3   OH272592   5.849   3.643   1.355  0.0171  0.6757  0.4116
17034TIP3    H172593   5.795   3.622   1.279  2.2321  0.0515 -1.0711
17034TIP3    H272594   5.804   3.600   1.428 -1.1611 -0.3345 -0.8410
17035TIP3   OH272595   4.435   3.426   0.189  0.4720 -0.4611 -0.3074
17035TIP3    H172596   4.411   3.335   0.175  1.2703 -0.9774  1.3906
17035TIP3    H272597   4.473   3.455   0.106 -0.7916 -1.3137 -1.2145
17036TIP3   OH272598   4.642   3.375  10.479 -0.1468 -0.2561  0.7580
17036TIP3    H172599   4.603   3.450  10.433 -0.6511 -1.0556 -0.1412
17036TIP3    H272600   4.590   3.300  10.452  0.6342 -1.0155  1.3069
17037TIP3   OH272601   0.712   1.746   0.719 -0.0509 -0.2137  0.0954
17037TIP3    H172602   0.771   1.821   0.718  0.5433 -0.6712 -0.5771
17037TIP3    H272603   0.738   1.697   0.797  0.1691 -0.1863  0.0403
17038TIP3   OH272604   5.021   6.818   3.628 -0.1818  0.0032 -0.3305
17038TIP3    H172605   5.011   6.749   3.693 -1.1332 -1.7483 -2.2549
17038TIP3    H272606   4.976   6.893   3.666  1.0664 -0.2916  1.9007
17039TIP3   OH272607   1.445   5.381   2.629  1.1601 -0.0377 -0.4652
17039TIP3    H172608   1.476   5.468   2.604  0.3858 -0.2674 -2.3494
17039TIP3    H272609   1.521   5.340   2.672  2.7263  0.3194 -2.6912
17040TIP3   OH272610   5.800   4.479   2.773  0.9243  0.4041  0.4292
17040TIP3    H172611   5.872   4.530   2.736  0.3949  0.9428  0.1033
17040TIP3    H272612   5.776   4.526   2.853 -0.0106  1.0883 -0.2244
17041TIP3   OH272613   2.449   6.410  16.091  0.1515  0.2334 -0.4518
17041TIP3    H172614   2.525   6.450  16.133  0.1286 -0.4708  0.3034
17041TIP3    H272615   2.395   6.381  16.165 -0.0736 -0.7064 -0.9772
17042TIP3   OH272616   0.117   4.129   5.388 -0.2130  0.3630  0.1873
17042TIP3    H172617   0.196   4.158   5.343 -0.6081  0.0293 -0.7677
17042TIP3    H272618   0.082   4.060   5.331 -0.5804 -0.2943  1.1706
17043TIP3   OH272619   3.262   3.694   4.387 -0.4763  0.4740  0.5097
17043TIP3    H172620   3.207   3.641   4.330 -0.2350 -1.3736  1.8844
17043TIP3    H272621   3.204   3.763   4.419 -1.4236 -0.2076  0.3051
17044TIP3   OH272622   5.091   3.876  17.118 -0.0754  0.0387  0.9433
17044TIP3    H172623   5.015   3.931  17.100 -1.5308 -0.9671  3.4812
17044TIP3    H272624   5.159   3.937  17.148 -0.8729  0.7069  1.4200
17045TIP3   OH272625   6.750   4.931  13.998  0.3695 -0.1174 -0.4864
17045TIP3    H172626   6.754   5.012  13.947 -0.3795  0.8058  0.8604
17045TIP3    H272627   6.657   4.906  13.997  0.3193 -0.0125  0.4992
17046TIP3   OH272628   5.999   3.582  15.943  0.1841  0.0396 -0.4999
17046TIP3    H172629   5.918   3.583  15.893 -0.5381 -1.2447  0.5684
17046TIP3    H272630   6.036   3.670  15.933 -1.1827  0.5486 -1.2393
17047TIP3   OH272631   3.455   2.173  16.954 -0.4381 -0.2156 -0.1370
17047TIP3    H172632   3.495   2.208  16.874  0.2214  0.5127  0.4918
17047TIP3    H272633   3.516   2.106  16.983 -1.2179 -1.2542 -0.8095
17048TIP3   OH272634   2.161   6.397  16.608  0.2196 -0.2198 -0.1643
17048TIP3    H172635   2.108   6.408  16.529  0.7561  2.2765 -0.2583
17048TIP3    H272636   2.119   6.454  16.673  1.8185  0.5613  0.2356
17049TIP3   OH272637   4.417   1.282   4.649 -0.2015 -0.3227  0.2406
17049TIP3    H172638   4.479   1.348   4.618  0.8816 -1.2132  0.4434
17049TIP3    H272639   4.405   1.302   4.742  0.4672 -0.6650  0.4051
17050TIP3   OH272640   1.387   1.550  11.569  0.4935 -0.3205 -0.1051
17050TIP3    H172641   1.321   1.482  11.557 -0.7447  0.3605  2.2024
17050TIP3    H272642   1.439   1.520  11.643  1.9821 -0.2206 -1.0772
17051TIP3   OH272643   6.184   5.644  11.345 -0.5281 -0.0673  0.8823
17051TIP3    H172644   6.240   5.637  11.267 -2.2520  0.3803 -0.4518
17051TIP3    H272645   6.193   5.559  11.387  1.3728  0.0871  0.9011
17052TIP3   OH272646   6.160   6.561   3.207 -0.4838  0.7181  0.4767
17052TIP3    H172647   6.075   6.519   3.191 -0.4030  1.1974 -1.3441
17052TIP3    H272648   6.172   6.552   3.302 -1.9910 -0.4374  0.6155
17053TIP3   OH272649   1.292   3.869   0.569  0.3264 -0.3334  0.1091
17053TIP3    H172650   1.278   3.823   0.487  0.1554 -0.8293  0.4153
17053TIP3    H272651   1.213   3.851   0.620 -0.2007  1.1141 -0.1488
17054TIP3   OH272652   2.980   1.003  13.135  0.5010  0.5613  0.3484
17054TIP3    H172653   2.996   0.990  13.228 -2.3186 -3.2259  0.5588
17054TIP3    H272654   3.037   0.940  13.091 -0.4694  0.0435 -0.2028
17055TIP3   OH272655   4.399   0.324  14.236 -0.0064  0.0263  0.4520
17055TIP3    H172656   4.374   0.411  14.268 -0.2528  1.5809 -3.4188
17055TIP3    H272657   4.495   0.323  14.242 -0.0134  0.4831  0.6879
17056TIP3   OH272658   3.772   2.929  15.563  0.7356 -0.7311 -0.4758
17056TIP3    H172659   3.791   2.980  15.642 -0.7557 -0.2249 -0.4118
17056TIP3    H272660   3.828   2.967  15.496  1.8276 -0.9961  0.2696
17057TIP3   OH272661   0.519   0.071  10.491 -0.3563 -0.3199  0.6497
17057TIP3    H172662   0.467   0.071  10.410  0.5875 -2.7266 -0.0686
17057TIP3    H272663   0.454   0.072  10.561 -1.2823 -0.5179 -0.1774
17058TIP3   OH272664   3.877   4.542  14.219  0.2039 -1.2464 -0.4384
17058TIP3    H172665   3.954   4.525  14.164 -0.2084 -0.1554 -1.3937
17058TIP3    H272666   3.865   4.461  14.269  2.1726 -1.3165  0.0018
17059TIP3   OH272667   3.318   0.046  16.458 -0.6079 -0.1662  0.4595
17059TIP3    H172668   3.318  -0.039  16.501 -0.9918 -1.6833 -2.2754
17059TIP3    H272669   3.405   0.082  16.474  1.2508 -3.1514 -1.8938
17060TIP3   OH272670   0.211   4.350  10.490 -0.5603 -0.1948  0.7812
17060TIP3    H172671   0.209   4.346  10.394  0.1095  1.8702  0.6436
17060TIP3    H272672   0.135   4.402  10.514 -0.0908  0.2668  1.2905
17061TIP3   OH272673   2.131   5.714  12.374  0.3889 -0.4920  0.3503
17061TIP3    H172674   2.195   5.702  12.444 -0.0391 -0.4597  0.7495
17061TIP3    H272675   2.058   5.759  12.416 -0.4221 -1.6136  0.1930
17062TIP3   OH272676   1.166   2.033  15.771  0.3606 -0.2255 -0.2201
17062TIP3    H172677   1.232   2.057  15.836 -0.5427  1.6093  0.0916
17062TIP3    H272678   1.210   2.047  15.687  0.8336 -0.4214 -0.0077
17063TIP3   OH272679   3.721   2.319   5.773 -0.1345 -0.4892 -0.0187
17063TIP3    H172680   3.662   2.364   5.833  0.3579 -0.3559  0.3701
17063TIP3    H272681   3.776   2.264   5.829  1.3423  0.7563 -0.1599
17064TIP3   OH272682   4.923   3.570   1.475  0.4208 -0.0878  0.1781
17064TIP3    H172683   4.870   3.633   1.523  0.4516  1.1993 -1.4160
17064TIP3    H272684   4.861   3.503   1.447  0.1041  0.0610  0.5119
17065TIP3   OH272685   1.904   4.925   3.548 -0.3470  0.2057 -0.7710
17065TIP3    H172686   1.884   4.958   3.635  0.7858  1.5758 -0.9895
17065TIP3    H272687   1.865   4.988   3.488 -0.4075 -0.2788 -1.2536
17066TIP3   OH272688   6.123   0.456   4.026 -0.8218  0.3777 -0.2175
17066TIP3    H172689   6.140   0.367   4.057 -0.3684  0.8021  0.7830
17066TIP3    H272690   6.028   0.465   4.030 -1.1167 -0.8648 -2.6433
17067TIP3   OH272691   1.391   2.144  11.723  0.4618 -0.1151  0.4686
17067TIP3    H172692   1.419   2.069  11.776  0.7292  0.3961  1.0586
17067TIP3    H272693   1.464   2.160  11.664  0.2739 -0.5177  0.1239
17068TIP3   OH272694   5.493   6.783   5.742 -0.6091 -0.3045  0.6739
17068TIP3    H172695   5.586   6.783   5.765 -0.4851 -0.8993  0.2027
17068TIP3    H272696   5.487   6.723   5.668 -0.9099  2.0253 -1.2947
17069TIP3   OH272697   0.829   6.024  17.104  0.5722  0.8085 -0.2134
17069TIP3    H172698   0.910   6.023  17.157 -0.0360 -0.0287  0.7262
17069TIP3    H272699   0.762   6.056  17.164 -0.1449 -0.1951 -0.4675
17070TIP3   OH272700   3.078   2.121  13.183  0.2111 -0.4957 -0.1527
17070TIP3    H172701   3.018   2.152  13.116 -0.5791 -0.4576  0.5594
17070TIP3    H272702   3.164   2.127  13.142  0.0385  1.9941 -0.2810
17071TIP3   OH272703   1.114   0.128   3.138 -0.0600 -0.3039  0.0491
17071TIP3    H172704   1.112   0.035   3.161 -1.7650 -0.0383  1.2225
17071TIP3    H272705   1.187   0.136   3.076  1.2479 -2.0904  1.2459
17072TIP3   OH272706   4.354   5.021  15.575  0.2947 -0.1707 -0.2083
17072TIP3    H172707   4.298   4.944  15.576 -0.6967  0.5301  1.0823
17072TIP3    H272708   4.324   5.074  15.649  3.5686 -0.3977  1.4677
17073TIP3   OH272709   2.046   2.843   1.490 -0.1054  0.0508  0.0055
17073TIP3    H172710   2.101   2.837   1.568  0.3491  1.2091 -0.1989
17073TIP3    H272711   2.108   2.855   1.418 -0.4957 -1.3134 -0.6023
17074TIP3   OH272712   6.078   0.272  15.485  0.6144 -0.0423 -0.0322
17074TIP3    H172713   6.169   0.243  15.479 -0.1775 -3.1393  0.9813
17074TIP3    H272714   6.040   0.249  15.400  0.2603 -0.9479  0.3604
17075TIP3   OH272715   5.924   5.965  13.732  0.6597  0.4129  0.1035
17075TIP3    H172716   5.911   6.050  13.691 -1.3555 -0.6802 -1.7579
17075TIP3    H272717   5.947   5.906  13.660 -1.0221 -1.1869  0.7699
17076TIP3   OH272718   1.436   1.457  13.337  0.4591 -0.2722 -0.6415
17076TIP3    H172719   1.355   1.463  13.287  0.4560  0.4634 -0.5459
17076TIP3    H272720   1.435   1.368  13.373 -0.3626 -0.2282 -0.5441
17077TIP3   OH272721   5.230   0.877  13.121 -0.3167  0.4455  0.7360
17077TIP3    H172722   5.287   0.877  13.043 -0.1958 -0.1062  0.8185
17077TIP3    H272723   5.171   0.803  13.107 -1.1532  1.1214  0.5653
17078TIP3   OH272724   6.239   4.890  15.569 -0.4794 -0.2135 -0.5764
17078TIP3    H172725   6.232   4.942  15.489 -2.0755 -1.7847 -1.5312
17078TIP3    H272726   6.246   4.799  15.538  1.1625 -0.7124  1.0461
17079TIP3   OH272727   6.778   4.992  11.184 -0.1986  0.3635  0.4685
17079TIP3    H172728   6.854   4.935  11.198 -1.0342 -0.7209  0.7324
17079TIP3    H272729   6.754   5.021  11.272  1.1973  2.5050  0.2218
17080TIP3   OH272730   1.970   1.089   0.966  0.0675 -0.1389 -0.6544
17080TIP3    H172731   1.978   1.181   0.991 -0.1009 -0.3873  0.3413
17080TIP3    H272732   2.057   1.052   0.980 -0.5031 -0.7660  1.6638
17081TIP3   OH272733   0.649   2.223  10.665  0.0687  0.4959  0.4089
17081TIP3    H172734   0.655   2.318  10.653 -0.2527  0.5101  0.3433
17081TIP3    H272735   0.566   2.199  10.623  1.4955 -0.2412 -2.2634
17082TIP3   OH272736   2.360   1.740   4.316  0.1833  0.4000  0.4055
17082TIP3    H172737   2.332   1.663   4.366 -0.9707 -0.2979 -1.1871
17082TIP3    H272738   2.301   1.742   4.241  1.3257  1.8336 -0.5236
17083TIP3   OH272739   1.026   2.568  11.398  0.3717  0.3788  0.0147
17083TIP3    H172740   1.019   2.648  11.450 -0.9246 -1.1315  2.3609
17083TIP3    H272741   0.945   2.565  11.348  0.6278  0.7533 -0.4248
17084TIP3   OH272742   3.683   2.324  15.849  0.4145  0.0734  0.0136
17084TIP3    H172743   3.634   2.256  15.804  0.6767 -0.0408 -0.1005
17084TIP3    H272744   3.770   2.287  15.862 -0.1859 -0.6964  2.4158
17085TIP3   OH272745   5.085   4.114   2.902 -0.1077 -0.5778 -0.1010
17085TIP3    H172746   5.031   4.140   2.977 -0.2669 -2.0450  0.3338
17085TIP3    H272747   5.166   4.081   2.941  1.3089  1.8970 -0.7556
17086TIP3   OH272748   1.881   1.258  13.446 -0.6851 -0.0524  0.3156
17086TIP3    H172749   1.953   1.261  13.383 -1.4049  1.3415 -0.4869
17086TIP3    H272750   1.860   1.350  13.462 -2.1378 -0.4354  0.7155
17087TIP3   OH272751   4.389   0.494  13.069  0.6517  0.4459 -0.1989
17087TIP3    H172752   4.436   0.573  13.042  1.6407 -0.5601 -1.5521
17087TIP3    H272753   4.300   0.508  13.039  0.9392  0.8350 -0.8961
17088TIP3   OH272754   0.736   2.829  14.187 -0.1278  0.3059  0.2163
17088TIP3    H172755   0.662   2.797  14.136 -0.0889  1.0246 -0.3012
17088TIP3    H272756   0.813   2.805  14.136 -0.1152  1.6294 -0.4499
17089TIP3   OH272757   6.227   2.625  10.960 -0.1716 -0.1159 -0.1884
17089TIP3    H172758   6.319   2.605  10.943 -0.3296 -0.9128 -0.1448
17089TIP3    H272759   6.220   2.719  10.943  0.6748 -0.0172 -0.0692
17090TIP3   OH272760   1.127   1.474   5.248 -0.7592  0.2373 -0.4177
17090TIP3    H172761   1.165   1.408   5.307 -0.8549 -0.1948 -0.8333
17090TIP3    H272762   1.159   1.449   5.161 -3.1791 -1.0577 -1.0155
17091TIP3   OH272763   0.882   3.325   0.434 -0.1626  0.7762  0.3852
17091TIP3    H172764   0.818   3.321   0.505  1.1690  0.9514  1.6721
17091TIP3    H272765   0.966   3.312   0.478  0.6396 -0.2027 -1.3330
17092TIP3   OH272766   2.988   1.881  16.300 -0.0100 -0.1671 -0.1982
17092TIP3    H172767   2.932   1.953  16.270 -0.5773 -1.3789 -2.2780
17092TIP3    H272768   3.077   1.917  16.297 -0.1609  0.1555 -2.3504
17093TIP3   OH272769   4.342   2.984  15.713  0.3448  0.6421 -0.6894
17093TIP3    H172770   4.317   2.894  15.734 -2.5133  1.5235  0.2104
17093TIP3    H272771   4.377   2.979  15.625  0.4476 -1.3907 -0.5743
17094TIP3   OH272772   3.836   3.457   2.394  0.2933  0.0446  0.0518
17094TIP3    H172773   3.901   3.527   2.392  1.8846 -1.3890 -0.3141
17094TIP3    H272774   3.851   3.413   2.478  0.2866 -0.7214 -0.3385
17095TIP3   OH272775   6.479   1.955   2.263  0.1269 -0.3112  0.6651
17095TIP3    H172776   6.552   2.013   2.286  0.0220  1.3217 -2.5345
17095TIP3    H272777   6.403   2.012   2.261 -0.0926 -0.5804 -1.9851
17096TIP3   OH272778   4.218   2.369  11.258 -0.2762  0.0722  0.2804
17096TIP3    H172779   4.210   2.285  11.304 -1.0717  0.7047  1.3451
17096TIP3    H272780   4.258   2.427  11.323  0.2487  0.5287 -0.4465
17097TIP3   OH272781   6.065   5.200  14.755  0.1485 -0.2534  0.1551
17097TIP3    H172782   6.055   5.295  14.757 -1.0769 -0.3786  1.3748
17097TIP3    H272783   5.977   5.167  14.739  0.6715 -1.1884 -0.9275
17098TIP3   OH272784   3.186   1.329  10.444 -0.1928  0.4566  0.3178
17098TIP3    H172785   3.121   1.400  10.453 -0.0534  0.5068  1.0373
17098TIP3    H272786   3.270   1.374  10.439 -0.1489  0.3625  0.2155
17099TIP3   OH272787   5.620   0.239  11.725 -0.5817 -0.4338 -0.2247
17099TIP3    H172788   5.558   0.310  11.739  1.5781  1.4437  0.3655
17099TIP3    H272789   5.622   0.192  11.808  0.7833  1.2224  0.7434
17100TIP3   OH272790   1.760   2.677   3.334 -0.0963 -0.6423  0.6197
17100TIP3    H172791   1.770   2.649   3.243  0.3137  0.4909  0.2982
17100TIP3    H272792   1.735   2.770   3.328 -1.6633 -0.9529  1.6344
17101TIP3   OH272793   3.157   3.946   2.736 -0.7136  0.2535  0.7188
17101TIP3    H172794   3.198   3.877   2.789  1.2089  0.8112  0.0530
17101TIP3    H272795   3.166   4.025   2.788 -0.3684  0.4924  0.3052
17102TIP3   OH272796   6.278   0.156  11.037 -0.2749  0.3167  0.5529
17102TIP3    H172797   6.277   0.163  10.942  1.4177 -1.0281  0.3776
17102TIP3    H272798   6.202   0.206  11.066 -0.3746  1.4233 -1.4462
17103TIP3   OH272799   0.606   6.185   3.322 -0.7155  0.3489  0.2772
17103TIP3    H172800   0.694   6.215   3.346  0.3812 -0.9473 -1.7392
17103TIP3    H272801   0.615   6.089   3.317 -3.0791 -0.1282  2.9297
17104TIP3   OH272802   1.379   0.984   3.332 -0.0569  0.0158  0.4460
17104TIP3    H172803   1.342   1.012   3.416 -0.9268  0.3092 -0.0232
17104TIP3    H272804   1.316   1.014   3.267  0.7936  0.1090 -0.3455
17105TIP3   OH272805   5.628   4.859  12.650  1.4355 -0.5115  0.0353
17105TIP3    H172806   5.656   4.826  12.564 -0.3401  1.0569 -1.2222
17105TIP3    H272807   5.591   4.782  12.694 -1.4654 -0.6426 -2.3139
17106TIP3   OH272808   1.615   3.316  14.842  0.2782 -0.1037  0.2337
17106TIP3    H172809   1.657   3.385  14.791 -0.7399  1.0215  0.8642
17106TIP3    H272810   1.666   3.311  14.923  0.5127 -0.2649  0.0736
17107TIP3   OH272811   5.016   5.308  12.860  0.8535  0.0965 -0.2267
17107TIP3    H172812   5.011   5.396  12.822  0.1998  0.0062 -0.3627
17107TIP3    H272813   4.992   5.250  12.789 -1.5357 -0.0090  0.5899
17108TIP3   OH272814   4.824   4.126   5.612  0.1053  0.2688 -0.4621
17108TIP3    H172815   4.773   4.048   5.635  1.1926  0.4105  2.9854
17108TIP3    H272816   4.905   4.091   5.573  0.4169 -0.3675  0.7030
17109TIP3   OH272817   1.015   5.440   4.792  0.5333 -0.3603 -0.2386
17109TIP3    H172818   1.103   5.408   4.811  0.3944 -0.3486  0.4434
17109TIP3    H272819   0.995   5.500   4.864 -0.3576 -1.0152  0.0859
17110TIP3   OH272820   4.787   3.506  13.784  0.2335 -0.0852  0.0220
17110TIP3    H172821   4.771   3.566  13.711 -0.3215 -0.8762 -0.5238
17110TIP3    H272822   4.699   3.488  13.819  0.5688  1.3375  1.7792
17111TIP3   OH272823   5.505   0.351  15.796 -0.1112  0.4872 -0.3104
17111TIP3    H172824   5.450   0.279  15.826 -1.0805  0.8428 -1.1763
17111TIP3    H272825   5.456   0.430  15.819  1.0665  0.9169  0.8872
17112TIP3   OH272826   2.909   0.283   0.036 -0.3848  0.1999  0.0309
17112TIP3    H172827   2.869   0.369   0.044  1.2674  0.9337  0.9323
17112TIP3    H272828   2.986   0.297  -0.019 -0.4755 -0.8478 -0.3877
17113TIP3   OH272829   3.158   4.461   5.438  0.2655  0.3436 -0.2696
17113TIP3    H172830   3.208   4.400   5.382  0.5779 -0.1377  0.5099
17113TIP3    H272831   3.070   4.424   5.441  0.0156  0.8338 -1.1126
17114TIP3   OH272832   1.022   6.280  15.594  0.3682  0.1553  0.1366
17114TIP3    H172833   1.104   6.325  15.614 -0.8494  1.6995  1.9976
17114TIP3    H272834   0.995   6.241  15.677 -1.1841  0.3507 -0.2540
17115TIP3   OH272835   5.279   3.235   4.293  0.7288  0.2329 -0.1786
17115TIP3    H172836   5.265   3.264   4.383  0.7821 -1.1659  0.3079
17115TIP3    H272837   5.257   3.311   4.239 -0.1463  0.8202  0.9695
17116TIP3   OH272838   6.588   4.856   4.624  0.2549  0.6015 -0.2276
17116TIP3    H172839   6.650   4.784   4.611 -0.3501  0.2115 -1.1263
17116TIP3    H272840   6.632   4.933   4.588  0.9257  0.7097  0.7792
17117TIP3   OH272841   3.919   4.061   4.070 -0.1399  0.0484  0.4157
17117TIP3    H172842   3.855   3.993   4.048  2.3862 -1.9142 -1.4768
17117TIP3    H272843   4.000   4.013   4.086  1.6973  2.6071 -0.6143
17118TIP3   OH272844   1.095   3.767  13.914  0.2483 -0.0172 -0.5262
17118TIP3    H172845   1.039   3.723  13.849  1.0118 -2.5990  0.4301
17118TIP3    H272846   1.168   3.802  13.863  0.0694 -0.6698 -1.2504
17119TIP3   OH272847   2.212   3.863   5.387 -0.4726 -0.0382 -0.4353
17119TIP3    H172848   2.133   3.917   5.390  0.3137  1.1303  0.2775
17119TIP3    H272849   2.189   3.785   5.437 -0.6652  1.0656  1.3099
17120TIP3   OH272850   2.918   5.230  10.305 -0.1492  0.1222  0.4347
17120TIP3    H172851   2.900   5.141  10.275  1.5911  0.0177 -0.4248
17120TIP3    H272852   2.884   5.286  10.235 -1.3545  0.1709  1.0308
17121TIP3   OH272853   6.747   2.316  14.333 -0.0925  0.0372  0.6245
17121TIP3    H172854   6.780   2.391  14.283 -1.5225 -0.2429 -0.8215
17121TIP3    H272855   6.764   2.241  14.276 -1.2746 -0.3630  0.7676
17122TIP3   OH272856   4.782   4.371   6.163  0.1192 -0.6477 -0.3356
17122TIP3    H172857   4.698   4.372   6.209  0.1792  1.1859 -0.1876
17122TIP3    H272858   4.767   4.425   6.085  0.7704 -1.5037 -1.0728
17123TIP3   OH272859   1.209   0.912   1.319  0.0925  0.3036  0.4009
17123TIP3    H172860   1.136   0.922   1.381 -0.3382 -0.0648 -0.0382
17123TIP3    H272861   1.218   0.998   1.278 -0.5287  0.1770 -0.0139
17124TIP3   OH272862   1.858   6.369  13.875 -0.0366  0.1766 -0.2442
17124TIP3    H172863   1.907   6.451  13.884  1.5574 -0.5550 -1.8134
17124TIP3    H272864   1.857   6.352  13.781 -0.6908 -1.4119  0.0272
17125TIP3   OH272865   5.989   0.901  12.159 -0.7431 -0.1719  0.5905
17125TIP3    H172866   5.997   0.996  12.158  0.2459 -0.2421 -0.8998
17125TIP3    H272867   6.034   0.873  12.239  1.6424  0.4555 -0.4413
17126TIP3   OH272868   5.643   6.239   5.224  0.7302  0.1131  0.0599
17126TIP3    H172869   5.575   6.270   5.164  0.9934 -1.7023 -1.2590
17126TIP3    H272870   5.715   6.301   5.212  0.1004  0.8313 -0.1126
17127TIP3   OH272871   2.761   6.643   4.827  0.6430 -0.5471  0.6175
17127TIP3    H172872   2.815   6.624   4.750 -1.5233 -1.4056 -0.8231
17127TIP3    H272873   2.775   6.569   4.885 -0.9532 -2.2276 -0.9802
17128TIP3   OH272874   1.158   0.192  12.121 -0.3280 -0.0561  0.2678
17128TIP3    H172875   1.231   0.251  12.143  1.7881 -1.7784 -1.6072
17128TIP3    H272876   1.155   0.193  12.025 -0.0110 -3.1128  0.1328
17129TIP3   OH272877   3.999   1.892   4.935  0.9065 -0.7601 -0.5378
17129TIP3    H172878   3.904   1.879   4.925  0.5950  0.7442  0.1108
17129TIP3    H272879   4.038   1.812   4.900 -0.5820 -1.2243 -1.2368
17130TIP3   OH272880   2.901   6.433  12.358 -0.1282 -0.4396 -0.0496
17130TIP3    H172881   2.887   6.527  12.354 -0.6377 -0.4286  1.2707
17130TIP3    H272882   2.995   6.422  12.371 -0.1340 -0.0885  0.2848
17131TIP3   OH272883   0.658   2.462   2.134  0.3827 -0.2379 -0.1110
17131TIP3    H172884   0.624   2.445   2.222  0.2249  0.7641  0.0345
17131TIP3    H272885   0.724   2.529   2.147 -1.4980  1.9056 -1.0334
17132TIP3   OH272886   5.090   4.681  11.025  0.0975 -0.1949  0.0960
17132TIP3    H172887   5.178   4.718  11.037  0.9726 -1.6047 -1.5048
17132TIP3    H272888   5.078   4.623  11.100  0.8662 -0.5886 -0.0771
17133TIP3   OH272889   0.548   1.609   3.824  0.2966 -0.4831 -0.3235
17133TIP3    H172890   0.480   1.574   3.766 -0.1646  2.0093 -1.4314
17133TIP3    H272891   0.501   1.662   3.887  1.0205 -1.1676  0.8279
17134TIP3   OH272892   2.547   6.608   0.872 -0.2918 -0.3469  0.1290
17134TIP3    H172893   2.504   6.523   0.862  0.1083 -0.9835  2.8888
17134TIP3    H272894   2.608   6.613   0.799 -2.0353 -1.3064 -1.4726
17135TIP3   OH272895   5.489   4.254  13.501 -0.1202 -0.4905  0.1919
17135TIP3    H172896   5.399   4.282  13.514 -0.2594 -1.3644  1.3071
17135TIP3    H272897   5.537   4.292  13.575  0.1273 -1.2777  0.4406
17136TIP3   OH272898   0.803   3.254  16.978  0.3883  0.0520  0.6155
17136TIP3    H172899   0.861   3.219  17.046 -2.4621 -1.4320  2.5004
17136TIP3    H272900   0.717   3.219  17.000 -1.0110  0.9077 -2.8745
17137TIP3   OH272901   0.584   1.058   1.250  0.3195  0.1607  0.2923
17137TIP3    H172902   0.524   1.026   1.182 -0.0270  0.4365  0.4629
17137TIP3    H272903   0.668   1.069   1.205 -0.7516  4.0511 -1.1572
17138TIP3   OH272904   2.538   1.609   3.318  0.7170  0.0795  0.0802
17138TIP3    H172905   2.586   1.689   3.338  0.2392  0.1998  0.7999
17138TIP3    H272906   2.472   1.603   3.387  0.6681 -0.8704 -0.0369
17139TIP3   OH272907   2.701   4.684  11.490  0.2350  0.8303  0.1381
17139TIP3    H172908   2.736   4.597  11.473 -0.0282  0.4542  1.4137
17139TIP3    H272909   2.659   4.710  11.407 -0.6174 -0.7005  0.0553
17140TIP3   OH272910   5.531   2.836  15.603 -0.3198 -1.0726 -0.7982
17140TIP3    H172911   5.523   2.818  15.509 -0.5893  0.6961 -1.1561
17140TIP3    H272912   5.617   2.801  15.627  1.2122  1.1777 -2.4737
17141TIP3   OH272913   3.519   6.820   1.159 -0.0838  0.0547  0.2145
17141TIP3    H172914   3.495   6.730   1.138  0.5600 -0.3449  1.1383
17141TIP3    H272915   3.532   6.820   1.254  4.0930  0.0680 -0.1956
17142TIP3   OH272916   5.085   4.755   2.591 -0.2983 -0.2451  0.4085
17142TIP3    H172917   5.163   4.741   2.537  0.2371 -1.6163  1.4697
17142TIP3    H272918   5.111   4.727   2.678 -1.8925 -0.4588  0.8508
17143TIP3   OH272919   0.942   1.734  12.034 -0.8162 -0.3448  0.2376
17143TIP3    H172920   0.919   1.826  12.041 -2.7262 -0.9018  2.3204
17143TIP3    H272921   0.919   1.710  11.944 -2.7896  0.6181  0.4460
17144TIP3   OH272922   0.643   5.173   2.984 -0.2496  0.5613 -0.0600
17144TIP3    H172923   0.614   5.091   2.944  0.3670 -0.8879  2.2781
17144TIP3    H272924   0.677   5.147   3.070  3.5035  2.7276 -0.6646
17145TIP3   OH272925   2.705   0.051  17.126  0.1922  0.2484 -0.7918
17145TIP3    H172926   2.790   0.094  17.125  0.5186 -0.2955  0.8912
17145TIP3    H272927   2.689   0.031  17.218 -1.6880  0.1927 -1.0834
17146TIP3   OH272928   2.651   4.853   2.119  0.1511  0.4059  0.0127
17146TIP3    H172929   2.588   4.860   2.047  0.4195  0.3669 -0.2256
17146TIP3    H272930   2.661   4.943   2.150 -2.7172  0.0669  2.3911
17147TIP3   OH272931   2.770   2.473  11.386 -0.1626 -0.1848  0.2313
17147TIP3    H172932   2.838   2.421  11.430 -0.0445  0.6162  1.0198
17147TIP3    H272933   2.721   2.514  11.457 -2.2626 -1.6534 -0.2631
17148TIP3   OH272934   3.379   0.435   1.775  0.2973  0.1955 -0.1962
17148TIP3    H172935   3.303   0.484   1.807  1.9232  1.8022  1.5294
17148TIP3    H272936   3.374   0.352   1.821  0.5054  0.9926  1.3468
17149TIP3   OH272937   5.748   5.694  13.179 -0.2551 -0.3151 -0.3756
17149TIP3    H172938   5.721   5.677  13.089  0.6747  2.7324 -1.3351
17149TIP3    H272939   5.841   5.674  13.180 -0.5896 -2.0343  0.4624
17150TIP3   OH272940   4.436   5.813   5.349  0.4003 -0.2415  0.0069
17150TIP3    H172941   4.386   5.879   5.301  1.6778  0.4173 -0.4622
17150TIP3    H272942   4.521   5.810   5.304  0.1695 -2.6685 -0.3903
17151TIP3   OH272943   1.730   3.355   0.620 -0.5047 -0.3178  0.0358
17151TIP3    H172944   1.782   3.279   0.645 -1.6909 -0.4048  2.5757
17151TIP3    H272945   1.677   3.326   0.546 -1.4696 -2.2588  1.4156
17152TIP3   OH272946   4.654   4.334   4.229  0.9003 -0.6564 -0.3285
17152TIP3    H172947   4.573   4.385   4.232  1.7981  0.8949 -1.0925
17152TIP3    H272948   4.627   4.247   4.201 -0.7081 -0.6776  1.1296
17153TIP3   OH272949   2.047   3.507  16.665 -0.3105 -0.4021  0.3658
17153TIP3    H172950   2.139   3.500  16.638 -0.8519 -0.7261 -1.5541
17153TIP3    H272951   2.051   3.526  16.759  1.7003 -0.9140  0.4342
17154TIP3   OH272952   1.944   0.809  15.159 -0.6266 -0.1997 -0.1040
17154TIP3    H172953   1.978   0.739  15.215 -0.8574  0.4202  0.8161
17154TIP3    H272954   2.020   0.862  15.137 -0.5115 -0.5217 -0.5255
17155TIP3   OH272955   4.942   6.518  11.952  0.2557 -0.6786 -0.4761
17155TIP3    H172956   4.871   6.580  11.967  1.7356  0.6258  1.6861
17155TIP3    H272957   4.927   6.448  12.015 -0.8455 -2.1063 -2.2278
17156TIP3   OH272958   4.807   3.553   5.907  0.6082 -0.0100 -0.5073
17156TIP3    H172959   4.712   3.552   5.920  0.6442  0.2767 -0.2070
17156TIP3    H272960   4.839   3.476   5.953  0.5760  0.1876 -0.1509
17157TIP3   OH272961   4.567   0.883   1.773  0.3771 -0.0102  0.8138
17157TIP3    H172962   4.511   0.960   1.775  1.9128  1.1204  2.3181
17157TIP3    H272963   4.605   0.878   1.860  1.7624 -1.3799  0.1762
17158TIP3   OH272964   5.599   0.734  12.717  0.0529  0.2582 -0.7844
17158TIP3    H172965   5.545   0.659  12.691  0.5679 -0.4102  0.0298
17158TIP3    H272966   5.535   0.801  12.745 -0.3838 -0.3422 -0.3141
17159TIP3   OH272967   0.557   6.611  16.064 -0.2041 -0.0097 -0.6123
17159TIP3    H172968   0.576   6.693  16.110 -0.2720 -0.2060 -0.2288
17159TIP3    H272969   0.592   6.625  15.976  2.0426 -0.4649  0.1486
17160TIP3   OH272970   3.068   4.439  16.811  0.2776  0.2525  0.6619
17160TIP3    H172971   3.016   4.503  16.859  0.2119  0.5281  0.2264
17160TIP3    H272972   3.157   4.473  16.814 -0.0297  1.3002 -1.0877
17161TIP3   OH272973   6.460   4.885   1.397  0.7709 -0.2284 -0.4898
17161TIP3    H172974   6.483   4.822   1.465 -2.0379 -0.9279 -0.0578
17161TIP3    H272975   6.466   4.836   1.315 -0.5360 -0.8287 -0.2411
17162TIP3   OH272976   2.470   3.843  13.462  0.2922  0.6575 -0.1257
17162TIP3    H172977   2.492   3.835  13.369 -0.8200 -0.8489 -0.3103
17162TIP3    H272978   2.527   3.912  13.495  2.3118 -0.2964 -1.4321
17163TIP3   OH272979   3.333   0.706  10.489  0.4285 -0.3819  0.3147
17163TIP3    H172980   3.289   0.648  10.551  0.3097 -2.0573 -1.2689
17163TIP3    H272981   3.424   0.675  10.488 -0.0224 -1.8354 -1.8934
17164TIP3   OH272982   4.697   2.942   1.604  0.1239  0.3905 -0.7220
17164TIP3    H172983   4.715   2.950   1.510 -1.0509 -0.0194 -0.9884
17164TIP3    H272984   4.641   3.017   1.624 -1.1068 -0.5150 -0.7299
17165TIP3   OH272985   2.429   0.856   1.231 -0.0491 -0.2683  0.0736
17165TIP3    H172986   2.438   0.780   1.174 -0.2694 -1.0765  1.0911
17165TIP3    H272987   2.390   0.822   1.311  0.4352  0.8056  0.7920
17166TIP3   OH272988   2.530   3.767  16.264  0.2080 -0.2896 -0.1451
17166TIP3    H172989   2.538   3.858  16.292  0.2674 -0.5329  0.6282
17166TIP3    H272990   2.472   3.771  16.188 -0.7944  0.2576  0.6236
17167TIP3   OH272991   4.669   0.804   4.357 -0.0837  0.6050  0.4596
17167TIP3    H172992   4.731   0.838   4.422  0.8394  1.4282 -0.8138
17167TIP3    H272993   4.695   0.713   4.345 -0.3445  0.4046  1.3224
17168TIP3   OH272994   5.521   4.904  13.958 -0.5324  0.0791 -0.0908
17168TIP3    H172995   5.499   4.813  13.980  0.0883 -0.0057  0.2102
17168TIP3    H272996   5.615   4.909  13.972 -0.5961  0.8271  0.0761
17169TIP3   OH272997   3.105   4.885   4.051  0.0300  0.5127 -0.1870
17169TIP3    H172998   3.195   4.918   4.050  0.6326 -0.8974 -2.7725
17169TIP3    H272999   3.114   4.791   4.066 -1.1984  0.5768  1.2053
17170TIP3   OH273000   5.147   4.196  12.923  0.8402  0.2850  0.6479
17170TIP3    H173001   5.058   4.231  12.917  1.1458  1.1237  0.7612
17170TIP3    H273002   5.138   4.103  12.902 -0.4094 -0.1582  2.7819
17171TIP3   OH273003   3.403   0.273   4.503 -0.3182  0.1702 -0.3921
17171TIP3    H173004   3.404   0.364   4.534 -0.0307  1.1080 -2.8981
17171TIP3    H273005   3.428   0.221   4.579  3.5095  2.5278  0.2365
17172TIP3   OH273006   1.336   2.958   1.098  0.0317 -0.0210 -0.2493
17172TIP3    H173007   1.296   2.905   1.029  0.7128 -0.4277 -0.3399
17172TIP3    H273008   1.426   2.925   1.105 -0.2198 -0.4589  1.3084
17173TIP3   OH273009   4.322   5.439  11.518  0.5182  0.6170 -0.0522
17173TIP3    H173010   4.348   5.355  11.557  0.8026  0.3063 -0.8766
17173TIP3    H273011   4.237   5.458  11.557 -0.8403 -1.4063 -1.7929
17174TIP3   OH273012   2.930   3.332  13.418  0.5404 -0.4128  0.0231
17174TIP3    H173013   2.950   3.276  13.492 -0.5490 -0.7735  0.0602
17174TIP3    H273014   2.999   3.399  13.419  1.0847 -0.9729  0.7680
17175TIP3   OH273015   2.168   3.309   4.129 -0.5284 -0.3283 -0.0353
17175TIP3    H173016   2.241   3.307   4.067  0.5466  0.6482  1.1488
17175TIP3    H273017   2.205   3.278   4.211 -1.1427  1.2637  0.8727
17176TIP3   OH273018   4.690   1.380  11.284 -0.3428 -0.5501  0.0641
17176TIP3    H173019   4.606   1.384  11.238 -0.7865  1.6266  0.9393
17176TIP3    H273020   4.677   1.433  11.363  1.9030  0.0468  0.1018
17177TIP3   OH273021   3.878   6.009  16.131 -0.1481 -0.0431  0.6450
17177TIP3    H173022   3.850   6.029  16.221 -1.0784  1.0357  0.1464
17177TIP3    H273023   3.865   6.091  16.084  0.4113 -0.5770 -0.4629
17178TIP3   OH273024   0.667   3.725   3.383  0.2427  0.1792 -0.3134
17178TIP3    H173025   0.655   3.631   3.370 -0.7227 -0.0462  1.8891
17178TIP3    H273026   0.737   3.748   3.321  2.0476 -2.3984  0.5786
17179TIP3   OH273027   6.791   6.374  10.800 -0.1154  0.0733  1.1574
17179TIP3    H173028   6.813   6.455  10.754  0.4516 -0.5153  0.3727
17179TIP3    H273029   6.708   6.346  10.760 -0.0363 -0.0134  1.0530
17180TIP3   OH273030   5.568   4.250   1.581  0.0601 -0.5014 -0.1231
17180TIP3    H173031   5.608   4.316   1.637  2.0636 -2.2087  0.6293
17180TIP3    H273032   5.572   4.287   1.493 -0.1906  0.9272  0.4440
17181TIP3   OH273033   3.650   2.316   1.234  0.1221 -0.4415  0.1862
17181TIP3    H173034   3.690   2.270   1.308 -0.1932  0.2648  0.8058
17181TIP3    H273035   3.584   2.256   1.201  0.3363 -0.8020  0.4072
17182TIP3   OH273036   5.295   0.154   6.685 -0.8474 -0.0390 -0.1620
17182TIP3    H173037   5.221   0.212   6.668 -1.8922 -1.7010 -1.6916
17182TIP3    H273038   5.330   0.134   6.598  0.7695 -0.1125  0.4738
17183TIP3   OH273039   4.856   5.053   0.348 -0.1653 -0.0627 -0.5875
17183TIP3    H173040   4.835   5.123   0.410  0.8953 -0.3627  0.1409
17183TIP3    H273041   4.859   5.097   0.262 -3.2206  0.0833 -0.7382
17184TIP3   OH273042   5.658   3.515  16.539 -0.1358 -0.0960 -0.0606
17184TIP3    H173043   5.674   3.467  16.458  0.5317 -1.0517  0.6132
17184TIP3    H273044   5.569   3.548  16.530  0.5618  1.4338 -1.9684
17185TIP3   OH273045   3.879   0.131   2.494  0.0346 -0.4865  0.5790
17185TIP3    H173046   3.963   0.176   2.501 -0.4583  0.3851  1.2271
17185TIP3    H273047   3.899   0.039   2.510  0.9801 -0.4221 -0.1375
17186TIP3   OH273048   3.116   2.716  16.460  0.5890 -0.5350  0.1502
17186TIP3    H173049   3.188   2.659  16.490  0.1473  0.3065  3.1454
17186TIP3    H273050   3.045   2.656  16.438  1.2103 -1.2575  0.0806
17187TIP3   OH273051   2.837   1.444  13.762  0.4980  0.4963 -0.1570
17187TIP3    H173052   2.894   1.457  13.687 -0.6414  1.5993 -0.8740
17187TIP3    H273053   2.781   1.523  13.764 -1.2554 -0.6944  0.2652
17188TIP3   OH273054   0.949   6.311   1.634  0.3219  0.6123 -0.2590
17188TIP3    H173055   1.031   6.354   1.659  0.6341 -0.2935  0.3305
17188TIP3    H273056   0.966   6.218   1.646 -1.8101  0.4899  3.1480
17189TIP3   OH273057   1.017   6.788  12.727  0.0680  0.2660  0.9537
17189TIP3    H173058   1.042   6.766  12.638 -1.4864 -1.2618  0.8300
17189TIP3    H273059   1.024   6.883  12.732 -1.3291  0.5404 -1.3032
17190TIP3   OH273060   5.277   0.505  13.854  0.0757  0.0402 -0.5013
17190TIP3    H173061   5.353   0.557  13.878  0.9193 -1.0776 -0.6340
17190TIP3    H273062   5.298   0.417  13.886 -1.6401 -0.0716  0.4316
17191TIP3   OH273063   2.067   0.112  10.528  0.7534  0.4060  0.1799
17191TIP3    H173064   2.095   0.200  10.503 -2.7570  0.9657 -2.4781
17191TIP3    H273065   2.109   0.055  10.463 -0.4430  0.7033 -0.8932
17192TIP3   OH273066   3.401   5.405   5.238  0.2542  0.3034 -0.2399
17192TIP3    H173067   3.335   5.431   5.302 -1.7582 -1.4609 -1.4552
17192TIP3    H273068   3.393   5.470   5.168 -0.2602  0.0503 -0.4187
17193TIP3   OH273069   0.760   5.228   0.347 -0.0335  0.1388  0.5515
17193TIP3    H173070   0.792   5.180   0.271 -0.8336 -0.0056  0.3009
17193TIP3    H273071   0.823   5.206   0.416  2.1579  2.2304 -0.6410
17194TIP3   OH273072   0.689   2.955   1.791  0.1385  0.2690 -0.4291
17194TIP3    H173073   0.613   2.899   1.772  0.6000  0.0145 -1.6291
17194TIP3    H273074   0.651   3.036   1.824 -0.5829 -0.4083  0.4821
17195TIP3   OH273075   6.557   6.805  16.957  0.0483 -0.1183 -0.0161
17195TIP3    H173076   6.620   6.850  16.901 -2.0566  2.1651 -0.7625
17195TIP3    H273077   6.498   6.761  16.897 -0.6302  0.0464  0.5158
17196TIP3   OH273078   0.323   6.819   2.961 -0.2784  0.0350  0.3957
17196TIP3    H173079   0.292   6.773   3.039  0.3273  2.0220  1.9031
17196TIP3    H273080   0.264   6.894   2.951  1.7679  1.8918  1.2422
17197TIP3   OH273081   1.624   4.090   3.211  0.2226  0.4568  0.5567
17197TIP3    H173082   1.587   4.172   3.179  0.7335  1.4812  2.4116
17197TIP3    H273083   1.715   4.092   3.183 -0.0394 -0.0521 -0.3783
17198TIP3   OH273084   4.008   0.092   0.789 -0.0901 -0.7930  0.0529
17198TIP3    H173085   4.085   0.075   0.843  0.9085 -2.8718 -1.8227
17198TIP3    H273086   3.949   0.141   0.845  2.0841 -0.1974  1.9796
17199TIP3   OH273087   2.126   0.547  12.048  0.7705 -0.2666 -0.2313
17199TIP3    H173088   2.166   0.534  11.962  0.3210  1.0311 -0.6520
17199TIP3    H273089   2.117   0.641  12.057 -1.3206 -0.4551  0.2378
17200TIP3   OH273090   5.096   4.578   2.236  0.3453  0.4066 -0.4200
17200TIP3    H173091   5.003   4.597   2.252  0.4819  0.0575  0.9873
17200TIP3    H273092   5.108   4.593   2.143 -1.1245  0.4822 -0.6265
17201TIP3   OH273093   4.969   1.477   5.112 -0.1885  0.4677  0.5751
17201TIP3    H173094   4.883   1.516   5.096  1.1043  3.0874 -0.5489
17201TIP3    H273095   5.004   1.459   5.025 -0.2078 -2.2339  1.0329
17202TIP3   OH273096   2.252   1.215   0.877 -0.5987 -0.2839  0.0119
17202TIP3    H173097   2.327   1.156   0.889 -0.4393 -0.1171 -0.1680
17202TIP3    H273098   2.211   1.185   0.795 -1.4268 -1.1364  0.7115
17203TIP3   OH273099   0.315   0.372   3.875  0.1257  0.1733 -0.6317
17203TIP3    H173100   0.234   0.396   3.921  0.7458  0.6162  0.2700
17203TIP3    H273101   0.337   0.286   3.910  0.6194  0.5278 -0.0297
17204TIP3   OH273102   6.209   2.241  16.438  0.1665 -0.1219 -0.2692
17204TIP3    H173103   6.219   2.298  16.361 -0.6354  1.7620  0.9425
17204TIP3    H273104   6.271   2.277  16.502 -0.9070 -0.1021  0.7981
17205TIP3   OH273105   1.954   3.101  11.375 -0.2306  0.6149 -0.3423
17205TIP3    H173106   1.916   3.087  11.462 -1.4975  2.3500 -0.5697
17205TIP3    H273107   2.035   3.050  11.376 -0.7386 -0.2456  1.4743
17206TIP3   OH273108   0.767   0.892   0.195  0.4534  0.3484  0.4603
17206TIP3    H173109   0.823   0.883   0.119  0.6875  2.9800  0.2209
17206TIP3    H273110   0.687   0.845   0.172  1.6626 -1.5674 -0.0748
17207TIP3   OH273111   0.965   3.442  14.432  0.4853 -0.0505 -0.4916
17207TIP3    H173112   0.923   3.360  14.459 -2.3567  1.4927  0.1111
17207TIP3    H273113   0.966   3.496  14.511  1.1885  0.9501 -1.1550
17208TIP3   OH273114   3.463   5.959   2.884  0.0096  0.0214  0.2433
17208TIP3    H173115   3.409   5.986   2.810 -0.2680 -2.6381 -0.6376
17208TIP3    H273116   3.452   5.864   2.889 -0.3968  0.1162  4.0865
17209TIP3   OH273117   1.387   3.519   2.327 -0.1406  0.4137  0.1170
17209TIP3    H173118   1.387   3.559   2.240 -0.7854 -1.0417 -0.5816
17209TIP3    H273119   1.466   3.554   2.369  0.3923  0.8401 -1.1771
17210TIP3   OH273120   1.440   2.110  12.272  0.9652  0.7465  0.6750
17210TIP3    H173121   1.491   2.028  12.273 -0.5023 -0.2476 -0.9989
17210TIP3    H273122   1.473   2.158  12.196 -2.3615 -1.2458 -2.3472
17211TIP3   OH273123   1.166   4.437   3.656 -0.0563 -0.2806  0.5704
17211TIP3    H173124   1.148   4.369   3.722 -0.1691 -0.1221  0.7041
17211TIP3    H273125   1.168   4.519   3.706 -1.9369  0.0788  0.1269
17212TIP3   OH273126   2.406   4.705   2.402  0.3571  0.2737  0.0790
17212TIP3    H173127   2.462   4.652   2.459 -1.5069 -1.2103  0.6354
17212TIP3    H273128   2.389   4.648   2.327  1.0842  1.4270 -0.9949
17213TIP3   OH273129   4.621   2.470  15.260  0.2915 -0.8540 -0.7068
17213TIP3    H173130   4.613   2.459  15.165 -0.4532  0.5579 -0.8235
17213TIP3    H273131   4.610   2.564  15.275  2.8500 -0.6724  0.5605
17214TIP3   OH273132   0.738   1.588   1.995  0.0364 -0.3322 -0.4274
17214TIP3    H173133   0.707   1.498   2.006 -2.2097  0.0243 -2.8781
17214TIP3    H273134   0.822   1.579   1.950  1.0053 -1.1911  1.4317
17215TIP3   OH273135   2.808   4.343   0.622  0.3580  0.0991  0.6712
17215TIP3    H173136   2.800   4.424   0.573  1.6779 -0.1928 -0.0795
17215TIP3    H273137   2.743   4.350   0.691 -1.2583  0.7274 -0.8311
17216TIP3   OH273138   0.286   5.970   1.467  0.0882  0.0547 -0.3253
17216TIP3    H173139   0.326   6.037   1.522  0.2117 -0.3680  0.1092
17216TIP3    H273140   0.351   5.953   1.399  1.0892 -1.2820  0.8880
17217TIP3   OH273141   0.853   1.972  12.741 -0.6974 -0.2272 -0.0146
17217TIP3    H173142   0.759   1.987  12.731 -0.6705 -0.6081 -0.9528
17217TIP3    H273143   0.893   2.031  12.677 -0.2190  0.8263  1.2145
17218TIP3   OH273144   5.839   4.607   4.066  0.2482  0.5180  0.2102
17218TIP3    H173145   5.794   4.531   4.102  1.7203 -0.5332 -0.0788
17218TIP3    H273146   5.906   4.628   4.131 -0.3242  1.7820  0.4237
17219TIP3   OH273147   3.356   4.288  12.031  0.1546  0.0044 -0.8854
17219TIP3    H173148   3.392   4.217  12.084 -0.0545 -0.0552 -0.8231
17219TIP3    H273149   3.404   4.366  12.060  0.5364 -0.1441 -1.1038
17220TIP3   OH273150   4.345   1.863   2.466 -0.2447 -0.3538  0.1659
17220TIP3    H173151   4.331   1.908   2.549  1.0315 -0.2505  0.3407
17220TIP3    H273152   4.316   1.773   2.482 -0.9364 -0.0942  0.4083
17221TIP3   OH273153   3.374   2.724   3.968 -0.7447  0.3362 -0.3030
17221TIP3    H173154   3.357   2.817   3.959 -0.9389  0.3333  0.0607
17221TIP3    H273155   3.369   2.690   3.878 -1.4975  0.5270 -0.3355
17222TIP3   OH273156   0.074   4.104  17.025  0.0360  0.3880  0.7276
17222TIP3    H173157   0.042   4.126  16.937 -0.9114 -0.5018  0.8309
17222TIP3    H273158   0.158   4.060  17.009  1.3392  2.8027  0.4607
17223TIP3   OH273159   3.147   0.469   4.716  0.4064  0.4302 -0.5678
17223TIP3    H173160   3.221   0.493   4.661  0.3431  0.9509 -0.4387
17223TIP3    H273161   3.133   0.376   4.699  1.9091 -0.0093  0.3843
17224TIP3   OH273162   3.985   0.618   5.075 -0.7623 -0.1900 -0.4756
17224TIP3    H173163   3.949   0.685   5.133 -2.3207 -1.1361 -0.2879
17224TIP3    H273164   4.056   0.662   5.029 -0.7737  1.1528  0.7094
17225TIP3   OH273165   0.050   1.841  15.133  0.4355 -0.8496 -0.1452
17225TIP3    H173166   0.034   1.932  15.108  1.5643 -0.5617  0.1571
17225TIP3    H273167  -0.024   1.819  15.191  0.0692 -0.1865 -0.3533
17226TIP3   OH273168   4.821   1.675   0.570 -0.0620 -0.5839  0.1689
17226TIP3    H173169   4.812   1.595   0.518 -0.6569 -0.7478  0.5202
17226TIP3    H273170   4.915   1.694   0.568 -0.2592  0.8632 -3.1630
17227TIP3   OH273171   2.819   6.719   3.656  0.1147 -0.3840  0.3116
17227TIP3    H173172   2.747   6.755   3.603  0.1435 -2.0555 -0.9508
17227TIP3    H273173   2.869   6.795   3.683 -1.6675  0.7732  0.5565
17228TIP3   OH273174   1.016   1.081   0.172 -0.0325 -0.1852  0.5094
17228TIP3    H173175   1.002   1.009   0.233  0.8733 -1.5098 -0.7786
17228TIP3    H273176   1.099   1.060   0.129  0.8552  2.2214  0.8669
17229TIP3   OH273177   4.803   2.854  14.293 -0.8416 -0.4445 -0.0641
17229TIP3    H173178   4.847   2.873  14.376 -1.0391 -0.6487  0.0882
17229TIP3    H273179   4.856   2.785  14.253  1.0318  1.7000 -1.5397
17230TIP3   OH273180   6.171   1.241  12.294  0.1977 -0.6110 -0.0947
17230TIP3    H173181   6.119   1.193  12.358  0.4694 -0.8649 -0.0644
17230TIP3    H273182   6.219   1.306  12.346 -1.8251  1.2108 -0.3553
17231TIP3   OH273183   4.805   3.564   4.889  0.4317 -0.3974 -0.2492
17231TIP3    H173184   4.789   3.503   4.962 -0.2170  0.7591  0.6286
17231TIP3    H273185   4.723   3.614   4.883  0.7318 -0.0301 -1.3436
17232TIP3   OH273186   5.255   0.242  10.973  0.0453  0.3762  0.4238
17232TIP3    H173187   5.215   0.307  10.916  0.2657 -1.4262 -1.9590
17232TIP3    H273188   5.348   0.242  10.948 -0.0278 -1.1007  0.0624
17233TIP3   OH273189   1.553   6.417  11.716  0.8969 -0.0336  0.4603
17233TIP3    H173190   1.527   6.495  11.765  1.6707  0.0101  0.8269
17233TIP3    H273191   1.647   6.427  11.704  1.1107 -1.1654  1.0001
17234TIP3   OH273192   0.397   3.799   3.536 -0.0548 -0.3943  0.7178
17234TIP3    H173193   0.372   3.710   3.512  3.2567 -1.6281  1.2735
17234TIP3    H273194   0.484   3.811   3.497 -1.0359  3.3539 -0.8936
17235TIP3   OH273195   3.058   4.668  14.415 -0.4936 -0.5011  0.3112
17235TIP3    H173196   3.021   4.756  14.425 -1.7633 -1.0395  0.5854
17235TIP3    H273197   3.149   4.683  14.392 -0.8779  0.8934 -0.4295
17236TIP3   OH273198   5.987   3.445   4.637 -0.5807  0.0092  0.1809
17236TIP3    H173199   6.016   3.508   4.703 -0.2428  0.8329 -0.7281
17236TIP3    H273200   6.062   3.434   4.579 -1.1539 -0.0189 -0.5801
17237TIP3   OH273201   2.684   0.717   5.227 -0.3023  0.0339  0.4680
17237TIP3    H173202   2.692   0.660   5.303 -0.0601  0.5565  0.8443
17237TIP3    H273203   2.774   0.729   5.196 -0.2874  0.6610  0.7358
17238TIP3   OH273204   1.675   2.212  16.264  0.0375 -0.0059 -0.2691
17238TIP3    H173205   1.690   2.285  16.204  0.2948  0.2134  0.0506
17238TIP3    H273206   1.763   2.177  16.280 -0.1459 -0.7305 -0.8460
17239TIP3   OH273207   2.688   6.193  16.305 -0.6456 -0.2153  0.5045
17239TIP3    H173208   2.728   6.240  16.232 -1.2296 -1.2342 -0.5135
17239TIP3    H273209   2.762   6.167  16.361 -0.2177  0.8188  0.4375
17240TIP3   OH273210   6.078   4.914   4.982 -0.1249 -0.2343 -0.2025
17240TIP3    H173211   6.036   4.888   4.900  0.1578  0.1695 -0.4741
17240TIP3    H273212   6.107   4.831   5.021 -0.8271 -0.4866 -0.1931
17241TIP3   OH273213   2.496   6.215  11.935 -0.0608 -0.0734 -0.3062
17241TIP3    H173214   2.446   6.138  11.911  0.9461 -1.1147  0.7573
17241TIP3    H273215   2.431   6.277  11.967 -0.8364 -0.7155 -0.6033
17242TIP3   OH273216   2.486   1.945   4.101  0.0973  0.1711  0.4507
17242TIP3    H173217   2.434   2.024   4.086  0.0417 -0.1350 -1.0587
17242TIP3    H273218   2.469   1.923   4.193 -0.1501  1.7141  0.8088
17243TIP3   OH273219   0.144   0.788   0.253 -0.4212  0.3401  0.0196
17243TIP3    H173220   0.111   0.699   0.237 -0.7810  0.4049  0.3723
17243TIP3    H273221   0.236   0.775   0.278 -0.2722  0.1290 -0.6242
17244TIP3   OH273222   5.864   2.848  14.349  0.4116  0.0763  0.4525
17244TIP3    H173223   5.841   2.762  14.312  0.5626 -0.2039  1.0035
17244TIP3    H273224   5.869   2.906  14.273  0.3765 -0.4205  0.0670
17245TIP3   OH273225   4.667   6.725   5.814  0.7089  0.1449  0.2446
17245TIP3    H173226   4.617   6.766   5.885  1.1967  0.2634  0.5235
17245TIP3    H273227   4.758   6.728   5.844  0.7306 -1.3793  0.3927
17246TIP3   OH273228   0.215   1.178  11.166  0.2635 -0.6441 -0.6192
17246TIP3    H173229   0.305   1.211  11.168 -0.6259  2.1696 -2.1292
17246TIP3    H273230   0.213   1.118  11.091  0.9797 -1.1773 -0.2275
17247TIP3   OH273231   1.112   2.275  12.066  0.1954  0.3019  0.5367
17247TIP3    H173232   1.103   2.252  11.973  0.6501  0.0429  0.5524
17247TIP3    H273233   1.181   2.340  12.067  1.0469 -0.5808  0.8133
17248TIP3   OH273234   5.913   2.358  11.973 -0.1302  0.3432  0.4744
17248TIP3    H173235   5.981   2.357  11.905 -1.3449  0.4032 -0.7945
17248TIP3    H273236   5.916   2.447  12.008 -0.1724  0.6303 -0.2324
17249TIP3   OH273237   5.787   0.890  11.950  0.4935  0.1545  0.2409
17249TIP3    H173238   5.875   0.884  11.985 -0.4812 -2.0703  2.6496
17249TIP3    H273239   5.730   0.878  12.026 -1.8838  0.7833 -1.3335
17250TIP3   OH273240   0.705   3.171  16.726  0.0897 -0.3716  0.4993
17250TIP3    H173241   0.764   3.208  16.792  0.5715 -1.3720  0.6499
17250TIP3    H273242   0.691   3.080  16.754 -2.2441  0.0598  0.9605
17251TIP3   OH273243   2.165   2.359   0.378  0.8974 -0.3547  0.0298
17251TIP3    H173244   2.071   2.343   0.379  0.4161  1.9936 -0.6518
17251TIP3    H273245   2.180   2.413   0.300  1.8835  3.5077  2.5579
17252TIP3   OH273246   2.666   0.341  15.956  0.6445 -0.0161  1.1140
17252TIP3    H173247   2.702   0.377  16.038  2.5213  1.6214 -0.3300
17252TIP3    H273248   2.580   0.382  15.948 -0.5693 -1.8594  3.2497
17253TIP3   OH273249   1.680   5.143   5.165 -0.5512 -0.0677 -0.7284
17253TIP3    H173250   1.674   5.077   5.234 -1.4114  0.6703 -0.0555
17253TIP3    H273251   1.756   5.196   5.189  0.6939 -1.3152 -1.7651
17254TIP3   OH273252   6.464   1.415   4.187 -0.3881 -0.0892 -0.0837
17254TIP3    H173253   6.405   1.387   4.257  1.5060  0.8970  2.0854
17254TIP3    H273254   6.539   1.355   4.193  1.2484  1.9052  1.0027
17255TIP3   OH273255   1.852   1.515   3.447 -0.8413  0.2409  0.3369
17255TIP3    H173256   1.923   1.451   3.442 -1.4525 -0.3710 -1.0650
17255TIP3    H273257   1.832   1.537   3.356 -0.8520  2.2320  0.7615
17256TIP3   OH273258   4.091   0.598  14.675  0.1458  0.0254 -0.4109
17256TIP3    H173259   4.094   0.507  14.643  0.1872  0.1910 -0.8870
17256TIP3    H273260   4.013   0.635  14.634  0.7755  0.5491 -1.1624
17257TIP3   OH273261   0.731   5.413   0.915 -0.7825  0.0179 -0.3398
17257TIP3    H173262   0.757   5.321   0.919  0.0491  0.2803  0.7502
17257TIP3    H273263   0.751   5.440   0.825  0.5590 -0.4165 -0.1844
17258TIP3   OH273264   0.638   6.076   0.500  0.0871  0.4779 -0.5804
17258TIP3    H173265   0.644   6.001   0.440  1.8366  2.3633 -2.9831
17258TIP3    H273266   0.724   6.081   0.542 -0.0956  0.9650 -0.2508
17259TIP3   OH273267   2.129   1.225  16.237  0.8940 -0.0575  0.6733
17259TIP3    H173268   2.213   1.179  16.237  1.0241  0.1718  0.0455
17259TIP3    H273269   2.067   1.160  16.270  1.3572 -0.1413  1.4131
17260TIP3   OH273270   1.687   4.753  13.956 -0.2166  0.6255 -0.1306
17260TIP3    H173271   1.763   4.787  13.907  0.7024  1.9001  2.0158
17260TIP3    H273272   1.705   4.660  13.967 -0.3295  0.3465 -1.8996
17261TIP3   OH273273   5.482   5.564   3.763  0.1652  0.0024  0.2127
17261TIP3    H173274   5.395   5.528   3.779 -0.5283  1.3858 -0.2321
17261TIP3    H273275   5.535   5.489   3.736 -0.1905 -1.3350  2.9161
17262TIP3   OH273276   2.425   4.833  12.528  0.2784 -0.1453 -0.1490
17262TIP3    H173277   2.350   4.876  12.487  0.2144 -0.9844 -0.9309
17262TIP3    H273278   2.497   4.845  12.467  0.1474 -1.5181 -0.6074
17263TIP3   OH273279   3.385   6.518   3.391  0.5010 -0.2194 -0.5664
17263TIP3    H173280   3.320   6.486   3.454  0.8642 -0.8680 -0.5132
17263TIP3    H273281   3.343   6.510   3.306 -0.4515  1.7809 -0.3472
17264TIP3   OH273282   6.511   0.449  11.782  0.3796 -0.0027 -0.1173
17264TIP3    H173283   6.556   0.379  11.735 -1.2424 -0.3562 -1.2411
17264TIP3    H273284   6.526   0.431  11.874  0.9319 -1.1758 -0.4260
17265TIP3   OH273285   2.931   4.482  11.121 -0.2094 -0.0453 -0.3859
17265TIP3    H173286   2.844   4.479  11.161 -0.5929  2.1104 -0.9344
17265TIP3    H273287   2.992   4.485  11.195 -0.6536 -0.4072  0.0023
17266TIP3   OH273288   0.015   5.808   2.365 -0.2428  0.6330  0.2405
17266TIP3    H173289  -0.055   5.818   2.430  1.2291 -1.4858  2.3324
17266TIP3    H273290   0.088   5.859   2.400  0.6944 -0.8277  0.5043
17267TIP3   OH273291   0.920   0.488  14.042 -0.2001  0.3997  0.2525
17267TIP3    H173292   0.849   0.516  14.100 -0.2788 -1.7485  1.2964
17267TIP3    H273293   0.886   0.409  14.000  1.1359  0.0097 -0.1286
17268TIP3   OH273294   2.974   4.412  14.402 -0.0943  0.2612  0.2888
17268TIP3    H173295   2.986   4.505  14.420 -0.3010  0.2723  0.3697
17268TIP3    H273296   3.062   4.375  14.409  0.1007  0.5652 -0.4089
17269TIP3   OH273297   0.633   3.169   1.329 -0.2512 -0.5100  0.5768
17269TIP3    H173298   0.684   3.207   1.399  1.0438  0.4368 -0.8165
17269TIP3    H273299   0.677   3.086   1.308  0.6571  0.2076 -0.4841
17270TIP3   OH273300   4.945   4.311  14.223  0.2310  0.1335 -0.4249
17270TIP3    H173301   4.946   4.291  14.316 -0.9534  0.1390 -0.3940
17270TIP3    H273302   5.018   4.261  14.187  1.2606  0.8331  0.6265
17271TIP3   OH273303   1.397   5.795  11.165  0.1309 -0.1306 -0.7220
17271TIP3    H173304   1.368   5.884  11.148 -1.1142 -0.2206  0.7508
17271TIP3    H273305   1.492   5.802  11.173 -0.0920  1.4325  1.2422
17272TIP3   OH273306   1.744   1.684   2.267 -0.2387  0.5452 -0.0978
17272TIP3    H173307   1.653   1.713   2.272 -0.1222  0.9279 -0.1880
17272TIP3    H273308   1.791   1.757   2.227  0.6080  1.5214  2.4661
17273TIP3   OH273309   1.394   5.558  15.988 -0.2456 -0.3738  0.2809
17273TIP3    H173310   1.361   5.625  16.048  1.2065 -0.4059  1.1325
17273TIP3    H273311   1.353   5.477  16.019 -0.7381 -0.1492  0.2379
17274TIP3   OH273312   4.061   0.701   3.130  0.1930 -0.8764  0.1957
17274TIP3    H173313   4.142   0.741   3.098  0.0774 -0.6380  0.2057
17274TIP3    H273314   4.014   0.674   3.051  0.6592 -1.7650  0.2045
17275TIP3   OH273315   4.625   5.964  14.076  0.1764  0.2187  0.2160
17275TIP3    H173316   4.644   6.053  14.047  0.8872  0.0808  0.2398
17275TIP3    H273317   4.651   5.962  14.168 -1.4624  0.4704  0.7199
17276TIP3   OH273318   3.696   0.188  12.817  0.2181  0.5753 -0.0557
17276TIP3    H173319   3.613   0.224  12.847  0.0193 -0.2174  0.3658
17276TIP3    H273320   3.726   0.250  12.750 -0.6674  0.9108 -0.1583
17277TIP3   OH273321   5.431   5.468  16.019  0.4718  0.1391 -0.3481
17277TIP3    H173322   5.355   5.457  16.075 -0.5890  1.9180 -1.3278
17277TIP3    H273323   5.492   5.520  16.070 -0.5648  1.9102 -0.8183
17278TIP3   OH273324   5.128   6.734  14.715  0.0196 -0.6400 -0.2629
17278TIP3    H173325   5.118   6.797  14.787  2.2802  0.6702 -0.9954
17278TIP3    H273326   5.223   6.721  14.708 -0.0798 -0.4218 -3.2334
17279TIP3   OH273327   2.019   4.598   2.378 -0.2758  0.2240  0.1722
17279TIP3    H173328   2.012   4.517   2.327  1.2926  0.2515 -0.1506
17279TIP3    H273329   2.026   4.667   2.313  1.0255  0.3318  0.3932
17280TIP3   OH273330   4.501   0.334   6.001 -0.2459 -0.5106 -0.6609
17280TIP3    H173331   4.509   0.396   5.928 -0.4304 -1.2477 -1.3277
17280TIP3    H273332   4.455   0.382   6.069 -2.5654 -0.6423 -2.0539
17281TIP3   OH273333   3.036   0.396   5.148 -0.1705 -0.9917  0.2190
17281TIP3    H173334   2.984   0.354   5.216 -0.3617 -0.9457  0.1017
17281TIP3    H273335   3.122   0.407   5.188 -0.0423 -1.7286  0.1632
17282TIP3   OH273336   6.117   0.477  16.720  0.2153  0.2526  0.2839
17282TIP3    H173337   6.078   0.528  16.649 -1.4932 -2.1450 -0.6464
17282TIP3    H273338   6.207   0.462  16.693 -0.6222 -1.3133 -1.8976
17283TIP3   OH273339   5.901   4.570   3.668 -0.2499  0.0325 -0.0415
17283TIP3    H173340   5.933   4.659   3.650  3.4853 -1.4427 -1.8053
17283TIP3    H273341   5.963   4.535   3.732 -0.3335 -1.9529 -0.9693
17284TIP3   OH273342   2.578   3.423   0.876  0.1108  0.0083  0.2743
17284TIP3    H173343   2.504   3.407   0.817 -0.7324 -2.1025  1.7823
17284TIP3    H273344   2.656   3.407   0.822 -0.5009  1.5729 -1.1493
17285TIP3   OH273345   3.351   0.997  15.641  0.1262  0.2397 -0.1237
17285TIP3    H173346   3.300   0.922  15.670 -1.3169  1.2129 -0.0091
17285TIP3    H273347   3.398   1.026  15.719 -0.2453  0.1691  0.1271
17286TIP3   OH273348   5.105   0.798   2.603 -0.2980 -0.5347  0.4454
17286TIP3    H173349   5.144   0.713   2.624  0.6648 -0.1517  0.2524
17286TIP3    H273350   5.108   0.802   2.507 -1.0253 -0.5910  0.4169
17287TIP3   OH273351   6.297   1.127   1.431 -0.3299 -0.4045  0.2620
17287TIP3    H173352   6.236   1.118   1.358  0.9169 -1.8445 -0.6329
17287TIP3    H273353   6.240   1.151   1.505 -1.8051 -0.3968 -0.8161
17288TIP3   OH273354   4.012   1.642  16.080 -0.5418 -0.3485  0.2147
17288TIP3    H173355   4.041   1.553  16.102 -0.0958 -0.7025 -1.6358
17288TIP3    H273356   3.917   1.637  16.082 -0.5382 -1.1360 -0.7570
17289TIP3   OH273357   0.793   5.679  13.896 -0.7510  0.5514  0.6973
17289TIP3    H173358   0.870   5.715  13.941  0.5488 -0.4160 -0.6506
17289TIP3    H273359   0.825   5.656  13.809 -2.4157 -0.5467  0.3299
17290TIP3   OH273360   6.702   3.888  13.566  0.0632  0.0114 -0.7000
17290TIP3    H173361   6.706   3.793  13.583 -0.8833 -0.2432 -1.8011
17290TIP3    H273362   6.641   3.897  13.493 -0.1755  1.5230 -0.3440
17291TIP3   OH273363   1.729   1.785   4.109 -0.1891  0.1499  0.1399
17291TIP3    H173364   1.776   1.751   4.185  0.0345  2.0403  0.8939
17291TIP3    H273365   1.645   1.814   4.144  0.3223  2.0060 -0.0985
17292TIP3   OH273366   2.699   0.419   4.242 -0.0471  0.0920  0.3797
17292TIP3    H173367   2.772   0.386   4.294 -0.8469 -1.2979  0.6610
17292TIP3    H273368   2.712   0.514   4.240  2.1858 -0.1705 -0.2433
17293TIP3   OH273369   3.705   6.373   0.257 -0.1061 -0.4191  0.4345
17293TIP3    H173370   3.666   6.306   0.313 -3.6292 -0.1614 -1.4629
17293TIP3    H273371   3.682   6.456   0.299  0.0872 -0.2837  0.2744
17294TIP3   OH273372   6.721   1.200   3.913 -0.3563  0.0458  0.6616
17294TIP3    H173373   6.737   1.106   3.912  1.5543  0.3511 -0.2540
17294TIP3    H273374   6.697   1.219   4.004 -0.0886 -1.2050  1.0059
17295TIP3   OH273375   4.060   2.083  15.518 -0.2229 -0.2438 -0.2148
17295TIP3    H173376   4.009   2.159  15.492  2.1646  2.0492  1.2621
17295TIP3    H273377   4.128   2.076  15.450  0.1921 -0.3767  0.2095
17296TIP3   OH273378   1.873   5.842   5.206  0.5471 -0.3333 -0.1211
17296TIP3    H173379   1.794   5.797   5.177 -0.5847  0.7357  1.2003
17296TIP3    H273380   1.920   5.778   5.259 -0.5477 -0.3065  0.9139
17297TIP3   OH273381   6.530   2.842  12.475 -0.0835 -0.0592  0.2732
17297TIP3    H173382   6.457   2.795  12.515  0.4255 -0.6333  0.5462
17297TIP3    H273383   6.561   2.783  12.406 -1.1112  1.0121 -1.2033
17298TIP3   OH273384   3.734   1.443  12.178 -0.8899 -0.0886  0.2009
17298TIP3    H173385   3.792   1.473  12.248 -0.1218 -2.1482  0.5356
17298TIP3    H273386   3.790   1.442  12.100 -0.8338 -0.7983  0.2419
17299TIP3   OH273387   1.279   2.660  13.820  0.1578  0.0642 -0.0188
17299TIP3    H173388   1.227   2.648  13.741 -0.7898  0.4687  0.5169
17299TIP3    H273389   1.313   2.573  13.841 -0.1863 -0.1779 -0.4701
17300TIP3   OH273390   3.217   6.424   5.718 -0.7250 -0.5631  0.0510
17300TIP3    H173391   3.161   6.444   5.793 -1.0161  1.0911 -0.5559
17300TIP3    H273392   3.157   6.392   5.651 -0.9374  0.8276 -0.4624
17301TIP3   OH273393   1.024   2.282  11.199 -0.5172  0.1681  0.1497
17301TIP3    H173394   1.010   2.204  11.146  1.2426 -0.9358  1.1876
17301TIP3    H273395   0.954   2.280  11.264 -1.9889  0.8953 -1.3397
17302TIP3   OH273396   1.186   6.303  12.577 -0.6728 -0.4427  0.3094
17302TIP3    H173397   1.101   6.347  12.577 -0.6124 -0.2740  1.7097
17302TIP3    H273398   1.231   6.337  12.654  1.3760  0.7573 -1.2990
17303TIP3   OH273399   4.997   0.465   4.586 -0.3182  0.2280 -0.2441
17303TIP3    H173400   5.075   0.498   4.541  0.8226  0.1541  1.5623
17303TIP3    H273401   4.940   0.542   4.594 -0.1923  0.4183 -1.0741
17304TIP3   OH273402   6.356   1.124   0.408 -0.4638 -0.7619 -0.1362
17304TIP3    H173403   6.394   1.068   0.340 -2.4561 -2.7904  0.3061
17304TIP3    H273404   6.319   1.198   0.359 -0.1541 -1.1876 -1.0452
17305TIP3   OH273405   6.325   1.755  14.780 -0.3056 -0.2215 -0.0404
17305TIP3    H173406   6.321   1.708  14.864 -0.8405 -1.3964 -0.7040
17305TIP3    H273407   6.235   1.781  14.763 -0.5524 -1.7434 -1.2038
17306TIP3   OH273408   3.675   6.385  14.355  0.0100  0.0078 -0.1116
17306TIP3    H173409   3.723   6.378  14.272 -2.0241  0.3513 -1.3861
17306TIP3    H273410   3.583   6.387  14.330 -0.7104 -0.4682  2.2267
17307TIP3   OH273411   4.490   3.958  11.202 -0.0211 -0.6761  0.0221
17307TIP3    H173412   4.405   3.989  11.233  0.2653 -0.2916  0.4291
17307TIP3    H273413   4.554   4.008  11.252  0.4478 -1.2290 -0.0138
17308TIP3   OH273414   2.104   0.111  11.655 -0.2212 -0.5081 -0.6303
17308TIP3    H173415   2.014   0.091  11.680 -0.6368  2.1907  0.4813
17308TIP3    H273416   2.099   0.200  11.619  1.7476 -1.0177 -2.3573
17309TIP3   OH273417   0.783   1.704  15.957 -0.3452  0.1947  0.5411
17309TIP3    H173418   0.728   1.782  15.964 -0.5820  0.0135  0.7518
17309TIP3    H273419   0.869   1.737  15.933 -0.7537  0.4092 -0.6925
17310TIP3   OH273420   4.970   1.170  12.165  0.3497  0.1367  0.4789
17310TIP3    H173421   4.964   1.211  12.251  1.1873  0.2626  0.4783
17310TIP3    H273422   4.878   1.156  12.139  0.0557  1.3842  0.7692
17311TIP3   OH273423   3.675   2.998   1.527 -0.4033  0.1238 -0.9995
17311TIP3    H173424   3.583   3.019   1.510 -1.1048 -1.0183  1.0400
17311TIP3    H273425   3.679   2.902   1.524  0.6094  0.1335 -0.6082
17312TIP3   OH273426   1.054   5.331  12.975  0.2599 -0.1323  0.3680
17312TIP3    H173427   1.057   5.236  12.964 -1.3716 -0.2126  0.4810
17312TIP3    H273428   1.054   5.366  12.886  3.0070 -0.0840  0.2772
17313TIP3   OH273429   0.620   5.255  11.490 -0.0875  0.5917  0.3501
17313TIP3    H173430   0.658   5.263  11.402 -0.9011  1.4002  0.0495
17313TIP3    H273431   0.608   5.161  11.502  3.4382  0.0976  1.1342
17314TIP3   OH273432   5.755   0.455   2.668 -0.2117 -0.2917 -0.5740
17314TIP3    H173433   5.719   0.430   2.753 -1.2543  0.7898 -0.6725
17314TIP3    H273434   5.825   0.392   2.652 -0.2823 -0.7720  0.8842
17315TIP3   OH273435   5.261   6.682  15.661  0.0436  0.0053 -0.5658
17315TIP3    H173436   5.242   6.752  15.599  1.0781  0.1763 -0.7130
17315TIP3    H273437   5.316   6.723  15.727 -1.3572 -0.0787  0.6964
17316TIP3   OH273438   4.611   5.248  12.833  0.1726  0.6807 -0.3548
17316TIP3    H173439   4.642   5.233  12.744  0.7573  0.8626 -0.1844
17316TIP3    H273440   4.531   5.195  12.840  0.4497  0.1918 -0.7943
17317TIP3   OH273441   0.059   2.463   4.731  0.0729 -0.5190 -0.2400
17317TIP3    H173442   0.120   2.488   4.800  1.1456  0.3052 -1.4470
17317TIP3    H273443   0.114   2.425   4.662 -1.1074 -2.6451 -0.1161
17318TIP3   OH273444   5.594   4.462   5.741 -0.4645 -0.5047 -0.2248
17318TIP3    H173445   5.552   4.471   5.656 -0.2806  1.4952 -0.1528
17318TIP3    H273446   5.581   4.546   5.783  2.7406 -0.0781  0.1841
17319TIP3   OH273447   3.725   0.473   0.035 -0.1088 -0.0466  0.1873
17319TIP3    H173448   3.695   0.464   0.126  0.4059  1.0048  0.4747
17319TIP3    H273449   3.748   0.565   0.026  0.5556 -0.2877 -0.8010
17320TIP3   OH273450   1.549   4.720   4.432 -0.2549  0.7492 -0.2075
17320TIP3    H173451   1.503   4.697   4.352  0.8338 -1.4661 -0.2581
17320TIP3    H273452   1.617   4.781   4.404 -0.0387  0.1827 -0.9203
17321TIP3   OH273453   3.457   4.836  13.580  0.3166  0.0786  0.1848
17321TIP3    H173454   3.387   4.861  13.641 -0.2276 -1.0729  0.0447
17321TIP3    H273455   3.425   4.863  13.494  0.8182  1.1385  0.3117
17322TIP3   OH273456   0.003   1.906   1.237  0.2900 -0.1457 -0.2702
17322TIP3    H173457  -0.035   1.834   1.288 -2.0883  0.9655 -0.3010
17322TIP3    H273458   0.097   1.895   1.245  0.0137 -3.0284  0.0301
17323TIP3   OH273459   3.371   2.278   5.206 -0.2215 -0.0252 -0.1005
17323TIP3    H173460   3.439   2.241   5.262  0.7316  2.6948  0.7014
17323TIP3    H273461   3.300   2.301   5.266  0.2095  1.5918 -0.1613
17324TIP3   OH273462   6.352   6.628   0.457 -0.1832 -0.2136 -0.6580
17324TIP3    H173463   6.293   6.557   0.480  0.1821 -0.7490 -1.3302
17324TIP3    H273464   6.294   6.696   0.421 -0.5478 -0.1068  0.1237
17325TIP3   OH273465   0.181   3.556  16.387 -0.3921 -0.2344  0.2817
17325TIP3    H173466   0.276   3.555  16.399 -0.3183 -1.7650 -0.2332
17325TIP3    H273467   0.153   3.469  16.416 -1.8191  0.6569  1.7266
17326TIP3   OH273468   6.750   1.793  12.924  0.8985  0.0396  0.0355
17326TIP3    H173469   6.788   1.871  12.964 -0.2035  0.7547 -0.2817
17326TIP3    H273470   6.721   1.822  12.838  1.4355 -0.9901 -0.5097
17327TIP3   OH273471   3.535   1.352  12.593  0.7247  0.0971 -0.3466
17327TIP3    H173472   3.481   1.428  12.569  1.8312  0.6254 -1.2543
17327TIP3    H273473   3.598   1.388  12.655  0.0851 -0.5111  0.6830
17328TIP3   OH273474   5.722   5.640  15.702  0.5572 -0.3827 -0.3604
17328TIP3    H173475   5.772   5.716  15.730  1.0046 -0.6641 -0.3931
17328TIP3    H273476   5.729   5.639  15.606 -0.5624  0.2963 -0.4637
17329TIP3   OH273477   6.481   6.654  12.709  0.9284  0.5325 -0.0305
17329TIP3    H173478   6.541   6.581  12.722  1.2914  0.4372 -1.9983
17329TIP3    H273479   6.532   6.732  12.729  0.6640  0.3075  1.6566
17330TIP3   OH273480   1.980   3.071   4.681  0.5772  0.2216 -0.5225
17330TIP3    H173481   1.901   3.039   4.637  1.4371  0.6011 -2.4721
17330TIP3    H273482   2.022   2.992   4.716 -0.6770  0.0294  0.6184
17331TIP3   OH273483   0.035   2.516  15.673 -0.1167 -0.0005  0.2161
17331TIP3    H173484   0.035   2.610  15.688  2.4085 -0.1802  1.8435
17331TIP3    H273485  -0.027   2.481  15.738  0.5506  0.3859  1.0806
17332TIP3   OH273486   1.011   5.901   1.166 -0.1118 -0.4255  0.0773
17332TIP3    H173487   1.065   5.897   1.087 -0.1885 -0.9189  0.0503
17332TIP3    H273488   1.073   5.920   1.236  0.1918 -1.5774  0.1387
17333TIP3   OH273489   2.252   2.692  11.938  0.6826  0.2068 -0.3451
17333TIP3    H173490   2.173   2.720  11.984  0.9271 -1.6354  1.3435
17333TIP3    H273491   2.324   2.719  11.995  1.2540  1.2129 -1.5088
17334TIP3   OH273492   0.176   4.821   3.781  0.0107  0.1314  0.1550
17334TIP3    H173493   0.236   4.806   3.854 -2.3891 -1.8431  1.9164
17334TIP3    H273494   0.089   4.820   3.821 -1.4394 -1.0968 -2.7246
17335TIP3   OH273495   4.756   2.589  14.621  0.1825 -0.2012 -0.0062
17335TIP3    H173496   4.686   2.647  14.591  0.6646  0.4082  0.0262
17335TIP3    H273497   4.734   2.571  14.713 -0.3786 -0.6964 -0.2334
17336TIP3   OH273498   3.817   5.780  11.745  1.0187 -0.1750 -0.2659
17336TIP3    H173499   3.899   5.811  11.707  1.9355 -1.4885  0.5424
17336TIP3    H273500   3.833   5.779  11.839 -0.7323  1.6931  0.1275
17337TIP3   OH273501   1.673   4.900  15.282 -0.5482 -0.0417  0.0324
17337TIP3    H173502   1.682   4.971  15.346 -1.0620 -0.4346  0.5568
17337TIP3    H273503   1.730   4.925  15.210 -1.0896  1.1389 -0.0046
17338TIP3   OH273504   4.169   0.554  16.133  0.0633 -0.2469 -0.3756
17338TIP3    H173505   4.114   0.623  16.171  0.0484  0.4004 -1.5362
17338TIP3    H273506   4.258   0.576  16.160  0.2051  0.9059 -1.6754
17339TIP3   OH273507   6.195   4.344  15.740 -0.7947  0.4776  0.0955
17339TIP3    H173508   6.267   4.343  15.676 -0.2703  0.6951  0.6727
17339TIP3    H273509   6.236   4.370  15.822 -1.3804 -0.2598  0.6371
17340TIP3   OH273510   2.909   0.066  16.525  0.5531  0.1919  0.5318
17340TIP3    H173511   2.827   0.112  16.538  0.7003  0.9010 -0.8415
17340TIP3    H273512   2.889  -0.025  16.547 -0.6562  0.3209  0.0593
17341TIP3   OH273513   6.106   1.936  11.350  0.7450 -1.2255 -0.2634
17341TIP3    H173514   6.128   1.896  11.266  0.8006  1.6730 -1.7612
17341TIP3    H273515   6.190   1.961  11.388  0.6462  0.1106 -0.8339
17342TIP3   OH273516   0.809   5.687   0.540  0.0250  0.4721 -0.1210
17342TIP3    H173517   0.826   5.724   0.627  1.1937 -1.3517  0.4940
17342TIP3    H273518   0.850   5.748   0.479  0.9211  0.7860  0.7692
17343TIP3   OH273519   0.473   5.220  15.218  0.3864  1.1283  0.2902
17343TIP3    H173520   0.438   5.164  15.288  0.4495  0.3192 -0.3122
17343TIP3    H273521   0.554   5.176  15.191 -0.8736  0.0164 -1.9946
17344TIP3   OH273522   6.387   3.494   1.233 -0.0716  0.1523  0.1295
17344TIP3    H173523   6.480   3.504   1.254 -0.0796 -1.0425  0.8280
17344TIP3    H273524   6.375   3.400   1.226 -1.3362  0.2724  0.5327
17345TIP3   OH273525   1.215   0.798  16.269  0.0667 -0.6050 -0.0437
17345TIP3    H173526   1.294   0.829  16.314 -1.8626  2.8546  1.2892
17345TIP3    H273527   1.170   0.745  16.334 -0.0366 -0.2848  0.1452
17346TIP3   OH273528   1.941   6.504   3.682 -0.0965  0.4832  0.2978
17346TIP3    H173529   1.970   6.589   3.650  1.8224 -0.4925 -0.7320
17346TIP3    H273530   1.874   6.476   3.619 -0.1070  0.8387  0.1505
17347TIP3   OH273531   2.883   3.894   2.772  0.8610 -0.6301 -0.3817
17347TIP3    H173532   2.848   3.968   2.823 -0.9421 -2.6521  1.5255
17347TIP3    H273533   2.974   3.919   2.753 -0.0319  2.6121 -1.0059
17348TIP3   OH273534   1.363   3.387  11.214 -0.4107  0.1953 -0.2170
17348TIP3    H173535   1.447   3.353  11.183  0.8299  1.8976  1.0724
17348TIP3    H273536   1.347   3.463  11.159 -1.0071 -0.0031 -0.3177
17349TIP3   OH273537   4.313   4.535  16.606 -0.4595  0.1967  0.2909
17349TIP3    H173538   4.269   4.525  16.690  0.0290  0.5754  0.5927
17349TIP3    H273539   4.340   4.626  16.603 -1.2018  0.4099 -0.6418
17350TIP3   OH273540   4.014   3.185  14.913 -0.0917  0.0809 -0.2245
17350TIP3    H173541   3.966   3.267  14.901  1.5023  0.9412 -0.9018
17350TIP3    H273542   3.966   3.121  14.860 -1.9248  0.2840  1.0703
17351TIP3   OH273543   2.499   0.104   4.877  0.4450  0.2151 -0.4327
17351TIP3    H173544   2.587   0.123   4.846  1.2285  2.1204  2.4952
17351TIP3    H273545   2.443   0.118   4.802  2.4710  0.4846 -1.9782
17352TIP3   OH273546   0.143   5.036   5.648 -0.0618 -0.2359  0.2784
17352TIP3    H173547   0.074   5.099   5.671 -1.4636 -1.8946  0.9331
17352TIP3    H273548   0.179   5.068   5.566 -0.1967  1.7977  0.9535
17353TIP3   OH273549   3.401   2.046   1.001 -0.0373 -0.4062  0.8387
17353TIP3    H173550   3.336   2.093   0.948 -0.4484  0.7655  2.3130
17353TIP3    H273551   3.402   1.957   0.964 -2.0438 -0.2939  0.4021
17354TIP3   OH273552   5.038   4.260  13.268  0.1497  0.0284 -0.6936
17354TIP3    H173553   5.043   4.352  13.296 -1.2680 -0.2018  0.4176
17354TIP3    H273554   4.951   4.252  13.229 -0.2165 -1.1150  0.3035
17355TIP3   OH273555   1.115   3.271  11.069  0.5378  0.4537 -0.2000
17355TIP3    H173556   1.042   3.283  11.008 -0.1977  0.1010  0.5982
17355TIP3    H273557   1.133   3.177  11.066  1.2085  0.5912 -0.6667
17356TIP3   OH273558   4.483   4.970  12.300 -0.3311 -1.3347 -0.2374
17356TIP3    H173559   4.428   4.919  12.240 -0.7894 -0.2900 -0.7344
17356TIP3    H273560   4.553   4.910  12.325 -1.0288 -2.3144 -0.5401
17357TIP3   OH273561   3.181   5.085  12.965 -0.4022 -0.2307  0.3275
17357TIP3    H173562   3.096   5.057  13.000  0.1660 -0.4893  1.5723
17357TIP3    H273563   3.238   5.010  12.980  0.4247  0.5051  0.9521
17358TIP3   OH273564   3.758   2.953   0.132  0.5663  0.1263 -0.8682
17358TIP3    H173565   3.842   2.908   0.141  0.9195  0.9100 -0.1486
17358TIP3    H273566   3.775   3.042   0.162 -0.7570  0.0505  0.1911
17359TIP3   OH273567   1.707   5.094  11.921 -0.5182 -0.9384  0.1434
17359TIP3    H173568   1.771   5.165  11.917 -0.6975 -0.5575  2.5018
17359TIP3    H273569   1.759   5.015  11.905  0.1382 -0.4677 -0.0821
17360TIP3   OH273570   0.368   6.509  12.175  0.0871  0.1939 -0.2344
17360TIP3    H173571   0.384   6.421  12.140  0.6821  0.0685  0.3339
17360TIP3    H273572   0.432   6.565  12.131 -0.8886  0.5305 -1.2801
17361TIP3   OH273573   4.686   0.236  10.536 -0.6422  0.2144  0.2127
17361TIP3    H173574   4.629   0.249  10.611 -0.8591 -1.5854  0.4182
17361TIP3    H273575   4.648   0.289  10.466  0.7096  3.5644  1.8342
17362TIP3   OH273576   0.329   4.726   5.556 -0.4583 -0.3459 -0.0411
17362TIP3    H173577   0.246   4.680   5.570 -0.3936 -0.3769  0.2516
17362TIP3    H273578   0.332   4.792   5.625  0.2405 -1.0311  0.6034
17363TIP3   OH273579   3.436   4.432   2.813  0.0557 -0.0024  0.5220
17363TIP3    H173580   3.472   4.456   2.728 -0.4201 -0.4441  0.1900
17363TIP3    H273581   3.477   4.348   2.834 -0.0379 -0.0279  0.6054
17364TIP3   OH273582   2.075   2.724   2.794  0.1295 -0.6497  0.4056
17364TIP3    H173583   2.002   2.735   2.855  0.2585  0.2426  0.4049
17364TIP3    H273584   2.153   2.727   2.850  0.1529 -2.8841  0.5826
17365TIP3   OH273585   5.606   5.245   3.257 -0.0508 -0.1257 -0.1929
17365TIP3    H173586   5.575   5.176   3.317 -2.5362 -1.3847 -2.7079
17365TIP3    H273587   5.674   5.203   3.205  0.6279  0.3392  0.2908
17366TIP3   OH273588   2.294   2.941   1.280  0.0970  0.0149  0.2828
17366TIP3    H173589   2.347   2.939   1.200 -0.1730  0.6197  0.0840
17366TIP3    H273590   2.311   3.027   1.318  0.3220 -0.3192  0.9504
17367TIP3   OH273591   6.780   5.293  12.963  0.2043  0.2115  0.1317
17367TIP3    H173592   6.795   5.273  13.055  0.6292 -1.9675 -0.3676
17367TIP3    H273593   6.843   5.362  12.943  1.1677 -0.3624  1.0976
17368TIP3   OH273594   5.039   2.432   4.696 -0.4008 -0.4381 -0.5972
17368TIP3    H173595   5.104   2.390   4.640  1.5236  0.0970  1.0713
17368TIP3    H273596   4.967   2.369   4.702 -0.7908 -0.4242 -3.7098
17369TIP3   OH273597   2.117   0.772  15.424 -0.1638 -0.2807  0.0022
17369TIP3    H173598   2.194   0.717  15.430 -1.1435 -1.7817 -0.5329
17369TIP3    H273599   2.144   0.846  15.368  0.2330 -2.0577 -2.2986
17370TIP3   OH273600   6.281   3.701  12.712  0.3271  0.2214  0.4031
17370TIP3    H173601   6.248   3.776  12.761  0.3196  1.6649 -1.6716
17370TIP3    H273602   6.203   3.659  12.676  0.2368 -1.5574  2.4903
17371TIP3   OH273603   1.012   5.946  13.002  0.5560 -0.0227 -0.7740
17371TIP3    H173604   0.982   6.023  13.050 -0.4048 -1.0199  0.2900
17371TIP3    H273605   0.974   5.956  12.915 -1.9433 -0.6172  0.1674
17372TIP3   OH273606   1.165   3.730  11.488  0.1285  0.0069 -0.0756
17372TIP3    H173607   1.072   3.726  11.466  0.4644 -1.3639 -1.4073
17372TIP3    H273608   1.168   3.781  11.569 -1.6603  1.0472 -0.6073
17373TIP3   OH273609   4.329   2.851   0.005 -0.1093  0.1209 -0.1702
17373TIP3    H173610   4.386   2.805   0.065 -1.2840  0.1668  1.0215
17373TIP3    H273611   4.240   2.831   0.035 -0.7749 -0.2396 -2.1603
17374TIP3   OH273612   4.795   6.368   6.143 -0.1501  0.2566  0.0646
17374TIP3    H173613   4.822   6.284   6.179 -0.3322 -0.4090 -1.2896
17374TIP3    H273614   4.724   6.347   6.082  0.5578  1.2492 -1.1573
17375TIP3   OH273615   6.688   2.811   0.216 -0.4452 -0.2000  0.1308
17375TIP3    H173616   6.719   2.758   0.289 -1.3510 -1.3529 -0.2994
17375TIP3    H273617   6.729   2.897   0.230  1.1677 -1.0275  0.7587
17376TIP3   OH273618   3.978   2.858   5.280 -0.2368 -0.3749  0.1685
17376TIP3    H173619   3.939   2.869   5.367  2.5808 -0.5569  1.5752
17376TIP3    H273620   4.000   2.948   5.253  0.9271 -0.4688  0.7243
17377TIP3   OH273621   0.954   1.775  12.538  0.0971  0.0264  0.1532
17377TIP3    H173622   0.899   1.836  12.587  1.4449  0.2341  1.4774
17377TIP3    H273623   0.995   1.828  12.470 -0.1011  0.2108  0.1781
17378TIP3   OH273624   3.537   0.091   0.301  0.8470  0.5026  0.3004
17378TIP3    H173625   3.446   0.061   0.306  1.0389  0.0252  1.0050
17378TIP3    H273626   3.574   0.043   0.227  0.3402  1.2405 -0.4609
17379TIP3   OH273627   0.628   6.176   5.501 -0.4226 -0.7295  0.0808
17379TIP3    H173628   0.544   6.174   5.546 -0.3510 -1.5375  0.1963
17379TIP3    H273629   0.686   6.122   5.555 -0.3569 -1.7750 -1.0064
17380TIP3   OH273630   6.025   0.578  11.075 -0.2688  0.2344  0.3713
17380TIP3    H173631   6.007   0.657  11.023 -1.5707  0.9993  1.9115
17380TIP3    H273632   6.048   0.611  11.161  0.6106 -1.0597  0.6501
17381TIP3   OH273633   1.633   4.358  14.982  0.1260 -0.1460  0.8703
17381TIP3    H173634   1.648   4.318  15.068  0.3847 -1.1105  0.3968
17381TIP3    H273635   1.556   4.414  14.994  0.2638 -0.1360  1.7682
17382TIP3   OH273636   4.568   4.921  15.407 -0.3022 -0.0339  0.2622
17382TIP3    H173637   4.632   4.867  15.453 -2.0905 -1.9189  0.6529
17382TIP3    H273638   4.503   4.943  15.473  0.1214  2.3050  0.0057
17383TIP3   OH273639   3.147   5.918  14.816 -0.2157  0.1877 -0.2618
17383TIP3    H173640   3.162   5.940  14.725  1.0956  0.4492  0.0035
17383TIP3    H273641   3.119   6.001  14.856 -0.1626  0.2164 -0.2846
17384TIP3   OH273642   1.602   0.647   5.650  0.6009  0.0640  0.0204
17384TIP3    H173643   1.532   0.687   5.702  0.1948  1.5926 -1.5787
17384TIP3    H273644   1.645   0.586   5.709  0.9274  2.5329  2.5345
17385TIP3   OH273645   4.274   4.828   2.717  0.4172  0.2379  0.4069
17385TIP3    H173646   4.299   4.834   2.809 -0.6427  1.1265  0.6625
17385TIP3    H273647   4.323   4.753   2.683 -1.3192 -1.9197  2.4024
17386TIP3   OH273648   1.728   0.536   3.359  1.0314  0.4018 -0.1204
17386TIP3    H173649   1.784   0.483   3.417 -1.1421 -0.6008  1.1760
17386TIP3    H273650   1.784   0.609   3.333  2.8436 -0.3577  1.3730
17387TIP3   OH273651   6.029   4.794   3.590  0.2624 -0.1004 -0.6351
17387TIP3    H173652   6.110   4.824   3.549  1.9231 -1.1741  1.6480
17387TIP3    H273653   6.033   4.829   3.679  0.0102 -3.0908  0.6467
17388TIP3   OH273654   1.678   3.346  16.789 -0.2750  0.4073 -0.1699
17388TIP3    H173655   1.600   3.311  16.831 -0.2867  1.2679  0.5488
17388TIP3    H273656   1.747   3.283  16.810 -0.8858 -0.6680 -1.3117
17389TIP3   OH273657   1.040   6.212  10.642  0.8155  0.1382 -0.1630
17389TIP3    H173658   1.076   6.172  10.563 -0.4637 -0.1459 -0.6096
17389TIP3    H273659   1.091   6.293  10.653  2.0039 -0.5421 -0.4186
17390TIP3   OH273660   1.888   5.720  10.908  0.2918 -0.9910  0.2097
17390TIP3    H173661   1.916   5.637  10.869 -1.3069 -1.0886 -0.8262
17390TIP3    H273662   1.802   5.701  10.947  0.0939  0.0661  0.3286
17391TIP3   OH273663   2.955   0.564   0.293 -0.1017  0.0868  0.1870
17391TIP3    H173664   2.950   0.468   0.299 -0.7656  0.1557  0.9058
17391TIP3    H273665   2.970   0.581   0.200 -1.2385 -0.6765 -0.1565
17392TIP3   OH273666   3.138   5.105  16.460 -0.1404  0.3630  0.3988
17392TIP3    H173667   3.227   5.137  16.472  1.2135 -2.9333  0.1972
17392TIP3    H273668   3.112   5.137  16.373  1.2438  0.6094  0.0606
17393TIP3   OH273669   1.464   3.543  10.736  0.0367 -0.1395  0.6687
17393TIP3    H173670   1.423   3.490  10.804 -0.2257  0.6690  1.1391
17393TIP3    H273671   1.448   3.494  10.655 -0.7928 -0.4399  1.0089
17394TIP3   OH273672   4.846   4.514   5.286 -0.1854  0.1231 -0.3230
17394TIP3    H173673   4.875   4.447   5.348  0.0669  1.6328  1.2882
17394TIP3    H273674   4.914   4.582   5.292 -0.6688  0.7392 -1.5456
17395TIP3   OH273675   2.692   2.641   3.056  0.0794  0.2476 -0.5235
17395TIP3    H173676   2.668   2.697   3.130 -1.3260 -0.1667 -0.6446
17395TIP3    H273677   2.680   2.697   2.979  0.9938  0.5015 -0.4955
17396TIP3   OH273678   4.213   0.511   5.231 -0.1965  0.1673  0.6619
17396TIP3    H173679   4.275   0.478   5.166  0.1213 -0.1686  1.1254
17396TIP3    H273680   4.127   0.499   5.191  0.0753  1.7408 -0.4881
17397TIP3   OH273681   3.533   4.110  14.146  0.0761 -0.0274 -0.4804
17397TIP3    H173682   3.471   4.143  14.082 -1.2721 -0.5370  0.5192
17397TIP3    H273683   3.486   4.042  14.194  1.6476 -0.9536 -0.1659
17398TIP3   OH273684   4.095   2.783   0.136 -0.2710  0.1407 -0.3669
17398TIP3    H173685   4.089   2.784   0.232 -1.3666  0.3641 -0.4218
17398TIP3    H273686   4.100   2.691   0.113 -1.6138  0.0054 -0.1619
17399TIP3   OH273687   5.087   6.706  12.573 -0.1774  0.3524 -0.1941
17399TIP3    H173688   5.062   6.746  12.490 -1.3514 -1.0018 -0.5443
17399TIP3    H273689   5.183   6.701  12.570 -0.2473 -3.0173 -3.2174
17400TIP3   OH273690   3.226   1.305  11.059 -0.1731 -0.0310  0.2411
17400TIP3    H173691   3.200   1.308  11.151 -0.0036 -0.4285  0.3047
17400TIP3    H273692   3.322   1.314  11.061  0.1163 -2.4851  0.2854
17401TIP3   OH273693   3.758   6.672   3.013 -0.3700 -0.2428  0.0489
17401TIP3    H173694   3.809   6.712   3.084 -0.7672  0.2723  0.0523
17401TIP3    H273695   3.667   6.697   3.032 -0.9796 -3.0015  1.3124
17402TIP3   OH273696   3.629   3.091   3.968 -0.1717  0.3743  0.3118
17402TIP3    H173697   3.612   3.012   4.019 -1.0307  0.7842  0.6826
17402TIP3    H273698   3.698   3.066   3.907 -1.0750 -0.9507 -0.2183
17403TIP3   OH273699   3.612   1.184   4.739  0.6933  0.4508  0.2404
17403TIP3    H173700   3.697   1.210   4.773 -0.7470  1.5446  3.4428
17403TIP3    H273701   3.629   1.106   4.686  3.5147 -0.1207  1.8202
17404TIP3   OH273702   5.855   1.154  12.118  0.5775  0.0076 -0.0024
17404TIP3    H173703   5.839   1.145  12.212  2.5775 -2.0370  0.2285
17404TIP3    H273704   5.781   1.205  12.086 -1.6063 -1.5097  2.2353
17405TIP3   OH273705   1.970   4.844   3.058  0.4017  0.3613 -0.1475
17405TIP3    H173706   2.054   4.801   3.043  0.7348  1.2940 -1.1142
17405TIP3    H273707   1.984   4.934   3.030 -1.2788  0.2445 -1.5449
17406TIP3   OH273708   2.029   6.587   5.172  0.3486 -0.2156  0.4700
17406TIP3    H173709   2.029   6.646   5.248  0.1154  1.1312 -0.5387
17406TIP3    H273710   2.054   6.643   5.098  0.2611 -1.4231 -0.5030
17407TIP3   OH273711   2.828   5.727  12.136  0.1344  0.0999  0.2656
17407TIP3    H173712   2.878   5.806  12.116  0.5475 -0.1336  0.3553
17407TIP3    H273713   2.887   5.655  12.113 -0.2503 -0.1837  0.1501
17408TIP3   OH273714   2.766   0.923   0.200  0.8848  0.4768  0.7529
17408TIP3    H173715   2.711   0.963   0.268 -1.3264  0.3463 -0.8303
17408TIP3    H273716   2.760   0.829   0.216  0.0520  0.4244  0.1937
17409TIP3   OH273717   4.688   5.139  15.822  0.5876 -0.3681 -0.2155
17409TIP3    H173718   4.734   5.159  15.903 -0.0265 -1.3528  0.3964
17409TIP3    H273719   4.642   5.219  15.799  1.9558  0.3916 -0.4144
17410TIP3   OH273720   2.431   5.789  13.398 -0.1947  0.2194  0.7628
17410TIP3    H173721   2.482   5.813  13.475 -0.5955  1.0142  0.7978
17410TIP3    H273722   2.385   5.870  13.374  0.3519  0.1501 -0.6362
17411TIP3   OH273723   4.192   3.966  14.382  0.1792 -0.6125 -0.1323
17411TIP3    H173724   4.185   4.059  14.363 -0.2285 -0.7684 -0.7875
17411TIP3    H273725   4.106   3.931  14.361  0.3032 -1.1268  0.1936
17412TIP3   OH273726   4.033   5.355   5.120 -0.4081  0.4091 -0.1496
17412TIP3    H173727   4.093   5.361   5.194 -0.1926  0.4457 -0.3268
17412TIP3    H273728   4.056   5.272   5.078 -1.0158  0.0343  0.2438
17413TIP3   OH273729   2.682   4.742  14.327  0.0649  0.1113 -0.2797
17413TIP3    H173730   2.700   4.680  14.256  1.4836  0.2596 -0.0698
17413TIP3    H273731   2.667   4.687  14.404  0.7868  0.0062 -0.2100
17414TIP3   OH273732   3.756   1.425   5.387  0.4438 -0.2598  0.3276
17414TIP3    H173733   3.702   1.359   5.430  1.4858 -1.7174 -0.5264
17414TIP3    H273734   3.838   1.381   5.368 -0.1503 -0.0410 -3.7660
17415TIP3   OH273735   4.287   5.220  16.316 -0.3121  0.3146  0.0889
17415TIP3    H173736   4.260   5.250  16.402 -0.5572  0.4272 -0.0247
17415TIP3    H273737   4.241   5.277  16.255  0.9073  1.1173 -0.1046
17416TIP3   OH273738   5.996   3.676  12.792  0.3846  0.0641 -0.0645
17416TIP3    H173739   6.003   3.662  12.697 -0.3504  0.2513 -0.1575
17416TIP3    H273740   5.960   3.594  12.825 -0.1199  0.2850 -0.0600
17417TIP3   OH273741   0.131   0.120   4.529  0.3646  0.2932  0.2832
17417TIP3    H173742   0.103   0.143   4.441  0.1367  1.1289  0.5612
17417TIP3    H273743   0.051   0.088   4.572  0.4936 -0.1954  0.1640
17418TIP3   OH273744   4.322   4.100   2.501  0.0629 -0.1120  0.5592
17418TIP3    H173745   4.246   4.089   2.444  0.8434  2.1138 -1.0412
17418TIP3    H273746   4.298   4.171   2.560 -0.5380 -2.0489  2.8159
17419TIP3   OH273747   5.526   0.962   2.658  0.0603  0.8069 -0.2699
17419TIP3    H173748   5.441   1.004   2.672 -1.4009 -0.8140 -3.3072
17419TIP3    H273749   5.572   1.021   2.598  0.5432  1.0140  0.2968
17420TIP3   OH273750   4.618   4.684   2.001  0.4632  0.1568  0.3796
17420TIP3    H173751   4.554   4.624   1.963  0.7379 -0.8944  1.5214
17420TIP3    H273752   4.678   4.704   1.929 -0.7059  0.5876 -0.5149
17421TIP3   OH273753   3.819   6.798  16.500  0.2682  0.0711 -0.1561
17421TIP3    H173754   3.878   6.830  16.568 -0.2509 -0.9022  0.7766
17421TIP3    H273755   3.732   6.799  16.542 -0.5038  1.9439 -1.6425
17422TIP3   OH273756   2.178   0.922   3.921 -0.2188  0.0796  0.9803
17422TIP3    H173757   2.088   0.894   3.909 -0.2468  0.8050 -0.8902
17422TIP3    H273758   2.223   0.845   3.956 -0.8407 -1.4835 -1.4516
17423TIP3   OH273759   6.718   5.569   5.205  1.0749 -0.0993 -0.0847
17423TIP3    H173760   6.627   5.574   5.177  1.0255 -0.1361  0.0694
17423TIP3    H273761   6.769   5.568   5.124  0.9143 -0.6421 -0.1776
17424TIP3   OH273762   3.856   1.670  15.681 -0.3812  0.2824 -0.0109
17424TIP3    H173763   3.828   1.716  15.759  0.3438  0.5624  0.0965
17424TIP3    H273764   3.789   1.604  15.666  0.2824 -0.8692  1.7892
17425TIP3   OH273765   1.591   4.058  15.019 -0.0743 -0.3209 -0.3089
17425TIP3    H173766   1.588   3.997  15.093  0.5733 -0.7294 -0.6146
17425TIP3    H273767   1.522   4.027  14.960 -0.2237 -0.3223 -0.1363
17426TIP3   OH273768   5.967   4.575  14.681 -0.1273  0.1927 -0.5752
17426TIP3    H173769   6.051   4.546  14.646 -0.0240 -0.3319  0.0864
17426TIP3    H273770   5.963   4.537  14.769 -0.8831  0.5360 -0.4511
17427TIP3   OH273771   3.177   0.049   2.002 -0.0372 -0.1088 -0.2220
17427TIP3    H173772   3.229  -0.032   2.001  1.3165  0.6316  1.9254
17427TIP3    H273773   3.233   0.114   1.959  0.0126  0.2464  0.3631
17428TIP3   OH273774   3.010   3.042   2.394 -0.5056  0.5458 -0.4835
17428TIP3    H173775   2.967   2.965   2.357  1.7861 -0.5702 -0.9520
17428TIP3    H273776   3.010   3.026   2.488  0.9982 -0.6360 -0.6598
17429TIP3   OH273777   5.571   2.301  14.098  0.3807  0.6192 -0.6429
17429TIP3    H173778   5.479   2.308  14.074  0.3838 -0.0076 -0.8415
17429TIP3    H273779   5.594   2.210  14.080  0.6768  0.4102  0.7086
17430TIP3   OH273780   2.782   2.169  13.972  0.0689  0.0912  0.2970
17430TIP3    H173781   2.761   2.260  13.996 -0.9840 -0.4035  1.3462
17430TIP3    H273782   2.854   2.145  14.029 -1.0873 -0.4160  1.5962
17431TIP3   OH273783   2.519   0.752  12.269  0.2295  0.1179 -0.2030
17431TIP3    H173784   2.549   0.823  12.326  1.3753 -2.0302  2.0672
17431TIP3    H273785   2.441   0.718  12.312  0.9778 -1.3835  0.0490
17432TIP3   OH273786   5.494   0.175  10.847 -0.0754 -0.1054  0.8153
17432TIP3    H173787   5.470   0.229  10.772 -1.1668  0.4069  1.5073
17432TIP3    H273788   5.543   0.103  10.810 -0.5800  0.1522 -0.3957
17433TIP3   OH273789   5.782   5.928  11.089  0.2761 -0.0501 -0.0983
17433TIP3    H173790   5.785   5.987  11.164  0.4915  1.5142 -1.3024
17433TIP3    H273791   5.798   5.841  11.127  1.3382  0.8049  1.5333
17434TIP3   OH273792   2.515   5.042   3.408 -0.0012 -0.1463  0.5584
17434TIP3    H173793   2.532   4.971   3.469  3.1862  0.4804  0.5915
17434TIP3    H273794   2.523   5.122   3.461  1.4151  0.3546 -0.3564
17435TIP3   OH273795   1.232   1.608   3.984  0.3201  0.0988  0.6256
17435TIP3    H173796   1.311   1.566   4.017  0.3083 -0.4396 -0.0135
17435TIP3    H273797   1.215   1.565   3.900 -0.9027 -0.1116  0.9542
17436TIP3   OH273798   1.543   6.459  14.387  0.4168  0.7344  0.5160
17436TIP3    H173799   1.529   6.404  14.464 -0.0764  1.2671  0.8117
17436TIP3    H273800   1.615   6.417  14.340  0.3635  0.1076  0.9883
17437TIP3   OH273801   6.475   2.410  12.360 -0.2522 -0.3878  0.1188
17437TIP3    H173802   6.425   2.472  12.307  0.0707 -0.4682 -0.2843
17437TIP3    H273803   6.442   2.324  12.333 -0.2638 -0.4163  0.2264
17438TIP3   OH273804   5.999   3.150  10.149  0.1228  0.3542 -0.1433
17438TIP3    H173805   6.074   3.173  10.203  1.9838 -1.5773 -1.7560
17438TIP3    H273806   5.997   3.054  10.149 -1.4020  0.3346 -1.4140
17439TIP3   OH273807   6.375   0.413  16.035 -0.4877  0.0919  0.2237
17439TIP3    H173808   6.317   0.397  15.961  0.0050  1.8974 -0.5984
17439TIP3    H273809   6.431   0.335  16.039 -2.3814 -1.3363  0.5529
17440TIP3   OH273810   3.700   5.177   2.372  0.2595  0.1765  0.0805
17440TIP3    H173811   3.759   5.189   2.447 -0.0776  0.1091  0.3597
17440TIP3    H273812   3.736   5.101   2.325  0.7855  0.5518 -0.1333
17441TIP3   OH273813   3.862   2.015   2.596  0.7090 -0.0355 -1.3101
17441TIP3    H173814   3.878   1.975   2.681 -0.8558 -1.6779 -1.7206
17441TIP3    H273815   3.949   2.037   2.563  1.4758 -1.0594 -0.0782
17442TIP3   OH273816   3.991   1.927  16.925 -0.1523 -0.7375  0.0755
17442TIP3    H173817   3.940   1.911  17.004  0.1186 -1.2085  0.1618
17442TIP3    H273818   3.976   1.849  16.871 -1.4780  0.1954 -0.9662
17443TIP3   OH273819   3.955   0.457  11.570  0.7040 -0.3868  0.2139
17443TIP3    H173820   4.028   0.453  11.509 -0.3740 -1.6733 -1.0596
17443TIP3    H273821   3.948   0.369  11.605  0.0666 -0.1509  0.7044
17444TIP3   OH273822   0.045   1.708   5.451 -0.4114  0.0708  0.1375
17444TIP3    H173823  -0.017   1.782   5.449 -2.0112 -1.1316  1.9104
17444TIP3    H273824   0.010   1.649   5.518  0.9559 -2.1978 -1.0290
17445TIP3   OH273825   1.763   1.508  11.195  0.9158 -0.1214 -0.1333
17445TIP3    H173826   1.820   1.469  11.261  1.8204  0.6344 -0.4356
17445TIP3    H273827   1.710   1.435  11.162  1.0067 -0.6460  0.8651
17446TIP3   OH273828   4.365   4.616  14.459 -0.7154 -0.3791  0.0704
17446TIP3    H173829   4.422   4.672  14.512  0.7260  0.1985 -1.9556
17446TIP3    H273830   4.277   4.647  14.478 -0.1311  0.8798  0.9075
17447TIP3   OH273831   5.427   0.340  10.126  0.4947 -0.1116  0.5815
17447TIP3    H173832   5.386   0.399  10.063 -0.2284 -1.3391 -0.1372
17447TIP3    H273833   5.395   0.369  10.211  0.7917  1.0187  0.3177
17448TIP3   OH273834   5.414   0.134   6.014 -0.2261  0.3928  0.2308
17448TIP3    H173835   5.500   0.091   6.018 -0.8752 -0.9079  0.9278
17448TIP3    H273836   5.376   0.104   5.932  0.0192  1.0673 -0.1378
17449TIP3   OH273837   4.220   4.413   0.574 -0.4923 -0.0390 -0.3699
17449TIP3    H173838   4.187   4.502   0.588 -1.4199 -0.5637  0.8291
17449TIP3    H273839   4.232   4.377   0.662 -0.3552 -1.1911 -0.8427
17450TIP3   OH273840   5.697   2.454  11.631  0.5757  0.0311  0.0911
17450TIP3    H173841   5.699   2.389  11.560  0.4579 -0.4622  0.5342
17450TIP3    H273842   5.765   2.517  11.608 -0.9496  1.1704 -1.6786
17451TIP3   OH273843   4.951   4.442  13.515  0.2703  0.0635 -0.0405
17451TIP3    H173844   5.046   4.449  13.507  0.1140  0.2515 -2.3868
17451TIP3    H273845   4.936   4.350  13.538  0.9807 -0.3117 -0.9893
17452TIP3   OH273846   2.567   3.614  17.123  0.0190 -0.4586  0.0824
17452TIP3    H173847   2.619   3.579  17.196 -2.0329 -0.4770  1.6246
17452TIP3    H273848   2.610   3.581  17.045  1.9289 -0.9891  1.2859
17453TIP3   OH273849   1.838   1.051   0.711 -0.6124 -0.0189 -0.5389
17453TIP3    H173850   1.863   1.049   0.803 -2.0030  0.8327 -0.1065
17453TIP3    H273851   1.877   1.131   0.677 -2.0160  0.9187 -0.0522
17454TIP3   OH273852   1.212   6.306  13.943 -0.3648 -0.0216 -0.0206
17454TIP3    H173853   1.212   6.362  14.021 -2.9541  0.3358 -0.1908
17454TIP3    H273854   1.258   6.357  13.877 -2.9553  2.1773 -0.2833
17455TIP3   OH273855   0.754   2.812   4.966 -0.1094  0.1058  0.2372
17455TIP3    H173856   0.792   2.892   4.930 -1.3665 -0.2210 -1.9695
17455TIP3    H273857   0.669   2.804   4.923  0.5940 -3.1859 -0.7886
17456TIP3   OH273858   6.434   0.902   5.329 -0.1600 -0.5129  0.2131
17456TIP3    H173859   6.384   0.842   5.274 -0.1664  0.4970 -0.9242
17456TIP3    H273860   6.369   0.942   5.387  0.0755 -2.8542  2.2628
17457TIP3   OH273861   0.604   4.585   2.628  0.0746  0.8081  0.0020
17457TIP3    H173862   0.658   4.658   2.596  0.6362  1.0140  1.3603
17457TIP3    H273863   0.531   4.580   2.566  1.2526  0.9931 -1.4713
17458TIP3   OH273864   6.308   2.044   0.841  0.0320 -0.0776 -0.3081
17458TIP3    H173865   6.213   2.038   0.850  0.0080  1.3715  0.6324
17458TIP3    H273866   6.322   2.075   0.752 -0.5416  2.2652  0.3456
17459TIP3   OH273867   1.016   2.455  10.042  0.6800 -0.0269 -0.1610
17459TIP3    H173868   1.076   2.385  10.069  0.3680  0.1176  0.9598
17459TIP3    H273869   1.072   2.521  10.002  0.8987 -1.2367 -2.0181
17460TIP3   OH273870   2.925   2.659  14.454  0.4213 -0.2609 -0.5719
17460TIP3    H173871   2.982   2.591  14.489  1.6490  0.0116 -1.9800
17460TIP3    H273872   2.922   2.643  14.360 -1.4962  0.0069 -0.6025
17461TIP3   OH273873   2.657   6.487  13.578 -0.1306  0.5470  0.1352
17461TIP3    H173874   2.716   6.477  13.653 -0.3853 -0.1002  0.2592
17461TIP3    H273875   2.652   6.399  13.540 -1.2890  0.5051  0.3437
17462TIP3   OH273876   0.046   2.361  11.477  0.4819  0.1214 -0.5142
17462TIP3    H173877  -0.017   2.362  11.406 -0.4244  0.2370  0.2710
17462TIP3    H273878   0.073   2.452  11.487 -0.0367  0.2395 -0.1592
17463TIP3   OH273879   4.021   5.788  15.700 -0.4266 -0.0167 -0.5371
17463TIP3    H173880   3.988   5.753  15.783 -0.6555  0.2514 -0.5109
17463TIP3    H273881   4.021   5.883  15.714  2.1688 -0.0520  0.1690
17464TIP3   OH273882   6.710   6.837   0.819  0.1073 -1.0160 -0.3687
17464TIP3    H173883   6.660   6.856   0.898  0.0163 -2.6256 -0.0108
17464TIP3    H273884   6.649   6.852   0.747  0.3782  1.0810 -0.2045
17465TIP3   OH273885   1.613   1.238   4.384 -0.2912 -0.3133  0.2963
17465TIP3    H173886   1.657   1.252   4.467  0.4768 -0.2049 -0.1238
17465TIP3    H273887   1.678   1.259   4.317 -0.8133 -0.6389 -0.3376
17466TIP3   OH273888   4.652   1.462   2.898 -0.0906  0.0187  0.1003
17466TIP3    H173889   4.689   1.509   2.823  0.8853 -0.7740  0.0570
17466TIP3    H273890   4.726   1.449   2.958 -1.1292  1.8880  1.9050
17467TIP3   OH273891   0.633   4.251  15.094 -0.5569 -0.2776 -0.2174
17467TIP3    H173892   0.571   4.181  15.077 -0.2720 -0.6205  0.1339
17467TIP3    H273893   0.706   4.233  15.035  0.9469 -2.1228  2.0325
17468TIP3   OH273894   1.913   2.160  13.632 -0.2783 -0.0572  0.4767
17468TIP3    H173895   1.880   2.247  13.655 -1.0746 -0.4070  0.6765
17468TIP3    H273896   1.836   2.112  13.601  0.4446 -0.1398 -1.3441
17469TIP3   OH273897   3.987   1.255   4.236 -0.1897  0.2634  0.3301
17469TIP3    H173898   3.992   1.199   4.314  0.5669  0.9872  0.8208
17469TIP3    H273899   4.074   1.292   4.227 -0.0898 -0.2988 -1.2643
17470TIP3   OH273900   2.453   5.224  15.017  0.2551  0.7292 -0.3280
17470TIP3    H173901   2.544   5.208  15.044  0.0635  1.2574  0.6763
17470TIP3    H273902   2.454   5.212  14.922  1.4727  1.2021 -0.3905
17471TIP3   OH273903   1.554   5.660   3.742  0.4867 -0.3508 -0.0911
17471TIP3    H173904   1.622   5.703   3.689 -0.7492  1.4724 -0.3022
17471TIP3    H273905   1.481   5.647   3.680  0.0230 -0.7085  0.5225
17472TIP3   OH273906   1.455   5.478   4.475  0.4368 -0.6806  0.3985
17472TIP3    H173907   1.377   5.423   4.465 -0.2013  0.0154  1.4088
17472TIP3    H273908   1.425   5.567   4.456  1.3085 -0.5726 -0.5569
17473TIP3   OH273909   4.721   3.901   5.007  0.3535  0.1716  0.0352
17473TIP3    H173910   4.731   3.963   5.079 -1.1623  0.0781  0.3612
17473TIP3    H273911   4.628   3.876   5.009  0.8011 -1.7293 -0.3847
17474TIP3   OH273912   0.644   4.983  10.680 -0.4417  0.5041 -0.2849
17474TIP3    H173913   0.642   4.910  10.742  1.7556 -0.8152 -1.5808
17474TIP3    H273914   0.556   5.020  10.683 -0.4250  0.6707  3.6744
17475TIP3   OH273915   5.366   2.083   2.215  0.4700  0.1004  0.1674
17475TIP3    H173916   5.326   1.998   2.200  0.1488  0.5439 -1.7619
17475TIP3    H273917   5.299   2.134   2.261  0.1118 -0.2154 -0.0074
17476TIP3   OH273918   6.355   5.968  16.190 -0.1507  0.3629  0.0682
17476TIP3    H173919   6.371   5.876  16.209  1.1975  0.2233 -1.5094
17476TIP3    H273920   6.263   5.972  16.165  0.2465 -0.9834 -1.8951
17477TIP3   OH273921   6.839   6.662   4.842 -0.1352 -0.4082 -0.2820
17477TIP3    H173922   6.745   6.659   4.862 -0.2262 -0.5296 -0.7057
17477TIP3    H273923   6.856   6.578   4.799 -0.1028  0.1259 -1.3532
17478TIP3   OH273924   2.720   2.681   2.182 -0.0055 -0.1926 -0.1225
17478TIP3    H173925   2.636   2.725   2.169  1.2586  2.6972  0.5150
17478TIP3    H273926   2.779   2.726   2.121  1.2792 -1.5165  0.1121
17479TIP3   OH273927   0.076   5.303   1.216 -0.0505 -0.0126  0.2387
17479TIP3    H173928   0.005   5.239   1.213 -0.0815 -0.3003  3.3683
17479TIP3    H273929   0.032   5.386   1.235  0.2640  0.2466 -0.1623
17480TIP3   OH273930   0.154   6.513  13.130 -0.5273  0.2759 -0.0865
17480TIP3    H173931   0.085   6.570  13.165 -0.0398  0.0373  1.3286
17480TIP3    H273932   0.235   6.564  13.140 -0.3993  0.3065 -1.1590
17481TIP3   OH273933   4.033   5.635   5.152 -0.1510 -0.6012  0.2016
17481TIP3    H173934   4.014   5.541   5.148  1.1209 -1.1270  3.2530
17481TIP3    H273935   4.118   5.644   5.109 -0.4219 -0.7862 -0.3795
17482TIP3   OH273936   4.781   1.924   0.038 -0.5719  0.1687  0.6233
17482TIP3    H173937   4.696   1.954   0.007 -1.0530  0.3393  2.0380
17482TIP3    H273938   4.766   1.898   0.129  0.8590  0.1070  0.8651
17483TIP3   OH273939   2.001   6.686  15.100 -0.2848  0.3663 -0.1184
17483TIP3    H173940   1.981   6.762  15.155 -2.2522  0.2681 -0.6018
17483TIP3    H273941   1.975   6.713  15.012 -0.9275 -0.8041 -0.3143
17484TIP3   OH273942   2.609   5.883  13.610 -0.0901  0.3584  0.6853
17484TIP3    H173943   2.624   5.976  13.595 -0.0187  0.4496  1.3191
17484TIP3    H273944   2.696   5.843  13.603 -0.3271  0.0616 -1.3871
17485TIP3   OH273945   4.254   3.905  13.199 -0.1963  0.2278  0.4115
17485TIP3    H173946   4.327   3.938  13.146  0.1308  0.0700  0.7615
17485TIP3    H273947   4.271   3.938  13.287  1.4548 -2.7428  1.3591
17486TIP3   OH273948   0.688   2.325  15.145 -0.2228 -0.2807 -0.3093
17486TIP3    H173949   0.664   2.407  15.101 -1.7394  0.2139  1.3214
17486TIP3    H273950   0.724   2.270  15.075  0.2234  1.5137 -1.5736
17487TIP3   OH273951   3.356   3.928   3.449 -0.0678 -0.3761 -0.2994
17487TIP3    H173952   3.403   4.010   3.437 -0.2286 -0.4569 -1.5401
17487TIP3    H273953   3.350   3.918   3.544  3.0056 -0.7068 -0.0514
17488TIP3   OH273954   2.225   0.956   5.107 -0.5409 -0.3888  0.3332
17488TIP3    H173955   2.307   0.908   5.120  0.0363  0.6583  0.7231
17488TIP3    H273956   2.188   0.919   5.028 -0.5685 -2.0802  1.1049
17489TIP3   OH273957   5.536   1.989  16.602 -0.0596 -0.1495  0.4875
17489TIP3    H173958   5.616   1.965  16.648 -0.0850  1.3029  1.3409
17489TIP3    H273959   5.556   1.975  16.510  0.7342 -1.0245  0.7869
17490TIP3   OH273960   4.817   3.807   2.593 -0.4246  0.1575 -0.0304
17490TIP3    H173961   4.737   3.795   2.643  0.4658  2.2864  2.0832
17490TIP3    H273962   4.807   3.750   2.516 -3.2934 -0.6897  0.8823
17491TIP3   OH273963   1.567   6.420  12.415 -0.0904  0.5261 -0.0670
17491TIP3    H173964   1.575   6.414  12.320 -1.0341 -0.0238 -0.1167
17491TIP3    H273965   1.635   6.483  12.441 -0.0184  0.8960 -1.1278
17492TIP3   OH273966   1.977   5.678   5.639 -0.6408 -0.0709  0.1416
17492TIP3    H173967   1.925   5.598   5.640 -2.0777  0.7606 -1.1776
17492TIP3    H273968   2.021   5.680   5.724  0.6655 -2.9667 -0.3636
17493TIP3   OH273969   0.731   6.752  12.637 -0.7201  0.3854 -0.6118
17493TIP3    H173970   0.669   6.824  12.648  0.3250  0.9661  2.4758
17493TIP3    H273971   0.696   6.681  12.692  1.4244  0.8807  1.5592
17494TIP3   OH273972   1.030   4.613   2.838 -0.1726 -0.1379 -0.9050
17494TIP3    H173973   0.967   4.542   2.848 -0.4248  0.3178  1.2740
17494TIP3    H273974   1.025   4.661   2.921  0.0119  2.4074 -2.2561
17495TIP3   OH273975   2.259   5.016   4.095 -0.0973  0.0953 -0.2033
17495TIP3    H173976   2.299   5.100   4.117 -0.4167 -0.1181  1.2957
17495TIP3    H273977   2.323   4.951   4.124 -0.5553 -0.2012  0.1536
17496TIP3   OH273978   0.108   4.524   5.980 -0.8694 -0.1478  0.1056
17496TIP3    H173979   0.046   4.579   5.932 -2.0496 -0.5032  1.1602
17496TIP3    H273980   0.057   4.449   6.008  0.7374 -1.8745 -1.3635
17497TIP3   OH273981   5.179   6.328   4.673  0.5330  0.3897 -0.5009
17497TIP3    H173982   5.135   6.390   4.732 -1.4513 -1.0058 -0.4328
17497TIP3    H273983   5.196   6.379   4.594  0.2581  1.4137  0.0754
17498TIP3   OH273984   2.776   4.249  16.961 -0.3430  0.0417 -0.5089
17498TIP3    H173985   2.775   4.156  16.986 -1.9110  0.0187 -0.5533
17498TIP3    H273986   2.739   4.249  16.872 -3.7569  0.9890  0.7654
17499TIP3   OH273987   3.972   0.040   3.391 -0.1476  0.1916  0.2874
17499TIP3    H173988   4.029  -0.014   3.445  0.4206 -1.4522 -1.8510
17499TIP3    H273989   3.886   0.001   3.400 -0.0460 -0.1044 -0.0475
17500TIP3   OH273990   4.097   6.667  10.751 -0.2490  0.0679 -0.1740
17500TIP3    H173991   4.041   6.622  10.688  1.6812 -1.3225 -1.0012
17500TIP3    H273992   4.165   6.709  10.697 -0.1966  1.3251  0.8203
17501TIP3   OH273993   5.809   5.655  14.850 -0.0674 -0.1697 -0.1818
17501TIP3    H173994   5.849   5.700  14.776 -1.0759 -0.2613 -0.8042
17501TIP3    H273995   5.744   5.597  14.810 -1.6484  0.8344  0.8303
17502TIP3   OH273996   0.410   4.299   2.149 -0.3305  0.1787 -0.2774
17502TIP3    H173997   0.389   4.210   2.179 -1.5445  0.3916 -0.4232
17502TIP3    H273998   0.408   4.293   2.054  2.6429 -0.2942 -0.4043
17503TIP3   OH273999   3.548   2.996   5.765  0.1691  0.4080  0.0707
17503TIP3    H174000   3.517   3.043   5.688 -0.6871 -2.2046 -1.3094
17503TIP3    H274001   3.471   2.950   5.799  0.7615  0.6615  1.8681
17504TIP3   OH274002   0.121   6.817  10.782 -0.4030  0.0608 -0.0284
17504TIP3    H174003   0.027   6.831  10.793 -0.8056 -1.9159 -0.4395
17504TIP3    H274004   0.127   6.734  10.734  1.5667 -0.3773  0.8688
17505TIP3   OH274005   4.940   3.199  11.498 -0.0287  0.0366 -0.0368
17505TIP3    H174006   4.955   3.135  11.428  0.1126 -0.7803  0.7300
17505TIP3    H274007   4.868   3.254  11.465 -1.1256 -1.4054 -0.1265
17506TIP3   OH274008   2.618   0.984  12.401  0.7977 -0.5602  0.3599
17506TIP3    H174009   2.591   1.074  12.421  3.0177  0.9879 -2.7544
17506TIP3    H274010   2.673   0.959  12.476  1.1588  1.1821  0.7337
17507TIP3   OH274011   0.697   1.740  10.609  0.0977 -0.2718  0.3792
17507TIP3    H174012   0.660   1.826  10.590 -0.8524 -0.1638  2.4305
17507TIP3    H274013   0.755   1.721  10.534 -1.6400  0.9739 -1.3769
17508TIP3   OH274014   0.937   5.799   4.723 -0.1011  0.3384  0.6773
17508TIP3    H174015   0.936   5.887   4.762  0.2254  0.5284  0.2674
17508TIP3    H274016   0.920   5.740   4.796  0.9790  0.6605  1.2089
17509TIP3   OH274017   5.154   4.730   2.879 -0.0743 -0.1429 -0.0769
17509TIP3    H174018   5.167   4.691   2.966 -3.0702 -1.0052  0.0677
17509TIP3    H274019   5.061   4.750   2.875  0.4633  2.4840 -2.0832
17510TIP3   OH274020   1.496   0.587  10.200  0.4084  0.0216 -0.0263
17510TIP3    H174021   1.580   0.550  10.175  0.5645  0.1580  0.2848
17510TIP3    H274022   1.446   0.591  10.119  1.3931  1.7725 -0.5952
17511TIP3   OH274023   1.466   5.957   1.467  0.3480  0.0340  0.3172
17511TIP3    H174024   1.381   5.934   1.504  0.5931 -0.6605  0.4648
17511TIP3    H274025   1.445   6.011   1.391 -0.1794  0.8370  1.0171
17512TIP3   OH274026   0.518   5.386  12.090  0.4623 -0.3862 -0.1872
17512TIP3    H174027   0.517   5.455  12.024 -0.1274  0.4338  0.6634
17512TIP3    H274028   0.610   5.361  12.096  0.7048  0.4259 -0.3914
17513TIP3   OH274029   2.827   1.752   5.815  0.3989 -0.3625 -0.2722
17513TIP3    H174030   2.848   1.662   5.840  0.0904 -0.4811 -0.4311
17513TIP3    H274031   2.833   1.802   5.897 -0.0013 -0.6347 -0.0735
17514TIP3   OH274032   1.447   5.602  12.850  0.7793  0.4010  0.2437
17514TIP3    H174033   1.407   5.682  12.885 -1.2259  0.2719 -1.5233
17514TIP3    H274034   1.515   5.634  12.791 -0.2953  0.8766 -0.7847
17515TIP3   OH274035   5.675   5.343  13.873 -0.3216  0.3361 -0.1757
17515TIP3    H174036   5.725   5.301  13.804 -0.2395 -0.4166  0.3275
17515TIP3    H274037   5.599   5.286  13.886  1.7218 -1.9700  3.2333
17516TIP3   OH274038   1.800   0.217   1.422 -0.2056  0.7680 -0.1204
17516TIP3    H174039   1.842   0.239   1.506  0.8853  0.2228 -0.5050
17516TIP3    H274040   1.857   0.257   1.356 -0.3599  0.1132 -0.6589
17517TIP3   OH274041   2.236   2.887   4.490 -0.1075  0.0411  0.2499
17517TIP3    H174042   2.322   2.928   4.477  0.6170 -1.6355 -0.6189
17517TIP3    H274043   2.174   2.959   4.481  1.1218  1.0388 -0.7859
17518TIP3   OH274044   0.241   6.412   1.421 -0.4387  0.5406 -0.1183
17518TIP3    H174045   0.220   6.491   1.371 -1.7718 -0.4542 -1.2078
17518TIP3    H274046   0.331   6.391   1.396 -0.5808  0.9014 -0.9703
17519TIP3   OH274047   0.832   0.060  11.737  0.4247 -0.0909  0.0772
17519TIP3    H174048   0.812   0.052  11.644  1.4822  1.1703 -0.2879
17519TIP3    H274049   0.756   0.023  11.781 -0.9015  0.8997 -1.2743
17520TIP3   OH274050   5.539   1.692   1.416 -0.5653  0.5176  0.1945
17520TIP3    H174051   5.492   1.646   1.347  2.9827  0.5757 -2.5748
17520TIP3    H274052   5.471   1.736   1.467 -3.4835  0.4478 -3.2495
17521TIP3   OH274053   1.093   4.255   9.916 -0.3001  0.4976 -0.3713
17521TIP3    H174054   1.006   4.218   9.901 -0.6162  1.2415 -0.4261
17521TIP3    H274055   1.118   4.293   9.832 -0.2174  0.8821 -0.1757
17522TIP3   OH274056   1.341   5.046   3.524 -0.5936 -0.5829  0.0004
17522TIP3    H174057   1.348   5.136   3.556 -0.3080 -0.5000 -0.2950
17522TIP3    H274058   1.248   5.025   3.533 -0.8767  0.1548 -1.0411
17523TIP3   OH274059   6.726   2.892  15.026 -0.0773 -0.0322 -0.3652
17523TIP3    H174060   6.810   2.928  14.998  0.6638  0.6733  2.4350
17523TIP3    H274061   6.665   2.965  15.019  0.4974  0.6763  1.3134
17524TIP3   OH274062   1.310   1.094  14.816  0.5572  0.3143 -0.6265
17524TIP3    H174063   1.352   1.058  14.894 -2.9981  0.3998  1.5780
17524TIP3    H274064   1.307   1.020  14.755 -1.0676 -1.4430  1.3909
17525TIP3   OH274065   6.565   1.533  12.485  0.4698  0.5651  0.0595
17525TIP3    H174066   6.642   1.590  12.485  1.1439 -0.1802 -3.2239
17525TIP3    H274067   6.591   1.457  12.432 -3.2340  1.4530 -3.4634
17526TIP3   OH274068   1.473   1.282  12.018 -0.7261 -0.1948  0.0982
17526TIP3    H174069   1.449   1.198  11.980 -2.9685  0.5816 -0.3030
17526TIP3    H274070   1.399   1.339  12.001 -0.6238  1.0248  3.0835
17527TIP3   OH274071   1.387   5.435   1.177 -0.5745 -0.0700  0.6211
17527TIP3    H174072   1.309   5.490   1.177 -2.3750 -2.3857 -2.1675
17527TIP3    H274073   1.431   5.454   1.094 -0.0681 -1.2657  0.5873
17528TIP3   OH274074   6.658   5.942   0.016 -0.6505  0.0804 -0.3782
17528TIP3    H174075   6.583   5.903   0.061  0.5292 -0.6373  1.0916
17528TIP3    H274076   6.733   5.918   0.071  0.9037 -0.7456 -2.6884
17529TIP3   OH274077   5.926   0.028   6.271  0.3648 -0.0952 -0.1112
17529TIP3    H174078   6.008   0.049   6.316  1.5966  2.1237 -3.0761
17529TIP3    H274079   5.858   0.068   6.325  1.4700  0.0978  1.1909
17530TIP3   OH274080   1.743   3.777  16.718  0.3106  0.5676  0.1383
17530TIP3    H174081   1.823   3.747  16.675 -0.0775 -0.4929  0.1415
17530TIP3    H274082   1.721   3.859  16.673  0.8619  0.3697 -0.5117
17531TIP3   OH274083   2.139   5.078  13.304  0.3114  0.6260 -0.4450
17531TIP3    H174084   2.174   4.989  13.298  1.3827  1.1038 -1.7496
17531TIP3    H274085   2.199   5.124  13.362  0.0017  0.6302 -0.1202
17532TIP3   OH274086   4.077   5.046  16.653 -0.3755 -0.1804  0.4740
17532TIP3    H174087   3.993   5.088  16.673 -0.7230 -0.8038  0.3725
17532TIP3    H274088   4.141   5.093  16.706 -0.4531  1.6470 -0.9361
17533TIP3   OH274089   6.167   6.200   0.366  0.2604  0.1553  0.1048
17533TIP3    H174090   6.258   6.218   0.389  0.2752  0.1560  0.0456
17533TIP3    H274091   6.163   6.104   0.358  0.4438  0.2037 -0.6767
17534TIP3   OH274092   3.364   1.499   3.180 -0.2349  0.0688  0.1325
17534TIP3    H174093   3.280   1.536   3.208 -0.0634  0.6558 -0.1127
17534TIP3    H274094   3.417   1.497   3.260 -0.0813  0.8177  0.0567
17535TIP3   OH274095   3.921   2.421   1.206 -0.5266 -0.3989  1.0828
17535TIP3    H174096   3.938   2.332   1.237  1.5629  0.1201  1.5554
17535TIP3    H274097   3.985   2.475   1.252 -1.5346  1.3129  0.5431
17536TIP3   OH274098   1.477   3.911   2.217  0.2945  0.3882 -0.0252
17536TIP3    H174099   1.432   3.848   2.161  0.2734  0.3610  0.0213
17536TIP3    H274100   1.496   3.861   2.297 -1.8990  1.0851  1.0183
17537TIP3   OH274101   2.808   1.991  14.436 -0.2058 -0.4460 -0.2796
17537TIP3    H174102   2.877   2.040  14.481 -0.7036 -1.5278  1.8212
17537TIP3    H274103   2.851   1.952  14.361  0.7025  1.3952 -0.7634
17538TIP3   OH274104   5.554   2.045   3.459  0.2871  0.0580 -0.0698
17538TIP3    H174105   5.605   2.093   3.394  2.7591 -0.7879  1.1352
17538TIP3    H274106   5.532   2.110   3.526  1.1790  0.1382  0.1622
17539TIP3   OH274107   5.438   0.565   1.358  0.1429 -0.4545  0.3410
17539TIP3    H174108   5.499   0.629   1.321  1.3245 -0.5608  1.9654
17539TIP3    H274109   5.419   0.506   1.285 -0.6344  1.4313 -1.0868
17540TIP3   OH274110   3.280   0.861   0.114  0.3834  0.7108  0.2996
17540TIP3    H174111   3.235   0.932   0.160 -1.0167 -0.7169  1.2328
17540TIP3    H274112   3.290   0.793   0.180 -0.9056 -1.0831 -1.2709
17541TIP3   OH274113   6.125   2.420  15.196  0.5749  0.2521  0.1348
17541TIP3    H174114   6.107   2.414  15.102  1.3917 -0.4671  0.0124
17541TIP3    H274115   6.043   2.395  15.238  0.5383 -0.5572 -0.4014
17542TIP3   OH274116   1.806   3.774  10.542 -0.1424 -0.3691  0.2323
17542TIP3    H174117   1.884   3.828  10.556 -0.4762  0.3524 -0.5796
17542TIP3    H274118   1.764   3.768  10.628  1.6941 -2.2315  1.0959
17543TIP3   OH274119   6.514   4.583   4.527  0.7874  0.2242  0.5862
17543TIP3    H174120   6.495   4.542   4.611  0.5260  2.6874  1.7909
17543TIP3    H274121   6.443   4.554   4.469  0.1661 -0.3414  1.6160
17544TIP3   OH274122   1.484   1.600  13.945  0.6182 -0.1652 -0.0692
17544TIP3    H174123   1.557   1.540  13.960  1.0432  0.3231 -0.1678
17544TIP3    H274124   1.524   1.679  13.910 -0.0988 -0.3958 -1.4906
17545TIP3   OH274125   2.547   2.742   1.766 -0.1073 -0.7212 -0.4895
17545TIP3    H174126   2.515   2.712   1.851  0.2417 -0.9530 -0.4418
17545TIP3    H274127   2.485   2.704   1.703  0.0189 -1.1010 -0.3885
17546TIP3   OH274128   0.690   0.092   1.572 -0.6955  0.6094 -0.4544
17546TIP3    H174129   0.761   0.156   1.571  0.8994 -1.0441 -1.5926
17546TIP3    H274130   0.718   0.028   1.638 -1.2792  0.0926 -0.7077
17547TIP3   OH274131   2.848   4.867  17.148 -0.0382  0.9223 -0.1373
17547TIP3    H174132   2.816   4.947  17.191 -1.0835  1.1628 -1.3179
17547TIP3    H274133   2.937   4.889  17.121 -0.1751  1.5376 -0.0957
17548TIP3   OH274134   6.396   4.319   2.053  0.0438 -0.1218  0.2849
17548TIP3    H174135   6.370   4.259   1.984  0.0391 -0.2479  0.3964
17548TIP3    H274136   6.429   4.396   2.006 -1.1111  0.3071  0.1328
17549TIP3   OH274137   5.946   3.245   4.334 -0.0435 -0.7906 -0.0966
17549TIP3    H174138   5.992   3.328   4.323 -2.0108  0.3462 -0.1914
17549TIP3    H274139   6.008   3.189   4.380  1.2618  0.7924  0.1528
17550TIP3   OH274140   6.139   5.960  15.905 -0.0974 -0.5142 -0.2579
17550TIP3    H174141   6.159   5.874  15.941 -0.5037  0.0763  1.5191
17550TIP3    H274142   6.224   6.004  15.898 -0.1576  0.3373  2.8022
17551TIP3   OH274143   4.844   0.917  15.638  0.4239 -0.5329 -0.4909
17551TIP3    H174144   4.838   0.912  15.543  0.8973  0.1572 -0.5640
17551TIP3    H274145   4.787   0.847  15.669 -2.0015  0.9929 -1.2350
17552TIP3   OH274146   6.052   0.326   0.665 -0.2050  0.0978 -0.6633
17552TIP3    H174147   5.969   0.346   0.709  1.0078 -0.6101  2.1436
17552TIP3    H274148   6.082   0.410   0.631 -1.2620  0.6489 -0.2930
17553TIP3   OH274149   3.234   1.509   6.097 -0.1752 -0.4452  0.5503
17553TIP3    H174150   3.190   1.453   6.035 -0.3797 -2.2302  2.2197
17553TIP3    H274151   3.303   1.454   6.135 -0.4744  0.3449  2.3466
17554TIP3   OH274152   6.610   5.732   1.967  0.5848 -0.2491 -0.1111
17554TIP3    H174153   6.595   5.818   2.006 -0.2784  0.0485 -1.0522
17554TIP3    H274154   6.666   5.686   2.030 -1.6230 -0.2050  2.0275
17555TIP3   OH274155   1.294   0.739   1.103  0.0368  0.3273 -0.2048
17555TIP3    H174156   1.273   0.819   1.151 -0.2539  1.2650 -1.8004
17555TIP3    H274157   1.386   0.721   1.123 -0.0900  0.6723  0.7012
17556TIP3   OH274158   5.361   2.231   5.895 -0.2650  0.3097  0.5651
17556TIP3    H174159   5.452   2.205   5.907  0.7374  1.6527 -2.9280
17556TIP3    H274160   5.363   2.327   5.893 -1.7853  0.3694  0.6482
17557TIP3   OH274161   4.687   6.048  14.393  0.3235 -0.2123  0.1008
17557TIP3    H174162   4.764   6.101  14.414 -0.7144  0.6816  1.8599
17557TIP3    H274163   4.615   6.090  14.439 -1.5803 -0.1371 -2.6657
17558TIP3   OH274164   1.339   1.799  12.838 -0.6718  0.4653  0.2001
17558TIP3    H174165   1.308   1.739  12.769 -0.9270  0.2540  0.4944
17558TIP3    H274166   1.261   1.849  12.863 -0.4088  1.0826 -0.2023
17559TIP3   OH274167   6.342   0.591  11.182 -0.1287  0.1165 -0.1702
17559TIP3    H174168   6.248   0.608  11.178 -0.1720  0.3576  1.3211
17559TIP3    H274169   6.360   0.576  11.275  1.1515 -0.8635 -0.5489
17560TIP3   OH274170   2.064   3.802   1.686 -0.6159  0.1714  0.3633
17560TIP3    H174171   2.118   3.789   1.608  0.2908  1.8730  0.6600
17560TIP3    H274172   1.978   3.767   1.661 -0.2894  0.4639 -1.3223
17561TIP3   OH274173   6.401   2.406  15.939  0.4265  0.0385 -0.0054
17561TIP3    H174174   6.307   2.411  15.922  0.2887 -0.9649  0.4151
17561TIP3    H274175   6.424   2.494  15.969 -0.4723  0.1679  0.3397
17562TIP3   OH274176   6.275   0.637   0.648  0.2580 -0.4537 -0.1534
17562TIP3    H174177   6.276   0.652   0.743 -1.6902 -0.1433 -0.1442
17562TIP3    H274178   6.308   0.718   0.611 -1.3091  0.4026  0.2161
17563TIP3   OH274179   1.040   5.815  14.217  0.4163  0.6260 -0.0582
17563TIP3    H174180   1.039   5.793  14.310  1.6075  0.9941  0.0553
17563TIP3    H274181   0.948   5.819  14.192  0.0658  1.1697  1.2622
17564TIP3   OH274182   1.534   0.734   4.661  0.3478 -0.2094  0.4100
17564TIP3    H174183   1.465   0.797   4.644 -0.1170 -0.3040  1.7576
17564TIP3    H274184   1.576   0.720   4.577 -0.0237  1.3177 -0.0556
17565TIP3   OH274185   0.045   0.472  14.849  0.0683 -0.1799 -0.4758
17565TIP3    H174186  -0.016   0.530  14.893  0.8578  0.0889  0.3002
17565TIP3    H274187   0.129   0.487  14.893  0.0558 -2.8065  0.6402
17566TIP3   OH274188   1.450   0.879   2.338  0.2624 -0.0896  0.2879
17566TIP3    H174189   1.357   0.854   2.338 -0.0390  0.9778  1.0607
17566TIP3    H274190   1.494   0.806   2.382 -0.2598 -0.4358  0.2522
17567TIP3   OH274191   4.688   0.354   3.689  0.3326  0.2306 -0.2853
17567TIP3    H174192   4.603   0.350   3.646 -0.3628  0.7920  0.9866
17567TIP3    H274193   4.712   0.446   3.687  1.3629 -0.0471 -1.4560
17568TIP3   OH274194   4.947   3.583   3.658 -0.1652 -0.3027  0.3054
17568TIP3    H174195   5.007   3.569   3.584 -0.5606  0.0164 -0.0826
17568TIP3    H274196   4.951   3.677   3.674  1.7289 -0.6274  2.2532
17569TIP3   OH274197   0.048   6.772  13.187 -0.1101  0.5140  0.5638
17569TIP3    H174198  -0.042   6.805  13.194 -1.5763 -2.7912 -0.7784
17569TIP3    H274199   0.068   6.740  13.274 -0.4627  0.7591  0.7408
17570TIP3   OH274200   1.834   3.782   0.546  0.6319 -0.3962 -0.0145
17570TIP3    H174201   1.775   3.708   0.558  0.9832 -1.1058 -2.2540
17570TIP3    H274202   1.909   3.762   0.602  0.5634 -1.5734 -0.3181
17571TIP3   OH274203   1.512   2.167   1.140  0.2545 -0.5419 -0.3905
17571TIP3    H174204   1.571   2.103   1.180 -0.3120 -0.2961  0.8783
17571TIP3    H274205   1.519   2.245   1.195  2.2430  1.1912 -2.8768
17572TIP3   OH274206   0.841   4.353   4.116 -0.1499 -0.1906  0.5579
17572TIP3    H174207   0.890   4.341   4.035  1.3330  1.0677  1.2161
17572TIP3    H274208   0.907   4.352   4.185 -1.2359 -0.0189  1.6494
17573TIP3   OH274209   4.873   4.286   2.648 -0.0172  0.8560  0.8737
17573TIP3    H174210   4.798   4.233   2.622  1.1341 -0.0671 -0.8142
17573TIP3    H274211   4.865   4.296   2.743 -1.1240 -1.0372  1.0242
17574TIP3   OH274212   1.053   6.754  15.365 -0.1675  0.0921 -0.2483
17574TIP3    H174213   1.050   6.829  15.306  0.3300  0.0515 -0.3331
17574TIP3    H274214   1.135   6.710  15.343  0.6084  0.7136  1.2299
17575TIP3   OH274215   5.458   4.488  14.999  0.3288  0.3952 -0.6747
17575TIP3    H174216   5.403   4.414  14.972 -2.2304  1.4691  1.1352
17575TIP3    H274217   5.547   4.459  14.984 -0.5702 -2.9679 -0.2704
17576TIP3   OH274218   1.076   1.573  13.365  0.3685 -0.2076 -0.0522
17576TIP3    H174219   0.991   1.600  13.399 -0.3861 -0.8376 -1.3331
17576TIP3    H274220   1.130   1.556  13.442  0.4741  3.4498  0.8856
17577TIP3   OH274221   5.951   5.683   2.361  0.3111  0.2778  0.2691
17577TIP3    H174222   5.969   5.762   2.411  1.9406 -0.7631  1.3989
17577TIP3    H274223   6.037   5.653   2.330 -0.2247 -1.2288  0.1454
17578TIP3   OH274224   1.828   2.253   2.991  0.0722  0.6087  0.0691
17578TIP3    H174225   1.738   2.253   2.961  1.0441  1.7609 -3.2534
17578TIP3    H274226   1.876   2.304   2.925  3.2491 -0.4364  1.3575
17579TIP3   OH274227   5.833   2.066  11.171  0.2601 -0.4417 -0.2268
17579TIP3    H174228   5.837   2.134  11.239 -0.8758 -1.0885  0.5101
17579TIP3    H274229   5.922   2.031  11.166  0.2247 -0.8032  1.3697
17580TIP3   OH274230   5.876   0.134   3.955  0.2338 -0.2919 -0.1601
17580TIP3    H174231   5.928   0.100   3.882  1.9405  0.9179  0.4245
17580TIP3    H274232   5.801   0.076   3.960  1.4882 -2.0822 -1.1129
17581TIP3   OH274233   2.214   5.111   3.209  0.4015  0.5205 -1.0339
17581TIP3    H174234   2.198   5.085   3.300  0.4293  1.3580 -0.7760
17581TIP3    H274235   2.281   5.050   3.178 -0.9284 -0.9643 -1.0970
17582TIP3   OH274236   3.573   1.794   4.029 -0.6055  0.5796  0.3859
17582TIP3    H174237   3.545   1.781   4.120 -0.4681  2.4975  0.7344
17582TIP3    H274238   3.668   1.788   4.033 -0.6665 -0.9630  0.0590
17583TIP3   OH274239   5.726   0.165   5.306 -0.2185 -0.2684 -0.1607
17583TIP3    H174240   5.758   0.159   5.396  1.7539  0.4007 -0.7637
17583TIP3    H274241   5.637   0.199   5.314 -0.0538 -0.1861  1.5305
17584TIP3   OH274242   6.834   0.842   5.590  0.5627  0.4093  0.3927
17584TIP3    H174243   6.918   0.843   5.544  0.8200  1.0777  0.8749
17584TIP3    H274244   6.823   0.751   5.617 -0.5261 -0.5111 -2.6841
17585TIP3   OH274245   0.508   0.209   4.163 -0.4799 -0.3782 -0.3832
17585TIP3    H174246   0.565   0.234   4.235  0.0242  0.7189 -1.1316
17585TIP3    H274247   0.428   0.261   4.175 -0.5468 -0.4776 -0.3960
17586TIP3   OH274248   1.256   0.765  14.710  0.4165 -0.0035 -0.7225
17586TIP3    H174249   1.170   0.726  14.692  0.0992  0.9742 -1.3517
17586TIP3    H274250   1.318   0.711  14.660  0.2913 -1.2046  0.3536
17587TIP3   OH274251   4.872   2.400  16.494  0.1228  0.0212 -0.0539
17587TIP3    H174252   4.781   2.425  16.484 -0.9785 -3.7857 -1.0810
17587TIP3    H274253   4.886   2.395  16.589 -1.4119 -1.3160  0.1316
17588TIP3   OH274254   6.643   2.558   2.375  0.2561 -0.0510 -0.2460
17588TIP3    H174255   6.668   2.650   2.375 -1.3063  0.4823  2.4444
17588TIP3    H274256   6.725   2.510   2.378  1.1430  1.4220  2.2659
17589TIP3   OH274257   3.114   1.438   2.335  0.3494  0.2181  0.1460
17589TIP3    H174258   3.114   1.354   2.290 -1.7302  0.4459 -0.3671
17589TIP3    H274259   3.049   1.428   2.404 -0.8159  1.7411 -0.6720
17590TIP3   OH274260   4.479   2.344   5.311  0.3319 -0.1785 -0.0770
17590TIP3    H174261   4.432   2.422   5.340  1.2729  0.3001  0.1825
17590TIP3    H274262   4.415   2.273   5.320 -0.1694  0.3701  0.7764
17591TIP3   OH274263   6.355   2.400  17.144  0.9054 -0.6512  0.1678
17591TIP3    H174264   6.413   2.369  17.074 -1.6183  0.4451 -2.6692
17591TIP3    H274265   6.365   2.495  17.144 -1.4982 -0.2808 -1.2586
17592TIP3   OH274266   6.747   6.722  17.135  0.2992 -0.1522 -0.3159
17592TIP3    H174267   6.682   6.761  17.075  0.1724  0.0771 -0.0330
17592TIP3    H274268   6.709   6.638  17.159  0.5078 -0.3919 -0.8210
17593TIP3   OH274269   3.707   3.318  16.795 -0.3750  0.3168  0.6328
17593TIP3    H174270   3.644   3.367  16.743  0.5100  1.2452  0.3986
17593TIP3    H274271   3.706   3.230  16.759 -0.4464  0.7146 -0.3591
17594TIP3   OH274272   0.644   0.831  10.460  0.4754 -0.3337  0.2315
17594TIP3    H174273   0.553   0.822  10.435 -0.0024 -2.2633  2.3882
17594TIP3    H274274   0.687   0.753  10.425  1.4686  0.7859 -1.1822
17595TIP3   OH274275   0.663   5.282  17.118 -0.3090 -0.3745  0.1535
17595TIP3    H174276   0.623   5.226  17.053  1.4373  0.2404 -1.5389
17595TIP3    H274277   0.692   5.223  17.187 -0.4279 -1.2781 -0.5623
17596TIP3   OH274278   5.283   3.506   4.213 -0.0287 -0.8660  0.9464
17596TIP3    H174279   5.373   3.522   4.242 -0.1613 -0.9217  1.4048
17596TIP3    H274280   5.229   3.543   4.283 -0.3632 -3.6302  2.2720
17597TIP3   OH274281   3.864   3.435   1.333  0.3464  0.0634  0.2120
17597TIP3    H174282   3.956   3.455   1.345  0.7309 -1.5592  0.2464
17597TIP3    H274283   3.841   3.381   1.408  0.5755 -3.2195 -1.8611
17598TIP3   OH274284   1.056   6.276  11.927  0.0156  0.0527  0.1948
17598TIP3    H174285   1.038   6.367  11.951 -0.5639  0.1947 -0.7445
17598TIP3    H274286   1.150   6.274  11.911  0.4818 -0.0770  2.4992
17599TIP3   OH274287   2.795   5.989   5.076  0.1889  1.1790 -0.2831
17599TIP3    H174288   2.741   6.052   5.125  0.4612  1.8885 -0.8774
17599TIP3    H274289   2.795   5.911   5.131  0.9508  2.1370  1.1554
17600TIP3   OH274290   2.675   3.961   6.147 -0.0377 -0.1500 -0.4756
17600TIP3    H174291   2.625   3.989   6.070  1.2881  1.1163 -0.9315
17600TIP3    H274292   2.683   3.866   6.138  1.2988  0.1146 -2.6842
17601TIP3   OH274293   0.608   6.061  16.211 -0.0668  0.5956  0.1514
17601TIP3    H174294   0.542   6.128  16.196 -0.8678  1.2312  4.9305
17601TIP3    H274295   0.690   6.110  16.218  0.1234  0.4334 -0.7747
17602TIP3   OH274296   3.933   2.261   4.679  0.4979 -0.6323  0.3007
17602TIP3    H174297   3.887   2.328   4.729 -0.0267  0.0331 -1.0418
17602TIP3    H274298   4.025   2.285   4.686  0.2194  1.0666 -1.2920
17603TIP3   OH274299   0.608   3.400   1.200  0.5348 -0.7780 -0.5635
17603TIP3    H174300   0.663   3.454   1.256  0.3922 -0.4937 -0.6901
17603TIP3    H274301   0.625   3.310   1.227 -1.5597 -0.5564  1.8395
17604TIP3   OH274302   6.306   2.727   5.834  0.3957  0.1380 -0.2096
17604TIP3    H174303   6.308   2.744   5.928 -3.8756  0.2502  0.0187
17604TIP3    H274304   6.278   2.810   5.795  1.6295 -0.0422 -1.6199
17605TIP3   OH274305   2.783   1.480  13.089 -0.1115 -0.5012  0.0493
17605TIP3    H174306   2.761   1.524  13.171 -1.0818 -0.0871 -0.4063
17605TIP3    H274307   2.843   1.410  13.114 -1.0976 -0.9648  1.2529
17606TIP3   OH274308   4.287   4.862  13.700 -0.1326 -0.4214 -0.3607
17606TIP3    H174309   4.192   4.858  13.703 -0.1206 -0.4323  1.9182
17606TIP3    H274310   4.310   4.937  13.755  1.1851 -0.7594 -0.4087
17607TIP3   OH274311   5.530   6.577   3.660 -0.5390  0.3175  0.0818
17607TIP3    H174312   5.448   6.610   3.698 -0.8580 -0.7332  0.3412
17607TIP3    H274313   5.578   6.542   3.735 -0.1118  0.3842 -0.1568
17608TIP3   OH274314   3.957   4.881  11.852 -0.3664  0.1934  0.1737
17608TIP3    H174315   3.962   4.976  11.855 -0.8305  0.1962  1.7764
17608TIP3    H274316   3.873   4.862  11.811 -0.4992  0.4683  0.3197
17609TIP3   OH274317   6.160   3.792   1.990  0.2175 -0.7776  0.1472
17609TIP3    H174318   6.135   3.875   1.950  1.1642 -0.8296 -0.5862
17609TIP3    H274319   6.182   3.735   1.917  2.2157 -0.7957  0.6921
17610TIP3   OH274320   3.831   1.628  13.470  0.0208 -0.2139  0.2083
17610TIP3    H174321   3.859   1.538  13.452 -2.3382 -0.8516 -0.7120
17610TIP3    H274322   3.846   1.640  13.563  1.5286 -1.1129  0.1109
17611TIP3   OH274323   4.457   1.969   0.549  0.2512  0.6447 -0.0567
17611TIP3    H174324   4.477   1.891   0.497  0.3727  0.2320  0.6079
17611TIP3    H274325   4.379   2.006   0.508  1.0084  0.9793 -1.2602
17612TIP3   OH274326   0.196   5.655  10.701 -0.1331 -0.1827  0.5454
17612TIP3    H174327   0.283   5.679  10.669 -0.6529 -0.2933 -1.0493
17612TIP3    H274328   0.161   5.597  10.633 -1.4234 -0.2027  1.1989
17613TIP3   OH274329   6.445   5.750  15.290  0.4073 -0.3449  0.3137
17613TIP3    H174330   6.378   5.682  15.281  2.5542 -2.4132 -1.0910
17613TIP3    H274331   6.418   5.818  15.228 -0.6783 -0.8392  0.2167
17614TIP3   OH274332   3.276   3.088   5.968  0.0521  0.6242 -0.4577
17614TIP3    H174333   3.295   3.088   6.061 -1.4152  0.4406 -0.1424
17614TIP3    H274334   3.301   3.000   5.939 -1.3203 -0.0041  0.1795
17615TIP3   OH274335   3.361   3.948  15.819 -0.0557  0.3001  0.2721
17615TIP3    H174336   3.328   3.863  15.792 -0.3707  0.8455 -1.1246
17615TIP3    H274337   3.426   3.928  15.887 -0.3764 -1.0157  0.2116
17616TIP3   OH274338   0.225   6.185   0.524 -0.0278 -0.0359 -0.1707
17616TIP3    H174339   0.288   6.213   0.458  0.6710 -4.1611 -1.5736
17616TIP3    H274340   0.278   6.164   0.601 -0.3675  1.1832  0.4117
17617TIP3   OH274341   0.013   6.265   2.431  0.3385  0.3857  0.0256
17617TIP3    H174342  -0.044   6.249   2.506 -0.8052  0.9801 -0.6848
17617TIP3    H274343   0.060   6.182   2.419 -1.2733 -0.5664 -0.0856
17618TIP3   OH274344   3.724   2.886   1.014  0.1385  0.0006  0.3262
17618TIP3    H174345   3.650   2.946   1.000  0.5222  0.4567  0.2469
17618TIP3    H274346   3.795   2.942   1.046  0.3463 -0.4905  0.7389
17619TIP3   OH274347   0.092   3.024  13.628  0.4734  0.4212  0.6675
17619TIP3    H174348   0.166   3.064  13.673  0.9133  0.5310 -0.1355
17619TIP3    H274349   0.066   3.089  13.563  2.3035 -1.1973 -1.8504
17620TIP3   OH274350   1.578   6.200  15.151 -0.2072  0.0969 -0.2330
17620TIP3    H174351   1.631   6.122  15.132  1.0555  1.0343 -0.7713
17620TIP3    H274352   1.643   6.269  15.165 -1.2709  1.6507 -2.4286
17621TIP3   OH274353   0.987   2.492   5.302 -0.5017  0.0861  0.2798
17621TIP3    H174354   0.941   2.427   5.355  1.4299 -0.1025  1.7985
17621TIP3    H274355   1.046   2.536   5.363  1.4036  0.2640 -1.5831
17622TIP3   OH274356   1.878   4.552   1.218  0.3635  0.1620 -0.0981
17622TIP3    H174357   1.803   4.496   1.241  2.8373 -2.6950  1.8145
17622TIP3    H274358   1.902   4.526   1.129 -0.6602  0.9019 -0.6168
17623TIP3   OH274359   3.646   5.499   0.600  0.1276 -0.1295 -0.0430
17623TIP3    H174360   3.587   5.460   0.536  1.0450 -0.2406 -0.8446
17623TIP3    H274361   3.605   5.582   0.623 -0.8064 -0.6219  0.1315
17624TIP3   OH274362   4.835   0.588   3.632 -0.1312  0.1781 -0.4294
17624TIP3    H174363   4.763   0.629   3.679 -0.9916 -0.0918 -1.4818
17624TIP3    H274364   4.912   0.640   3.655 -0.8816  1.2469 -0.2988
17625TIP3   OH274365   4.878   0.887  12.260 -0.1612 -0.3667  0.2869
17625TIP3    H174366   4.964   0.921  12.284 -0.6258  1.0305  0.0223
17625TIP3    H274367   4.897   0.813  12.202  0.8591  1.3716 -1.6917
17626TIP3   OH274368   5.364   4.384   5.236 -0.8232 -0.2032 -0.1133
17626TIP3    H174369   5.275   4.352   5.221 -1.1643  0.8349 -0.3574
17626TIP3    H274370   5.361   4.477   5.212 -0.0507  0.2113  1.2758
17627TIP3   OH274371   4.601   3.015   2.452  0.3193 -0.1578 -0.1967
17627TIP3    H174372   4.576   3.032   2.361  0.3011 -1.5557 -0.4725
17627TIP3    H274373   4.641   2.928   2.450 -0.0768 -0.3905  1.2109
17628TIP3   OH274374   6.566   2.233   5.084 -0.1993 -0.3117 -0.4836
17628TIP3    H174375   6.553   2.238   5.179  0.9502 -0.7157 -0.2902
17628TIP3    H274376   6.626   2.306   5.065  0.4067 -0.8727 -0.7355
17629TIP3   OH274377   4.948   3.231  12.549  0.1054 -0.2557 -0.1295
17629TIP3    H174378   5.034   3.234  12.509  0.7373  0.3110  1.2069
17629TIP3    H274379   4.889   3.207  12.478  1.0570  1.4841 -1.5839
17630TIP3   OH274380   4.003   0.309   5.769  0.1211 -0.4916 -0.1002
17630TIP3    H174381   3.953   0.242   5.722 -0.0272 -0.9377  0.6729
17630TIP3    H274382   3.938   0.375   5.793 -0.7418 -2.3423  3.2661
17631TIP3   OH274383   2.900   0.091   4.260 -0.0036 -0.5598 -0.1309
17631TIP3    H174384   2.910   0.159   4.326 -0.4455 -1.5863  1.0482
17631TIP3    H274385   2.921   0.133   4.177  5.5141 -0.3131  1.0337
17632TIP3   OH274386   4.213   2.360   3.312 -0.8000 -0.1402 -0.2611
17632TIP3    H174387   4.243   2.350   3.221 -0.5101 -1.2497 -0.0592
17632TIP3    H274388   4.141   2.424   3.306 -0.4390  0.2026 -1.1911
17633TIP3   OH274389   1.332   1.418  13.804  0.1509  0.1038 -0.3094
17633TIP3    H174390   1.398   1.470  13.849  0.7420 -1.5095  0.7372
17633TIP3    H274391   1.321   1.339  13.857 -0.8364 -0.8007 -1.7572
17634TIP3   OH274392   4.972   3.333  17.056  0.5563 -0.2941 -0.7223
17634TIP3    H174393   5.031   3.368  16.989  0.2816 -1.2000 -1.4499
17634TIP3    H274394   4.953   3.244  17.028  0.7386 -0.8267  0.7791
17635TIP3   OH274395   0.466   6.342   0.984 -0.4295 -0.1310 -0.1433
17635TIP3    H174396   0.505   6.390   1.056  1.4764  0.1065 -1.2772
17635TIP3    H274397   0.466   6.251   1.013 -0.7115  0.0857  0.5682
17636TIP3   OH274398   1.694   4.173  14.757 -0.1203 -0.0519  0.5258
17636TIP3    H174399   1.762   4.240  14.767  1.6121 -1.6044 -0.2484
17636TIP3    H274400   1.641   4.181  14.836 -2.1056  4.3745 -0.9691
17637TIP3   OH274401   3.330   2.197  16.277 -0.3509 -0.1774 -0.8137
17637TIP3    H174402   3.325   2.118  16.223 -0.2032  0.2465 -1.4510
17637TIP3    H274403   3.410   2.185  16.328 -0.1041 -0.2433 -1.2149
17638TIP3   OH274404   6.564   4.221   4.102 -0.1516  0.2089 -0.0630
17638TIP3    H174405   6.498   4.247   4.168 -0.0506 -0.3923  0.2849
17638TIP3    H274406   6.512   4.187   4.029 -0.2188 -0.8991  0.4878
17639TIP3   OH274407   4.135   5.253  15.659  0.2809 -0.2821  0.4027
17639TIP3    H174408   4.180   5.334  15.683  0.2805 -0.4254  0.9130
17639TIP3    H274409   4.050   5.259  15.703 -0.3431  0.1440 -0.8346
17640TIP3   OH274410   5.358   1.948  11.240 -0.1411 -0.2474 -0.2596
17640TIP3    H174411   5.448   1.917  11.237 -0.3779 -0.9294 -0.7022
17640TIP3    H274412   5.315   1.903  11.167 -0.8506  0.0173 -0.0138
17641TIP3   OH274413   5.794   2.551  11.394  0.7388 -0.6376  0.3781
17641TIP3    H174414   5.872   2.540  11.339  0.6403  0.5585 -0.0365
17641TIP3    H274415   5.723   2.514  11.342  0.7534 -0.1133 -0.0196
17642TIP3   OH274416   2.188   5.138   1.868 -0.5076 -0.0596 -0.7667
17642TIP3    H174417   2.110   5.148   1.921  0.5683 -1.7839  1.3037
17642TIP3    H274418   2.248   5.205   1.900  0.4280 -1.5902  0.9017
17643TIP3   OH274419   5.680   2.092   1.171  0.2036 -0.0048  0.1965
17643TIP3    H174420   5.653   2.158   1.235 -1.4458 -0.6086  0.1563
17643TIP3    H274421   5.757   2.131   1.128  0.3548  1.1011  1.4059
17644TIP3   OH274422   3.996   6.784   3.695 -0.0410 -0.0736  0.0677
17644TIP3    H174423   3.919   6.736   3.726  1.1309 -1.4549  1.0077
17644TIP3    H274424   3.965   6.873   3.679 -2.3564 -1.1313 -1.9115
17645TIP3   OH274425   3.797   4.146  12.980 -0.5505  0.2388 -0.1049
17645TIP3    H174426   3.806   4.110  13.068  1.0604  0.2046 -0.2453
17645TIP3    H274427   3.782   4.239  12.994 -2.0768 -0.0317  0.2147
17646TIP3   OH274428   2.856   5.803  13.570 -0.2282 -0.5189 -0.7378
17646TIP3    H174429   2.878   5.766  13.655 -0.0134 -0.5102 -0.7880
17646TIP3    H274430   2.865   5.729  13.509 -0.0228 -0.4406 -0.8046
17647TIP3   OH274431   3.156   5.522  11.529  0.1697  0.7146 -0.2611
17647TIP3    H174432   3.069   5.511  11.492  0.5402 -1.0932 -0.6733
17647TIP3    H274433   3.210   5.549  11.454  0.4728 -0.7845 -0.6144
17648TIP3   OH274434   1.241   5.931  13.172 -0.4667  0.0150 -0.1283
17648TIP3    H174435   1.224   6.002  13.234 -2.6090 -1.9516  1.7319
17648TIP3    H274436   1.158   5.918  13.127  0.3249 -0.3557 -1.5195
17649TIP3   OH274437   5.457   6.131   1.478 -0.7090 -0.9508  0.2407
17649TIP3    H174438   5.404   6.101   1.551 -0.7672 -2.4378 -0.3833
17649TIP3    H274439   5.396   6.137   1.404 -0.1710 -1.9326 -0.2976
17650TIP3   OH274440   2.539   2.005   2.692  0.2041  0.1501  0.2283
17650TIP3    H174441   2.533   1.916   2.725  4.1818 -0.2997  0.2058
17650TIP3    H274442   2.517   2.060   2.768 -2.4164 -0.7273  0.1964
17651TIP3   OH274443   5.451   1.389   5.758  0.2624 -0.0638 -0.6607
17651TIP3    H174444   5.518   1.407   5.824 -0.5902 -0.2448  0.2879
17651TIP3    H274445   5.443   1.294   5.757 -1.1656 -0.0010  0.5158
17652TIP3   OH274446   2.103   4.281  16.568  0.1462  0.1294 -0.0386
17652TIP3    H174447   2.084   4.271  16.661 -1.1836  0.5484 -0.2511
17652TIP3    H274448   2.149   4.365  16.562  0.9266 -0.2644  0.3230
17653TIP3   OH274449   2.877   6.303   3.773 -0.5533  0.3621 -0.6220
17653TIP3    H174450   2.805   6.261   3.819  1.0789 -0.0784  1.7365
17653TIP3    H274451   2.951   6.243   3.784  0.8307  1.9752 -0.6560
17654TIP3   OH274452   5.756   4.308  10.819 -0.2629  0.2983  0.7158
17654TIP3    H174453   5.776   4.279  10.730 -0.6487 -0.6451  0.9225
17654TIP3    H274454   5.842   4.327  10.858 -0.0144 -0.3177  0.4795
17655TIP3   OH274455   6.420   4.874   5.687  0.5465 -0.0240 -0.5368
17655TIP3    H174456   6.374   4.848   5.768 -1.5711  1.0277 -1.3198
17655TIP3    H274457   6.434   4.791   5.640 -0.8224 -0.3837 -0.3652
17656TIP3   OH274458   0.735   2.891   1.306  0.2316  0.0294  0.9157
17656TIP3    H174459   0.783   2.844   1.375 -0.3453 -0.3191  1.0862
17656TIP3    H274460   0.794   2.889   1.231  0.4950 -0.3816  1.1284
17657TIP3   OH274461   1.119   4.377  14.776  0.1524 -0.4242  0.3846
17657TIP3    H174462   1.164   4.430  14.710  0.5997 -1.5648 -0.2583
17657TIP3    H274463   1.185   4.316  14.807 -0.6500 -1.3756  0.2647
17658TIP3   OH274464   5.201   0.905   2.186  0.5392 -0.0210 -0.4344
17658TIP3    H174465   5.283   0.867   2.156  0.3331  0.4049 -1.5840
17658TIP3    H274466   5.210   0.999   2.169 -0.2816 -0.0055 -0.8169
17659TIP3   OH274467   0.000   2.628  13.371  0.2402  0.0006 -0.1431
17659TIP3    H174468   0.053   2.627  13.292  0.9907  1.6073  0.2954
17659TIP3    H274469   0.061   2.656  13.440 -1.3102  2.8784  0.2096
17660TIP3   OH274470   4.251   3.863   5.371 -0.0356 -0.1531 -0.1145
17660TIP3    H174471   4.268   3.841   5.463  0.5568 -1.5660 -0.5343
17660TIP3    H274472   4.188   3.798   5.342  1.3802 -1.0851 -1.2659
17661TIP3   OH274473   5.980   2.232  11.649 -0.1027 -0.4026 -0.8588
17661TIP3    H174474   5.994   2.322  11.678  1.1401 -0.8340  0.0068
17661TIP3    H274475   5.921   2.195  11.715  0.1791 -0.4813 -0.6437
17662TIP3   OH274476   3.645   6.369  14.071  0.0750  0.0168 -0.5857
17662TIP3    H174477   3.622   6.462  14.065 -0.4769 -0.0755 -0.0782
17662TIP3    H274478   3.737   6.365  14.047  0.0101  0.6472 -0.9696
17663TIP3   OH274479   1.519   3.847   4.168  0.5381 -0.6023 -0.4660
17663TIP3    H174480   1.556   3.814   4.086 -1.4697  3.5934 -3.4504
17663TIP3    H274481   1.589   3.901   4.206  0.8930 -1.1304 -0.3633
17664TIP3   OH274482   5.970   4.426   3.074  0.1875 -0.2277  0.5287
17664TIP3    H174483   5.958   4.518   3.050  1.1332 -0.2729 -0.1861
17664TIP3    H274484   5.892   4.382   3.040  0.7284 -0.0176 -1.0737
17665TIP3   OH274485   2.887   3.807  14.845  0.0701  0.1140  0.1014
17665TIP3    H174486   2.843   3.764  14.918 -0.4797  0.0562 -0.2628
17665TIP3    H274487   2.948   3.741  14.812 -0.3091 -0.1686 -0.0437
17666TIP3   OH274488   4.500   4.707  17.026  0.0655  0.0055  0.3039
17666TIP3    H174489   4.477   4.699  17.118  0.5740 -0.6354  0.3811
17666TIP3    H274490   4.585   4.751  17.026  0.0116  0.1125  0.1342
17667TIP3   OH274491   4.468   2.701  12.744 -0.2405  0.1278 -0.4590
17667TIP3    H174492   4.409   2.638  12.786  1.6138  0.1838  2.4834
17667TIP3    H274493   4.422   2.784  12.750 -2.0544 -0.5680 -3.0223
17668TIP3   OH274494   4.673   1.181   4.531  0.0876  0.0102  0.0416
17668TIP3    H174495   4.684   1.276   4.541 -0.9697  0.5100 -2.6884
17668TIP3    H274496   4.579   1.167   4.538  0.0879 -0.5989 -0.9801
17669TIP3   OH274497   6.015   3.183  16.036 -0.0663  0.2240 -0.0826
17669TIP3    H174498   5.939   3.170  15.979 -1.8027 -1.2890  2.3644
17669TIP3    H274499   6.014   3.276  16.056 -1.1968  0.2606 -0.2214
17670TIP3   OH274500   5.857   3.847   3.261  0.2358 -0.2190  0.7625
17670TIP3    H174501   5.853   3.843   3.165  1.8020  0.9363  0.6237
17670TIP3    H274502   5.773   3.810   3.289 -0.4446 -0.1769 -1.0530
17671TIP3   OH274503   5.609   0.776   1.716  0.3552  0.2842 -0.3826
17671TIP3    H174504   5.562   0.824   1.783  1.6772  3.1203 -1.3399
17671TIP3    H274505   5.575   0.809   1.633 -0.0579 -1.9325 -1.1861
17672TIP3   OH274506   4.406   3.753   1.186  1.2916 -0.2070 -0.1498
17672TIP3    H174507   4.354   3.719   1.259  0.0950  2.6768  0.4931
17672TIP3    H274508   4.429   3.676   1.135 -1.9055 -1.8778  0.6747
17673TIP3   OH274509   3.298   3.934  10.299 -0.3874  0.3977 -0.4868
17673TIP3    H174510   3.223   3.898  10.347 -0.2556  1.0580  0.2334
17673TIP3    H274511   3.369   3.872  10.316 -0.5335  0.2450 -0.4286
17674TIP3   OH274512   6.521   4.356  10.423 -0.5359  0.2318 -0.3660
17674TIP3    H174513   6.458   4.420  10.390 -1.2428 -0.7712 -0.9987
17674TIP3    H274514   6.555   4.313  10.344  0.3433  0.2001  0.0190
17675TIP3   OH274515   4.234   0.957  13.650 -0.7498  0.4632  0.1890
17675TIP3    H174516   4.295   1.026  13.675  0.8175 -0.5194 -0.7368
17675TIP3    H274517   4.290   0.881  13.633 -2.1967 -0.3711 -1.1090
17676TIP3   OH274518   2.562   5.829   2.603 -0.1590  0.0170 -0.4305
17676TIP3    H174519   2.481   5.877   2.620  0.6260  0.8978  0.9811
17676TIP3    H274520   2.622   5.895   2.568  1.0577  0.2367  1.8957
17677TIP3   OH274521   5.104   6.606   1.008 -0.7646  0.2828 -0.5550
17677TIP3    H174522   5.113   6.524   1.058  0.1803  1.0974  0.6705
17677TIP3    H274523   5.137   6.585   0.921  1.1512 -0.2130  0.2470
17678TIP3   OH274524   4.915   1.009   5.708 -0.6014 -0.0468  0.1033
17678TIP3    H174525   4.926   0.918   5.736 -0.3940  0.3443  1.3368
17678TIP3    H274526   5.003   1.045   5.704 -0.6807  0.1091 -0.4020
17679TIP3   OH274527   4.541   2.824   4.429 -0.0442 -0.0062 -0.5095
17679TIP3    H174528   4.560   2.913   4.457  1.1221  0.0364 -1.3306
17679TIP3    H274529   4.493   2.785   4.501  2.1249  0.3383  1.2316
17680TIP3   OH274530   4.028   2.887  15.752  0.4190  0.2578  0.5816
17680TIP3    H174531   4.102   2.928  15.797  0.1153  1.7561 -0.2143
17680TIP3    H274532   3.951   2.931  15.788 -0.1533 -1.4994  1.6245
17681TIP3   OH274533   3.078   3.395   4.855  0.2389  0.3019  0.1936
17681TIP3    H174534   3.171   3.410   4.838 -0.0933  3.0085  0.3195
17681TIP3    H274535   3.036   3.406   4.769  0.0000 -0.8285  0.1515
17682TIP3   OH274536   0.105   4.656   2.380 -0.0496 -0.2649 -0.0516
17682TIP3    H174537   0.047   4.582   2.361  0.4081 -1.1556  1.8545
17682TIP3    H274538   0.068   4.728   2.329 -0.6673 -1.6932 -1.7631
17683TIP3   OH274539   2.421   3.829   1.238 -0.0431  0.4930 -0.2829
17683TIP3    H174540   2.480   3.756   1.254 -0.2162  0.2650 -0.6720
17683TIP3    H274541   2.479   3.903   1.220  0.1337  0.4770  0.2154
17684TIP3   OH274542   5.896   5.258   1.479 -0.5716 -0.0284 -0.3683
17684TIP3    H174543   5.969   5.281   1.537 -0.6384 -0.2032 -0.2136
17684TIP3    H274544   5.935   5.251   1.393 -0.6921  1.5421 -0.5868
17685TIP3   OH274545   3.133   4.252  13.219  0.0408 -0.5947  0.3794
17685TIP3    H174546   3.221   4.289  13.211  1.4971 -3.2553  2.3673
17685TIP3    H274547   3.120   4.241  13.313 -1.3185 -2.5488  0.0348
17686TIP3   OH274548   0.716   0.745  10.131 -0.5322  0.0309 -0.4168
17686TIP3    H174549   0.807   0.769  10.114 -0.7485  0.1351 -1.4686
17686TIP3    H274550   0.719   0.699  10.215  0.6266 -0.7859 -0.8815
17687TIP3   OH274551   4.411   3.673   5.106  0.1829 -0.4290 -0.0320
17687TIP3    H174552   4.397   3.648   5.197  0.8659  1.0916  0.5195
17687TIP3    H274553   4.416   3.769   5.107  0.4268 -0.3900 -1.6324
17688TIP3   OH274554   1.160   4.870  15.168  0.0931 -0.0185 -0.3197
17688TIP3    H174555   1.121   4.930  15.104  1.6978  0.5305 -0.8318
17688TIP3    H274556   1.224   4.923  15.216 -1.7258 -0.1585  2.4727
17689TIP3   OH274557   6.555   4.453   1.073  0.3602  0.0864 -0.1672
17689TIP3    H174558   6.648   4.454   1.052  0.4626 -1.6240  0.0901
17689TIP3    H274559   6.551   4.433   1.167 -0.2573 -0.3900 -0.2834
17690TIP3   OH274560   0.591   5.625   5.337  0.0435  0.0421 -0.0520
17690TIP3    H174561   0.517   5.656   5.285 -0.2477  0.4352  0.5861
17690TIP3    H274562   0.612   5.698   5.395  0.3867 -0.3784  0.3603
17691TIP3   OH274563   5.684   3.109  17.075  0.2194 -0.1502 -0.9102
17691TIP3    H174564   5.608   3.160  17.050  1.0024  1.4769 -0.1318
17691TIP3    H274565   5.745   3.118  17.002  0.3448 -0.0013 -0.7874
17692TIP3   OH274566   1.004   1.301  11.692  0.7191 -0.0334 -0.3520
17692TIP3    H174567   0.914   1.329  11.710  1.3875  2.8136 -0.8659
17692TIP3    H274568   1.025   1.343  11.608  2.0970 -1.7661 -0.9234
17693TIP3   OH274569   0.270   3.151   0.461  0.0377  0.2014 -0.3092
17693TIP3    H174570   0.203   3.090   0.491 -0.8433  1.1750 -0.2303
17693TIP3    H274571   0.223   3.233   0.446  1.2326  0.9548 -0.1027
17694TIP3   OH274572   4.038   3.794   1.953  0.2585  0.1408 -0.0813
17694TIP3    H174573   4.109   3.736   1.927  1.3362  1.3712 -0.0088
17694TIP3    H274574   4.077   3.882   1.952 -1.3183  0.8823 -0.2551
17695TIP3   OH274575   5.815   0.042  12.163  0.2451  0.3851  0.3616
17695TIP3    H174576   5.840   0.064  12.253  0.8721  0.6563  0.1274
17695TIP3    H274577   5.877   0.091  12.108  1.7904 -2.0027 -0.1914
17696TIP3   OH274578   5.537   1.363   2.898 -0.4172 -0.0776  0.6741
17696TIP3    H174579   5.535   1.333   2.807 -1.5773 -0.3217  0.7658
17696TIP3    H274580   5.474   1.435   2.900  1.3804  1.5881  0.7445
17697TIP3   OH274581   3.188   4.904  11.353 -0.0290 -0.2991  0.1076
17697TIP3    H174582   3.100   4.866  11.353 -0.3920  0.5023 -0.4431
17697TIP3    H274583   3.186   4.968  11.425 -1.1174  2.3063 -2.0410
17698TIP3   OH274584   4.626   5.664  16.002  0.2671 -0.4461 -0.4346
17698TIP3    H174585   4.542   5.706  15.985  1.0850  0.3967 -2.8692
17698TIP3    H274586   4.610   5.570  15.989 -0.9048 -0.6643  2.1040
17699TIP3   OH274587   5.066   6.475  10.999 -0.2205  0.3754  0.1094
17699TIP3    H174588   5.027   6.518  10.922 -2.2747 -1.0851  0.2672
17699TIP3    H274589   5.017   6.510  11.073  1.1954  1.1456  0.7150
17700TIP3   OH274590   6.083   6.631  15.081  0.2891 -0.0648 -0.0872
17700TIP3    H174591   6.115   6.594  14.999  0.9234 -1.4166  0.7283
17700TIP3    H274592   6.072   6.555  15.139 -1.3659  0.7183  0.6865
17701TIP3   OH274593   3.450   1.372  17.086  0.0130  0.5388 -0.2450
17701TIP3    H174594   3.372   1.337  17.045 -0.4015  1.4240 -0.2241
17701TIP3    H274595   3.497   1.295  17.118 -1.0102  0.0196  0.0414
17702TIP3   OH274596   1.194   4.204  12.991  0.2831  0.3139  0.0200
17702TIP3    H174597   1.233   4.117  12.985  0.7326  0.5677 -0.9638
17702TIP3    H274598   1.141   4.213  12.912 -0.6209  0.5397  0.6338
17703TIP3   OH274599   0.036   6.060  15.063  0.5636  0.1160  0.1486
17703TIP3    H174600   0.045   5.980  15.011 -0.7044 -0.1261  0.2607
17703TIP3    H274601   0.110   6.059  15.123  0.0351 -1.5022  0.8255
17704TIP3   OH274602   1.214   1.968   0.928  0.3914  0.4501  0.1300
17704TIP3    H174603   1.205   1.948   0.835  0.9307  0.7493  0.0053
17704TIP3    H274604   1.284   1.909   0.957  0.3147  0.4529  0.3169
17705TIP3   OH274605   3.772   1.943   5.320 -0.0290  0.0952 -0.2243
17705TIP3    H174606   3.697   2.002   5.308  0.2584  0.4381 -0.3596
17705TIP3    H274607   3.744   1.861   5.280 -0.5388  0.0522  0.2148
17706TIP3   OH274608   0.094   6.354   0.733 -0.7230 -0.3546 -0.6120
17706TIP3    H174609   0.088   6.260   0.714 -1.1524 -0.3200 -0.6555
17706TIP3    H274610   0.016   6.391   0.693 -0.9985 -0.0994  0.1437
17707TIP3   OH274611   4.702   1.320  13.954  0.0099  0.7183  0.3820
17707TIP3    H174612   4.762   1.367  13.896  0.0120  1.1502  0.7284
17707TIP3    H274613   4.622   1.311  13.903  0.5497 -0.3866 -0.3061
17708TIP3   OH274614   6.066   6.721  12.090 -0.0987 -0.2499 -0.3860
17708TIP3    H174615   5.985   6.672  12.074  0.0461 -0.1025 -1.6286
17708TIP3    H274616   6.047   6.810  12.059  0.9124 -0.5142 -1.8717
17709TIP3   OH274617   2.634   4.894  15.182 -0.2083 -0.0365  0.1275
17709TIP3    H174618   2.709   4.843  15.151 -0.2840  0.3990 -0.8022
17709TIP3    H274619   2.587   4.834  15.240  2.1931  0.4480  2.8550
17710TIP3   OH274620   1.084   1.347  16.607  0.5126  0.1276  0.1807
17710TIP3    H174621   1.065   1.303  16.524  0.4237  0.1521  0.1884
17710TIP3    H274622   1.165   1.305  16.638  1.2761  1.0105 -0.5564
17711TIP3   OH274623   6.022   1.097  12.481 -0.2624 -0.7700  0.0016
17711TIP3    H174624   5.928   1.109  12.496 -0.4142 -1.3354 -0.4704
17711TIP3    H274625   6.031   1.004  12.461  0.6495 -1.1424  1.8734
17712TIP3   OH274626   1.554   2.099   0.338 -0.2672  0.2601  0.8384
17712TIP3    H174627   1.617   2.028   0.342 -0.6235 -0.0912  0.3216
17712TIP3    H274628   1.571   2.151   0.417  0.9985  0.4548  0.4545
17713TIP3   OH274629   0.999   0.611   5.878 -0.4011 -0.1819  0.0156
17713TIP3    H174630   0.925   0.551   5.885 -0.0584 -0.6638 -0.3815
17713TIP3    H274631   0.979   0.665   5.802 -0.9442  0.5586  0.6595
17714TIP3   OH274632   1.226   2.833  11.955  0.2106 -0.3264 -0.4508
17714TIP3    H174633   1.260   2.897  11.892 -1.7789  2.0419  0.6639
17714TIP3    H274634   1.133   2.825  11.932  0.1391 -1.8125  0.2839
17715TIP3   OH274635   0.995   1.112  11.950  0.0872 -0.5148  0.2818
17715TIP3    H174636   0.901   1.109  11.932  0.1670  2.8802 -1.3895
17715TIP3    H274637   1.004   1.179  12.018  1.4605  2.0287 -2.2066
17716TIP3   OH274638   5.544   4.071   2.891 -0.0064  0.2015 -0.4323
17716TIP3    H174639   5.598   4.142   2.856  1.1369 -1.4055 -2.1233
17716TIP3    H274640   5.485   4.048   2.818 -0.1287 -0.7992 -0.0315
17717TIP3   OH274641   5.149   3.831   2.496  0.2995  0.1030 -0.3139
17717TIP3    H174642   5.243   3.814   2.491 -0.0113 -1.5833 -0.8808
17717TIP3    H274643   5.143   3.918   2.535  2.0738 -0.0984  0.5035
17718TIP3   OH274644   2.500   2.856   0.350 -0.0259  0.6741 -0.2384
17718TIP3    H174645   2.448   2.901   0.284  1.1806 -0.3632 -1.9818
17718TIP3    H274646   2.439   2.796   0.393 -0.9515  1.7780  0.0256
17719TIP3   OH274647   6.173   1.885  13.788 -0.3708  0.1939 -0.3432
17719TIP3    H174648   6.137   1.802  13.758 -1.6279  0.9912 -1.1211
17719TIP3    H274649   6.124   1.904  13.868 -1.6737  1.2280 -1.3452
17720TIP3   OH274650   4.806   1.945   1.733  0.0058 -0.4640  0.3174
17720TIP3    H174651   4.773   1.934   1.822  1.3358  3.0524  1.4129
17720TIP3    H274652   4.739   1.904   1.678 -2.9549  0.7224  2.7376
17721TIP3   OH274653   6.081   4.446   5.116 -0.9823 -0.1513 -0.4321
17721TIP3    H174654   6.089   4.352   5.133 -0.7409 -0.2242 -0.9133
17721TIP3    H274655   6.004   4.454   5.059 -1.1556 -0.0311 -0.1791
17722TIP3   OH274656   3.131   6.027   1.505  0.1352  0.2195 -0.3652
17722TIP3    H174657   3.046   6.069   1.522  0.6085  2.9795 -3.7591
17722TIP3    H274658   3.187   6.059   1.575 -0.8053  1.0914  0.0237
17723TIP3   OH274659   4.672   2.110   0.608  0.4724  0.1827  0.7991
17723TIP3    H174660   4.717   2.037   0.650  2.1442  0.9711  0.4401
17723TIP3    H274661   4.599   2.069   0.561  1.9205 -1.3963 -0.1728
17724TIP3   OH274662   4.191   4.070   3.830  0.0555 -0.0861 -0.1760
17724TIP3    H174663   4.175   3.976   3.841  0.2807 -0.1815 -0.6231
17724TIP3    H274664   4.213   4.079   3.737 -0.7559  0.5217 -0.3144
17725TIP3   OH274665   0.822   1.396   0.702 -0.0296  0.2867  0.3453
17725TIP3    H174666   0.780   1.429   0.782 -0.1790 -0.1614  0.4581
17725TIP3    H274667   0.770   1.433   0.631  0.5548  1.2930  0.4314
17726TIP3   OH274668   1.288   6.495   5.090  0.3071  0.3109  0.3488
17726TIP3    H174669   1.258   6.431   5.154  0.1873  1.9143  1.9863
17726TIP3    H274670   1.218   6.559   5.085  0.9658  1.0167 -0.2419
17727TIP3   OH274671   6.121   3.965   4.944  0.9108  0.1388  0.9487
17727TIP3    H174672   6.036   4.009   4.936  0.1472 -1.5759 -2.5396
17727TIP3    H274673   6.104   3.891   5.002  0.5536  0.8312  1.7507
17728TIP3   OH274674   6.753   5.604  15.198  0.1562  0.3917 -0.2365
17728TIP3    H174675   6.732   5.666  15.128 -1.5376 -0.0838 -0.1998
17728TIP3    H274676   6.732   5.651  15.279 -0.1285  0.1366 -0.1620
17729TIP3   OH274677   0.448   5.651   3.573  0.4835 -0.6398  0.2193
17729TIP3    H174678   0.510   5.711   3.614  2.1331 -1.9820 -0.2296
17729TIP3    H274679   0.440   5.578   3.636 -1.8543  0.1836  0.9782
17730TIP3   OH274680   6.130   5.448  15.001  0.6545 -0.3263 -0.4218
17730TIP3    H174681   6.195   5.518  15.010  1.0965 -0.7330 -0.4035
17730TIP3    H274682   6.102   5.453  14.910 -0.5018  0.8985 -0.0283
17731TIP3   OH274683   4.657   2.403  12.025  0.6857 -0.5223 -0.5132
17731TIP3    H174684   4.571   2.436  12.050  0.6456 -0.6327 -0.5058
17731TIP3    H274685   4.706   2.401  12.107  1.3708  1.4941 -0.8062
17732TIP3   OH274686   3.146   1.078  15.000 -0.1102 -0.3518 -0.6239
17732TIP3    H174687   3.236   1.065  15.030 -0.6119 -0.9748  0.7009
17732TIP3    H274688   3.135   1.018  14.927  0.4992 -0.3850 -0.6909
17733TIP3   OH274689   3.457   0.773  11.161 -0.4483  0.3500  0.4751
17733TIP3    H174690   3.540   0.744  11.124 -0.6601  1.3154 -0.8064
17733TIP3    H274691   3.403   0.796  11.085 -1.7590  0.1187  1.2923
17734TIP3   OH274692   0.765   1.287  13.748 -0.2929 -0.3570  0.3041
17734TIP3    H174693   0.836   1.223  13.744  2.7981  2.7603  0.0591
17734TIP3    H274694   0.748   1.298  13.841  1.6068  0.7531  0.5867
17735TIP3   OH274695   6.520   6.434   4.182 -0.2322  0.4995 -0.5454
17735TIP3    H174696   6.536   6.410   4.273 -1.7208  0.5873 -0.2229
17735TIP3    H274697   6.525   6.529   4.181  2.4164  0.4293 -1.1472
17736TIP3   OH274698   2.409   0.719   0.909  0.3307 -0.1927 -0.7861
17736TIP3    H174699   2.362   0.683   0.985  0.2625  0.1445 -0.6656
17736TIP3    H274700   2.359   0.688   0.833 -0.2203  0.3437 -0.6492
17737TIP3   OH274701   3.186   1.038   5.442  0.5567 -0.3850 -0.1567
17737TIP3    H174702   3.221   1.120   5.478 -0.3939 -0.4433  0.9396
17737TIP3    H274703   3.152   1.063   5.355  2.5910 -0.1862 -0.9484
17738TIP3   OH274704   4.920   5.068   2.940  0.4258 -0.5814  0.2098
17738TIP3    H174705   4.826   5.083   2.946  0.5704  0.6586 -0.4137
17738TIP3    H274706   4.928   4.973   2.929 -0.7080 -0.7759  0.9447
17739TIP3   OH274707   5.957   1.942   4.725 -0.0705 -0.2570  0.2047
17739TIP3    H174708   5.867   1.973   4.708  0.4808  2.5125  1.7072
17739TIP3    H274709   5.962   1.858   4.681 -2.1985  1.2224 -3.2404
17740TIP3   OH274710   3.217   5.081   3.089 -0.3685 -0.3664 -0.6833
17740TIP3    H174711   3.281   5.020   3.127 -0.8620 -0.8071 -0.5432
17740TIP3    H274712   3.270   5.142   3.038  0.1145 -1.1482 -1.1451
17741TIP3   OH274713   5.080   4.686   5.350  0.0212  0.3607 -0.1439
17741TIP3    H174714   5.143   4.730   5.293  0.1333  0.4681  0.0604
17741TIP3    H274715   5.127   4.608   5.382  0.3767  0.9200  0.7278
17742TIP3   OH274716   2.917   2.701   3.382 -0.1695 -0.3173 -0.2400
17742TIP3    H174717   2.833   2.714   3.338  0.7720  1.8381 -1.5079
17742TIP3    H274718   2.956   2.788   3.388  1.8886 -1.2154  0.5596
17743TIP3   OH274719   0.721   4.999   5.839 -0.0168 -0.2541  0.2074
17743TIP3    H174720   0.749   5.063   5.904  0.5531 -0.8162  0.5191
17743TIP3    H274721   0.792   4.995   5.775 -0.7223  0.5597 -0.6772
17744TIP3   OH274722   1.771   2.720  16.449 -0.0270 -0.2288  0.6872
17744TIP3    H174723   1.770   2.784  16.520  0.0901 -2.4047  2.7836
17744TIP3    H274724   1.683   2.723  16.413 -0.3950  0.2337  1.5804
17745TIP3   OH274725   5.804   4.243   1.011 -0.2548  0.1732 -0.3674
17745TIP3    H174726   5.712   4.216   1.010 -0.3498  0.5083 -1.0132
17745TIP3    H274727   5.834   4.227   0.921  0.4694 -0.4413 -0.0267
17746TIP3   OH274728   0.634   5.746   0.290 -0.7477  0.8095 -0.3710
17746TIP3    H174729   0.546   5.709   0.287 -0.4321  0.1056 -1.4660
17746TIP3    H274730   0.669   5.716   0.374 -0.7680 -0.8200 -0.8952
17747TIP3   OH274731   3.334   4.232  15.872 -0.0454 -0.1841 -0.1023
17747TIP3    H174732   3.410   4.289  15.856  0.9204 -1.3443  0.2096
17747TIP3    H274733   3.355   4.151  15.826 -1.3154 -0.3770 -0.3836
17748TIP3   OH274734   2.808   2.130   3.019 -0.1801  0.2099 -0.8106
17748TIP3    H174735   2.903   2.145   3.023 -0.0798 -0.6150  0.2808
17748TIP3    H274736   2.771   2.218   3.009  0.6532  0.6570 -0.1257
17749TIP3   OH274737   3.549   6.010   4.735 -0.7715 -0.0167 -0.4072
17749TIP3    H174738   3.622   6.050   4.687  0.0597 -2.3649 -1.2872
17749TIP3    H274739   3.480   5.999   4.669 -0.7048 -0.6716 -0.3724
17750TIP3   OH274740   1.326   6.484  13.755 -0.3909 -0.2577  0.1112
17750TIP3    H174741   1.410   6.440  13.740 -1.5017 -2.0621 -1.2104
17750TIP3    H274742   1.329   6.562  13.700  0.7884  0.2623  0.8690
17751TIP3   OH274743   4.352   3.687   3.412 -0.0219  0.3242  0.4222
17751TIP3    H174744   4.311   3.612   3.456 -0.4175  0.3077  0.0368
17751TIP3    H274745   4.430   3.651   3.370 -0.1453  0.1506  0.3395
17752TIP3   OH274746   3.187   1.271  14.140 -0.0099 -0.2914 -0.3425
17752TIP3    H174747   3.120   1.296  14.205 -0.8012 -1.0281 -0.8565
17752TIP3    H274748   3.177   1.177  14.130 -0.3278 -0.1060 -1.9885
17753TIP3   OH274749   4.695   1.452   0.413 -0.3696  0.9213 -0.5123
17753TIP3    H174750   4.687   1.472   0.320 -2.8838 -1.0965 -0.8276
17753TIP3    H274751   4.625   1.389   0.431  0.7281  0.3715  2.5134
17754TIP3   OH274752   2.747   4.318   0.272  0.8420  0.2376  0.7597
17754TIP3    H174753   2.747   4.399   0.322  1.1760  0.6319  0.1351
17754TIP3    H274754   2.834   4.280   0.287  1.9563  1.6678 -1.5566
17755TIP3   OH274755   5.363   3.511  11.688 -0.5155  0.0617  0.3248
17755TIP3    H174756   5.385   3.535  11.598  0.0666 -1.2732  0.0938
17755TIP3    H274757   5.394   3.585  11.741  0.2383  0.3230 -0.4580
17756TIP3   OH274758   0.579   0.617   5.531  0.2460 -0.2966  0.5291
17756TIP3    H174759   0.560   0.598   5.623  0.3212  0.4143  0.6952
17756TIP3    H274760   0.608   0.533   5.496  0.2715 -0.5666  1.1692
17757TIP3   OH274761   5.822   0.556  13.595  0.0108  0.2488 -0.5495
17757TIP3    H174762   5.910   0.555  13.632 -0.7899  1.0892  1.5439
17757TIP3    H274763   5.807   0.647  13.570 -0.2990  0.1249 -0.8257
17758TIP3   OH274764   1.353   5.303   5.522  0.3394  0.2365  0.1929
17758TIP3    H174765   1.350   5.234   5.457 -0.0436  1.5605 -1.2578
17758TIP3    H274766   1.445   5.327   5.528  0.4646 -0.3306  0.6545
17759TIP3   OH274767   2.365   4.530  14.379 -0.0351 -0.3216  0.1651
17759TIP3    H174768   2.286   4.537  14.324 -0.9913  2.4874  1.6929
17759TIP3    H274769   2.355   4.599  14.444  3.6798  0.0692  0.5362
17760TIP3   OH274770   2.819   4.883  14.879 -0.2725 -0.0751 -0.1155
17760TIP3    H174771   2.900   4.887  14.929 -0.5753 -0.1116  0.3854
17760TIP3    H274772   2.751   4.908  14.942 -0.3452  3.2623 -1.3093
17761TIP3   OH274773   2.797   2.380  16.038 -0.2354 -0.4792  0.0561
17761TIP3    H174774   2.845   2.441  15.983  0.4561 -0.7267  0.3763
17761TIP3    H274775   2.819   2.294  16.003 -0.7796 -0.5703 -0.0620
17762TIP3   OH274776   2.756   0.406  10.367 -0.0535  0.7991 -0.1599
17762TIP3    H174777   2.737   0.323  10.411  1.8262 -0.0826 -0.8969
17762TIP3    H274778   2.806   0.457  10.430 -0.5551  1.0740  0.0216
17763TIP3   OH274779   0.211   6.429   0.984  0.0958  0.1397  0.1180
17763TIP3    H174780   0.296   6.385   0.975 -1.0872 -2.2813  0.0072
17763TIP3    H274781   0.191   6.460   0.896  0.0894 -0.8742 -0.2540
17764TIP3   OH274782   3.878   0.249  13.922  0.0140 -0.0470 -0.0463
17764TIP3    H174783   3.857   0.317  13.986  0.9717  0.9290 -0.7518
17764TIP3    H274784   3.797   0.197  13.916 -1.3218  2.0046 -0.7332
17765TIP3   OH274785   6.789   3.877  17.151 -0.7508  0.7617 -0.3800
17765TIP3    H174786   6.700   3.913  17.150 -0.5479  1.2690 -0.6408
17765TIP3    H274787   6.841   3.940  17.100  0.4515  2.3104  2.4985
17766TIP3   OH274788   2.580   0.289  11.222  0.0365 -0.0051  0.2493
17766TIP3    H174789   2.583   0.197  11.195  0.0165 -0.4366  1.6582
17766TIP3    H274790   2.551   0.336  11.143 -0.5089 -1.2709 -0.3331
17767TIP3   OH274791   2.198   0.362   4.318  0.1261 -0.2684  0.0556
17767TIP3    H174792   2.252   0.381   4.242 -2.1678 -0.2520 -1.6532
17767TIP3    H274793   2.236   0.282   4.355  1.2965 -0.2552 -1.0433
17768TIP3   OH274794   0.416   5.382   1.878 -0.1253 -0.3510  0.2870
17768TIP3    H174795   0.396   5.476   1.878 -0.7314 -0.4442  2.2316
17768TIP3    H274796   0.422   5.359   1.971  0.8896 -2.0651 -0.1681
17769TIP3   OH274797   1.550   6.644   3.916  0.1231  0.0792  0.5711
17769TIP3    H174798   1.646   6.644   3.917  0.1764 -2.4419  0.4853
17769TIP3    H274799   1.528   6.640   3.823 -0.1084  0.9639  0.5755
17770TIP3   OH274800   3.804   4.199  14.968  0.4757 -0.1358 -0.3103
17770TIP3    H174801   3.887   4.174  15.008 -0.0210 -0.4117  0.5656
17770TIP3    H274802   3.811   4.293  14.955  0.5561  0.0003  0.6543
17771TIP3   OH274803   2.883   5.258   5.470  0.0091  0.4001  0.5154
17771TIP3    H174804   2.955   5.315   5.499  0.6804 -0.8605  1.4331
17771TIP3    H274805   2.911   5.170   5.494 -0.4652 -0.5022 -1.9212
17772TIP3   OH274806   1.184   5.499  15.253  0.2841 -0.0439 -0.3464
17772TIP3    H174807   1.166   5.407  15.239  1.3559 -0.0888 -1.7773
17772TIP3    H274808   1.170   5.539  15.167  2.3791  0.6297 -0.4474
17773TIP3   OH274809   3.457   5.627   4.631 -0.3603  0.0069  0.3651
17773TIP3    H174810   3.372   5.585   4.644 -0.2056 -0.6436 -0.6240
17773TIP3    H274811   3.442   5.690   4.561  0.4304 -1.6313 -1.3544
17774TIP3   OH274812   5.203   0.847   4.705  0.2683 -0.6284 -0.1265
17774TIP3    H174813   5.172   0.867   4.793  3.2920  1.9588  0.5446
17774TIP3    H274814   5.154   0.906   4.648  0.6912  0.1613  0.3077
17775TIP3   OH274815   1.193   4.374  15.137  0.0121 -0.1469  0.0768
17775TIP3    H174816   1.184   4.458  15.183 -0.9079 -0.3032  0.1863
17775TIP3    H274817   1.237   4.396  15.055 -1.4557  0.6714 -0.5251
17776TIP3   OH274818   1.371   0.669  15.824 -0.0343 -0.0731  0.0688
17776TIP3    H174819   1.365   0.719  15.743  0.6778 -2.0155 -1.2646
17776TIP3    H274820   1.464   0.663  15.843 -0.1963  0.4415  1.1110
17777TIP3   OH274821   3.393   4.841  12.978 -0.0818 -0.5229 -0.5143
17777TIP3    H174822   3.333   4.771  12.949 -0.2603  0.3105 -2.3100
17777TIP3    H274823   3.457   4.796  13.033  0.3004 -2.3032 -2.2960
17778TIP3   OH274824   0.577   3.678  13.818  0.7196 -0.2614 -0.7958
17778TIP3    H174825   0.641   3.722  13.762  0.4625 -0.0465 -0.9178
17778TIP3    H274826   0.572   3.732  13.897  1.1997 -0.6484 -0.4917
17779TIP3   OH274827   5.673   6.273   1.264  0.0740  0.0978  0.1848
17779TIP3    H174828   5.682   6.225   1.346  1.8209  0.5895  0.3093
17779TIP3    H274829   5.658   6.364   1.290 -0.8117  0.0306 -0.0542
17780TIP3   OH274830   5.935   2.878  10.177 -0.6104 -0.2897 -0.5796
17780TIP3    H174831   5.935   2.784  10.196  1.0458 -0.3296 -0.5738
17780TIP3    H274832   5.843   2.900  10.162 -1.0856 -1.7994 -0.0689
17781TIP3   OH274833   0.324   1.405   0.582 -0.1718  0.8413  0.0538
17781TIP3    H174834   0.408   1.365   0.561 -1.6432 -1.3773 -2.0633
17781TIP3    H274835   0.274   1.336   0.626 -0.9431  2.1117  1.2713
17782TIP3   OH274836   2.228   4.422  13.285  0.0055  0.6524 -0.4721
17782TIP3    H174837   2.201   4.435  13.194 -1.5908  2.1334  0.1392
17782TIP3    H274838   2.296   4.488  13.299 -2.5473  3.3950  0.3993
17783TIP3   OH274839   0.570   5.314  12.687  0.0480 -0.3652 -0.3690
17783TIP3    H174840   0.658   5.291  12.657 -0.0574  0.1191 -1.0928
17783TIP3    H274841   0.512   5.272  12.624 -0.2154 -0.1483 -0.2739
17784TIP3   OH274842   2.429   6.810   0.452  0.2025 -0.4966 -0.0352
17784TIP3    H174843   2.411   6.725   0.492  0.7868 -1.0202 -0.8603
17784TIP3    H274844   2.408   6.798   0.359 -2.1598  0.9950  0.2237
17785TIP3   OH274845   3.923   1.565  14.007  0.1493  0.2802 -0.0322
17785TIP3    H174846   3.907   1.569  14.101  2.4293  0.7367  0.3918
17785TIP3    H274847   3.971   1.482  13.995  2.0736  1.3723 -0.3476
17786TIP3   OH274848   0.370   4.622   2.464  0.3363  0.0075 -0.3738
17786TIP3    H174849   0.289   4.672   2.454 -0.4749 -0.5835  2.3945
17786TIP3    H274850   0.341   4.531   2.476  1.5254 -0.4695 -0.9749
17787TIP3   OH274851   0.819   2.328  15.897  0.2097 -0.5481  0.2538
17787TIP3    H174852   0.749   2.385  15.864 -0.0312 -0.6727  0.5448
17787TIP3    H274853   0.810   2.247  15.848  0.5033 -0.3634 -0.1063
17788TIP3   OH274854   0.658   0.935   5.256 -0.6909  0.4367 -0.8272
17788TIP3    H174855   0.733   0.882   5.281 -0.8370  0.9475  0.8336
17788TIP3    H274856   0.694   1.022   5.236 -0.9652  1.3381  2.1279
17789TIP3   OH274857   0.228   5.098   2.315 -0.5118  0.1755  0.0868
17789TIP3    H174858   0.138   5.106   2.283 -0.0560  0.2299 -1.2179
17789TIP3    H274859   0.218   5.078   2.408 -1.8752  0.0109 -0.0729
17790TIP3   OH274860   6.147   1.079   0.744  0.0328 -0.3641  0.3524
17790TIP3    H174861   6.116   1.078   0.654  0.7351  2.0519  0.0201
17790TIP3    H274862   6.229   1.128   0.741  1.0769 -1.8734  2.0488
17791TIP3   OH274863   1.230   2.318   9.858 -0.2664  0.3272  0.0068
17791TIP3    H174864   1.212   2.226   9.839  2.5445 -0.2485 -0.3128
17791TIP3    H274865   1.242   2.320   9.953  1.4538 -0.0647 -0.1663
17792TIP3   OH274866   5.781   5.411   3.442 -0.8014 -0.8909 -0.2969
17792TIP3    H174867   5.857   5.435   3.388 -0.8545 -0.9130 -0.3828
17792TIP3    H274868   5.741   5.338   3.395 -0.4215 -1.4027  0.1578
17793TIP3   OH274869   4.200   1.902   4.030 -0.0632  0.2415 -0.2278
17793TIP3    H174870   4.136   1.891   4.101  0.6816 -2.0048  0.1806
17793TIP3    H274871   4.279   1.858   4.061  0.6170  0.0834 -2.0380
17794TIP3   OH274872   0.592   0.078   0.977 -0.5758  0.0892 -0.0324
17794TIP3    H174873   0.608  -0.016   0.972  0.9978  0.3722 -2.0272
17794TIP3    H274874   0.679   0.117   0.979 -1.2002  1.5223  1.3121
17795TIP3   OH274875   5.097   5.657  15.179  0.4139 -0.4960 -0.2797
17795TIP3    H174876   5.141   5.742  15.183  0.0652 -0.3359  0.2054
17795TIP3    H274877   5.168   5.593  15.167  0.9020 -0.3512  1.6185
17796TIP3   OH274878   5.357   4.958  13.743 -0.1783 -0.1464  0.2660
17796TIP3    H174879   5.407   4.934  13.820  0.1997  0.1849  0.1266
17796TIP3    H274880   5.349   5.053  13.749  0.1288 -0.0833 -0.2697
17797TIP3   OH274881   1.526   0.667  14.280 -0.3616 -0.3518  0.0604
17797TIP3    H174882   1.535   0.580  14.319  2.2579  0.3785  1.3256
17797TIP3    H274883   1.595   0.671  14.214 -0.1793  0.8991  0.3032
17798TIP3   OH274884   3.245   5.403   6.282 -0.2477  0.2328  0.6849
17798TIP3    H174885   3.198   5.320   6.271 -0.7125  0.3898  1.3899
17798TIP3    H274886   3.305   5.407   6.208 -0.7188 -0.4006  0.2611
17799TIP3   OH274887   4.175   2.382  15.984 -0.1734  0.3220  0.3405
17799TIP3    H174888   4.153   2.469  15.949  0.1714  0.5064  0.5737
17799TIP3    H274889   4.208   2.400  16.073  3.1388  0.3286 -0.7613
17800TIP3   OH274890   0.881   5.795   0.773 -0.1288 -0.7276  0.1771
17800TIP3    H174891   0.928   5.725   0.820  1.0434 -0.4760 -0.5713
17800TIP3    H274892   0.948   5.862   0.758 -0.9082 -0.0531 -0.3397
17801TIP3   OH274893   0.395   0.460   0.430 -0.8375 -0.7853  0.0444
17801TIP3    H174894   0.474   0.509   0.452 -0.0980 -1.7113 -0.4856
17801TIP3    H274895   0.427   0.380   0.389 -2.0733 -0.8580 -0.8262
17802TIP3   OH274896   5.829   3.417  11.053 -0.2864 -0.0665  0.3078
17802TIP3    H174897   5.905   3.475  11.048 -0.3257 -0.0977 -0.9036
17802TIP3    H274898   5.866   3.332  11.076  0.1304 -0.1895 -0.7220
17803TIP3   OH274899   3.667   5.493  11.472 -0.2950 -0.6745 -0.0072
17803TIP3    H174900   3.620   5.448  11.403 -2.2415  0.2996  0.6227
17803TIP3    H274901   3.651   5.586  11.455  1.1290 -0.3204  0.4405
17804TIP3   OH274902   1.086   4.846   2.200 -0.3709 -0.0888 -0.6459
17804TIP3    H174903   1.178   4.858   2.177 -0.4929  1.4718 -0.4061
17804TIP3    H274904   1.051   4.934   2.210 -1.6233 -0.6503  0.3781
17805TIP3   OH274905   1.561   5.779  15.934 -0.1998 -0.0460  0.4037
17805TIP3    H174906   1.537   5.834  16.009  0.4399 -1.6773  1.8724
17805TIP3    H274907   1.496   5.709  15.934  0.9737 -1.1868  0.7335
17806TIP3   OH274908   4.960   6.034  13.996  0.0410 -0.2963 -0.3104
17806TIP3    H174909   4.978   5.947  14.031  2.5430  0.7992  1.3369
17806TIP3    H274910   5.021   6.043  13.923  0.6730  0.5144  0.3051
17807TIP3   OH274911   3.791   2.815   4.039 -0.3170 -0.4151 -0.1678
17807TIP3    H174912   3.803   2.792   4.131 -0.3073  0.9217  0.1875
17807TIP3    H274913   3.879   2.838   4.008 -0.4345 -0.1462 -0.3054
17808TIP3   OH274914   0.013   0.169   4.276  0.4894 -0.0337  0.2670
17808TIP3    H174915  -0.071   0.156   4.321 -0.0666 -0.2696 -0.8126
17808TIP3    H274916   0.008   0.113   4.199  1.3251  0.5399 -0.2167
17809TIP3   OH274917   3.792   2.530  16.167  0.3542 -0.0145  0.6108
17809TIP3    H174918   3.709   2.502  16.128  0.2159  0.0331  0.8683
17809TIP3    H274919   3.816   2.609  16.118  0.1114  0.1230  0.7092
17810TIP3   OH274920   6.651   1.388  16.151 -0.4732  0.5759 -0.1060
17810TIP3    H174921   6.709   1.346  16.087 -2.0769  0.2162 -1.3999
17810TIP3    H274922   6.654   1.330  16.228  2.4922  1.6959  0.7335
17811TIP3   OH274923   6.755   5.906  15.695  0.4634  0.2004  0.3871
17811TIP3    H174924   6.806   5.874  15.770  0.0771 -0.3415  0.4203
17811TIP3    H274925   6.666   5.912  15.727  0.6014  1.8813  0.5528
17812TIP3   OH274926   3.039   2.264   1.001  0.3467 -0.1241  0.3681
17812TIP3    H174927   3.053   2.353   1.034 -1.9932  0.1566  0.7833
17812TIP3    H274928   3.097   2.210   1.055  1.8953  1.1105  0.0452
17813TIP3   OH274929   6.710   0.278  13.556 -0.1248 -0.6093  0.1735
17813TIP3    H174930   6.623   0.268  13.517 -0.0958 -0.7751  0.1501
17813TIP3    H274931   6.694   0.273  13.650 -0.3865  1.1836  0.2681
17814TIP3   OH274932   4.263   3.102   4.707 -0.7444  0.4466  0.1762
17814TIP3    H174933   4.309   3.023   4.679  1.0081  1.2580  0.6839
17814TIP3    H274934   4.311   3.174   4.666 -0.8518  1.3882  1.6569
17815TIP3   OH274935   1.053   2.671   2.680 -0.2650 -0.1170  0.2407
17815TIP3    H174936   0.963   2.670   2.647  0.1598  0.6288 -1.0069
17815TIP3    H274937   1.062   2.589   2.729 -2.1625  0.6021  1.9156
17816TIP3   OH274938   3.515   2.045   2.249  0.1833  0.1736 -0.4543
17816TIP3    H174939   3.557   2.046   2.335 -0.0027 -2.9198 -0.2288
17816TIP3    H274940   3.430   2.087   2.263  0.5808  0.6634  0.6001
17817TIP3   OH274941   3.308   5.285   4.460 -0.2138 -0.2544 -0.4155
17817TIP3    H174942   3.400   5.299   4.437 -0.3951 -0.2204 -1.1367
17817TIP3    H274943   3.280   5.367   4.502  0.1406 -0.3498  0.0177
17818TIP3   OH274944   4.637   1.154  10.568  1.3178  0.0599 -0.1485
17818TIP3    H174945   4.668   1.079  10.517  0.7833  0.6280 -1.3577
17818TIP3    H274946   4.716   1.207  10.583  1.7840 -0.9589  1.1342
17819TIP3   OH274947   5.684   0.585  14.949  0.1320 -0.0019 -0.1754
17819TIP3    H174948   5.642   0.671  14.945 -0.1222 -0.1122  0.0905
17819TIP3    H274949   5.714   0.569  14.859  2.9372  1.7129  0.3268
17820TIP3   OH274950   1.339   5.970   4.732 -0.1064 -0.6795  0.7235
17820TIP3    H174951   1.362   5.999   4.644 -2.1315 -0.7990  0.1133
17820TIP3    H274952   1.267   6.026   4.759  1.0182 -0.0564  2.7125
17821TIP3   OH274953   5.381   6.214   5.018  0.1184 -0.2312  0.1526
17821TIP3    H174954   5.286   6.221   5.026  0.2296 -0.3522  1.9267
17821TIP3    H274955   5.408   6.297   4.978 -0.4094  1.6103  3.2767
17822TIP3   OH274956   1.089   2.708   5.733  0.1480  0.6675 -0.1527
17822TIP3    H174957   1.067   2.615   5.739  1.1335  0.3631 -0.9679
17822TIP3    H274958   1.005   2.752   5.717 -0.4752  0.0529  1.2520
17823TIP3   OH274959   0.463   6.743  12.384  0.0506 -0.0630  0.1359
17823TIP3    H174960   0.528   6.678  12.357  1.5798  1.3877  0.1350
17823TIP3    H274961   0.466   6.810  12.315 -2.6282 -0.6858 -0.6955
17824TIP3   OH274962   3.317   3.884  13.939  0.0441  0.0801 -0.5303
17824TIP3    H174963   3.264   3.949  13.986 -0.7013  1.3658 -2.9640
17824TIP3    H274964   3.271   3.801  13.952 -0.3736  0.4778  0.6010
17825TIP3   OH274965   1.425   2.178   2.679  0.4330  0.6187 -0.0475
17825TIP3    H174966   1.411   2.104   2.619  1.3186  0.2210  0.2217
17825TIP3    H274967   1.392   2.254   2.631 -1.6620 -0.0888  0.1545
17826TIP3   OH274968   2.025   4.987  16.377  0.2594 -0.3561  0.0535
17826TIP3    H174969   2.031   4.920  16.445 -0.2716  0.1798  0.6341
17826TIP3    H274970   2.010   5.069  16.424  0.2878  0.0814 -0.6821
17827TIP3   OH274971   3.635   5.160  11.993 -0.3404 -0.7028 -0.1961
17827TIP3    H174972   3.707   5.163  11.931 -0.6453 -0.4519 -0.5397
17827TIP3    H274973   3.644   5.075  12.037 -0.1591 -0.9034 -0.6183
17828TIP3   OH274974   3.335   1.253  14.784 -0.3967  0.0902 -0.3207
17828TIP3    H174975   3.423   1.248  14.821  0.3180 -1.7404 -2.0820
17828TIP3    H274976   3.306   1.342  14.803  1.0460  0.1542  1.9713
17829TIP3   OH274977   2.277   1.535   1.226 -0.7651  0.0259  0.0029
17829TIP3    H174978   2.368   1.513   1.204  0.2266  2.2473  1.5235
17829TIP3    H274979   2.267   1.625   1.196 -2.4745 -0.1657 -0.0770
17830TIP3   OH274980   5.162   5.285   4.651 -0.5937  0.1034  0.2033
17830TIP3    H174981   5.225   5.215   4.631  0.7027  0.8014  1.7381
17830TIP3    H274982   5.110   5.251   4.724  0.8201  1.1532  1.7514
17831TIP3   OH274983   5.384   0.371  16.975  0.4944 -0.2564 -0.3887
17831TIP3    H174984   5.377   0.420  17.056 -0.9274 -0.7735 -0.1714
17831TIP3    H274985   5.424   0.432  16.913  0.8538  0.4026  0.4800
17832TIP3   OH274986   2.340   4.540   0.824  0.0176  0.2562 -0.3833
17832TIP3    H174987   2.336   4.603   0.752  0.7780 -0.0746 -0.7278
17832TIP3    H274988   2.367   4.458   0.782  2.7677  0.5780  0.5930
17833TIP3   OH274989   4.532   4.070  16.120  0.1835  0.2520 -0.3822
17833TIP3    H174990   4.549   3.978  16.100 -0.7353  0.3817 -1.8901
17833TIP3    H274991   4.440   4.071  16.149  0.1072  0.7348 -0.6374
17834TIP3   OH274992   3.900   4.860   1.889  0.4999 -0.2135  0.1910
17834TIP3    H174993   3.994   4.842   1.887  0.4334 -0.5460 -1.4425
17834TIP3    H274994   3.887   4.914   1.967  1.7653 -1.5874  1.4185
17835TIP3   OH274995   1.476   2.540  11.115 -0.3969 -0.0452 -0.2032
17835TIP3    H174996   1.390   2.500  11.122  0.2904 -1.4582  0.9429
17835TIP3    H274997   1.535   2.467  11.092  0.8445  0.3036  1.5983
17836TIP3   OH274998   5.761   3.504   0.313 -0.1950  0.1206 -0.2339
17836TIP3    H174999   5.693   3.507   0.246  0.1049  1.5209 -0.5092
17836TIP3    H275000   5.826   3.568   0.284  0.5537 -0.1763  0.7421
17837TIP3   OH275001   1.811   6.258  10.943  0.2773  0.4735 -0.0460
17837TIP3    H175002   1.785   6.307  10.866 -0.5388  1.4286  0.8083
17837TIP3    H275003   1.834   6.171  10.910 -0.5657  0.6993 -1.2882
17838TIP3   OH275004   5.375   3.963  14.037  0.4852  0.0532 -0.1523
17838TIP3    H175005   5.402   4.001  13.953  1.1437 -0.7105 -0.2989
17838TIP3    H275006   5.287   3.927  14.019  0.7906 -0.4721 -0.6429
17839TIP3   OH275007   3.375   6.090  12.512  0.1945  0.3700 -0.1541
17839TIP3    H175008   3.368   6.169  12.565 -2.5070 -0.2802  0.6431
17839TIP3    H275009   3.354   6.118  12.423  2.6880  1.0923 -0.5815
17840TIP3   OH275010   3.528   2.784  14.574 -0.0470 -0.6974 -0.4525
17840TIP3    H175011   3.454   2.751  14.524 -1.1884 -0.0868  0.7723
17840TIP3    H275012   3.491   2.853  14.630  1.5825  0.1172 -0.3236
17841TIP3   OH275013   6.523   6.793  16.643 -0.0348  0.3228  0.3367
17841TIP3    H175014   6.554   6.883  16.643  0.8631  0.0324  0.2763
17841TIP3    H275015   6.603   6.741  16.632 -0.2854 -0.5624  2.2679
17842TIP3   OH275016   5.172   2.304  15.139 -0.0017  0.1193  0.2362
17842TIP3    H175017   5.117   2.229  15.116 -0.6580 -0.2560  2.7772
17842TIP3    H275018   5.249   2.294  15.083  0.1596 -2.7590  0.8145
17843TIP3   OH275019   4.222   5.091  13.891  0.4008  0.1784  0.0034
17843TIP3    H175020   4.164   5.095  13.815 -0.1546 -1.0494  0.3366
17843TIP3    H275021   4.179   5.029  13.950  2.3648 -1.3064 -0.0145
17844TIP3   OH275022   0.446   3.373   0.231  0.1057  0.6151  0.0823
17844TIP3    H175023   0.461   3.286   0.268 -0.0553  0.8143  0.6186
17844TIP3    H275024   0.486   3.433   0.294 -0.5291  0.9821  0.1442
17845TIP3   OH275025   1.452   4.090  14.002 -0.0049  0.0783  0.1518
17845TIP3    H175026   1.395   4.146  14.054 -0.5515  0.2552 -0.6215
17845TIP3    H275027   1.484   4.146  13.932  1.1848 -0.0014  0.6097
17846TIP3   OH275028   1.401   2.642   2.019 -0.0646 -0.1013  0.0925
17846TIP3    H175029   1.387   2.711   1.954  0.4577 -1.8626 -2.0210
17846TIP3    H275030   1.480   2.597   1.989 -1.8331 -3.2954 -0.2618
17847TIP3   OH275031   3.949   1.217  15.739  0.2048 -0.1705  0.8097
17847TIP3    H175032   3.917   1.135  15.776 -1.3516  0.1506  0.2707
17847TIP3    H275033   4.044   1.214  15.753  0.5409 -3.0578 -1.1245
17848TIP3   OH275034   3.384   2.872  11.581  0.5580 -0.0884 -0.3895
17848TIP3    H175035   3.474   2.841  11.576  1.4569  2.4592 -3.0963
17848TIP3    H275036   3.346   2.848  11.496 -0.5872  0.7884 -0.1465
17849TIP3   OH275037   0.656   5.905   3.279  0.9299 -0.0770  0.0861
17849TIP3    H175038   0.645   5.871   3.190  1.2158  0.8110 -0.2993
17849TIP3    H275039   0.751   5.915   3.289  0.8351  0.8013  0.1151
17850TIP3   OH275040   1.166   3.793   2.236  0.4738 -0.6174  0.3729
17850TIP3    H175041   1.144   3.737   2.310 -0.4977 -1.6417 -0.6595
17850TIP3    H275042   1.162   3.882   2.271  2.4983 -1.1520  2.1600
17851TIP3   OH275043   2.831   5.122   1.215 -0.1777  0.2298  0.4060
17851TIP3    H175044   2.763   5.078   1.265 -1.9387 -0.2763 -2.2517
17851TIP3    H275045   2.786   5.194   1.171  0.3984 -1.2918 -3.0168
17852TIP3   OH275046   5.332   4.158  14.199 -0.6552  0.1670  0.3528
17852TIP3    H175047   5.360   4.100  14.128  1.2816  0.7198  0.6041
17852TIP3    H275048   5.401   4.225  14.203 -1.7859  1.3113  1.4145
17853TIP3   OH275049   5.194   2.288  16.676 -0.0212 -0.4232 -0.9318
17853TIP3    H175050   5.227   2.202  16.648  1.0960  0.3724 -2.1616
17853TIP3    H275051   5.250   2.351  16.631 -0.5829  0.9694  0.2348
17854TIP3   OH275052   3.577   5.386  13.261 -0.3660 -0.7810  0.0154
17854TIP3    H175053   3.652   5.343  13.219  2.2550  2.4903  0.8801
17854TIP3    H275054   3.536   5.437  13.191 -0.5158 -0.9638 -0.0316
17855TIP3   OH275055   4.874   1.376  13.670 -0.3083 -0.0206  0.0601
17855TIP3    H175056   4.845   1.467  13.663 -0.5395 -0.1480 -0.7740
17855TIP3    H275057   4.821   1.329  13.605 -0.5255 -0.8369  0.8006
17856TIP3   OH275058   2.100   4.085   1.696 -0.2202 -0.0630 -0.2705
17856TIP3    H175059   2.024   4.116   1.745  2.2291 -1.6028  5.2077
17856TIP3    H275060   2.087   3.990   1.689  0.7632 -0.2099 -0.1567
17857TIP3   OH275061   3.920   1.417  14.452  0.2734 -0.5488  0.2231
17857TIP3    H175062   4.012   1.430  14.428  0.8043 -0.5756  2.0814
17857TIP3    H275063   3.921   1.344  14.513 -1.2541 -1.8090 -1.1597
17858TIP3   OH275064   3.530   0.310  10.823  0.3528 -0.1239  0.2651
17858TIP3    H175065   3.611   0.350  10.792  1.0191 -0.6215  1.3193
17858TIP3    H275066   3.478   0.298  10.744  1.2945  0.2147 -0.4289
17859TIP3   OH275067   4.445   1.582  11.768 -0.1942  0.5836  0.8408
17859TIP3    H175068   4.463   1.669  11.733 -0.1505 -0.1349 -1.1039
17859TIP3    H275069   4.359   1.589  11.809 -0.4259  1.4388  0.2457
17860TIP3   OH275070   0.642   1.852  13.838  0.0545 -0.2050 -0.6036
17860TIP3    H175071   0.575   1.891  13.893  0.5415  0.8758 -0.7488
17860TIP3    H275072   0.632   1.896  13.753  0.6792 -0.3286 -0.7447
17861TIP3   OH275073   0.075   5.631   1.045 -0.0066  0.2469 -0.3473
17861TIP3    H175074   0.034   5.717   1.031 -1.9334 -0.6667 -0.6622
17861TIP3    H275075   0.122   5.641   1.128 -2.5592  0.8646  1.1508
17862TIP3   OH275076   3.377   4.920  11.731  0.6460 -0.0182 -0.1545
17862TIP3    H175077   3.433   4.850  11.766  0.2891  0.0089  0.4888
17862TIP3    H275078   3.331   4.954  11.808  0.4311  0.5765 -0.5433
17863TIP3   OH275079   3.192   5.305  12.805 -0.3281 -0.5039  0.1371
17863TIP3    H175080   3.235   5.271  12.727  0.3002 -3.0530  1.4966
17863TIP3    H275081   3.169   5.228  12.856 -0.8423  1.0529  2.4236
17864TIP3   OH275082   1.596   4.881  16.774 -0.6276  0.4831  0.3725
17864TIP3    H175083   1.520   4.940  16.773 -0.1763  1.1980  2.6640
17864TIP3    H275084   1.614   4.867  16.867  0.3696 -1.9065 -0.1058
17865TIP3   OH275085   5.297   3.513  17.139  0.0545  0.4965 -0.3636
17865TIP3    H175086   5.272   3.562  17.218 -0.3231  0.4567 -0.4565
17865TIP3    H275087   5.266   3.424  17.155  1.4458  0.0711  0.1462
17866TIP3   OH275088   1.810   0.960  14.203  0.3628  0.3480 -0.0978
17866TIP3    H175089   1.741   1.020  14.232 -0.7831 -0.3334 -1.3048
17866TIP3    H275090   1.880   1.017  14.170  0.5932  1.0559  1.5298
17867TIP3   OH275091   5.196   3.491  13.704  0.1208  0.2743  0.6109
17867TIP3    H175092   5.163   3.446  13.627  0.7333  1.5101 -0.4103
17867TIP3    H275093   5.289   3.468  13.708 -0.1631 -0.7819  1.7276
17868TIP3   OH275094   5.885   1.522  11.583 -0.0774  0.5440  0.1114
17868TIP3    H175095   5.910   1.434  11.613 -0.3327  0.3361 -0.2710
17868TIP3    H275096   5.820   1.551  11.647  1.1574  1.1071  1.1383
17869TIP3   OH275097   1.966   3.719  16.295  0.3367 -0.1113  0.7098
17869TIP3    H175098   2.008   3.802  16.273  0.1047  0.0279  0.7775
17869TIP3    H275099   1.904   3.704  16.224 -0.6588  0.5104  1.4050
17870TIP3   OH275100   3.181   4.811   3.682  0.0288 -0.0196 -0.2269
17870TIP3    H175101   3.093   4.807   3.642  0.1447 -0.4515 -0.4459
17870TIP3    H275102   3.179   4.745   3.750  0.5863 -0.9096 -1.0573
17871TIP3   OH275103   6.485   0.300   4.945 -0.4601  0.1584 -0.1579
17871TIP3    H175104   6.394   0.271   4.952 -0.4538 -0.5167 -2.1361
17871TIP3    H275105   6.510   0.278   4.855  2.2849 -1.4500  0.8755
17872TIP3   OH275106   2.544   1.351  16.564 -0.5023 -0.1686 -0.6154
17872TIP3    H175107   2.505   1.356  16.652 -0.5911  2.3683 -0.7505
17872TIP3    H275108   2.637   1.336  16.581 -0.4124  0.9519 -0.0443
17873TIP3   OH275109   2.208   5.190  15.132  0.1060 -0.0398  0.4371
17873TIP3    H175110   2.159   5.266  15.099  0.6155  0.3939  0.6606
17873TIP3    H275111   2.295   5.200  15.095  0.8495  0.7255  2.2635
17874TIP3   OH275112   4.039   6.255   3.047  0.0224  0.2393  0.6529
17874TIP3    H175113   3.985   6.330   3.070 -0.1308  0.5116 -0.5033
17874TIP3    H275114   4.097   6.288   2.977 -0.3023 -0.8045 -0.1381
17875TIP3   OH275115   6.325   0.572   2.505  0.0119 -0.3556 -0.9722
17875TIP3    H175116   6.394   0.572   2.439  1.1830 -0.6798  0.1961
17875TIP3    H275117   6.343   0.495   2.559  0.7103  1.2792  1.3078
17876TIP3   OH275118   0.574   3.828  12.122  0.9769  0.4197  0.6019
17876TIP3    H175119   0.512   3.759  12.098  1.6113 -0.1230  0.4836
17876TIP3    H275120   0.576   3.827  12.217  0.9468  0.3011  0.6015
17877TIP3   OH275121   0.926   2.577   2.132  0.0118  0.2157 -0.0724
17877TIP3    H175122   0.994   2.513   2.149  0.4582  0.5123 -0.7031
17877TIP3    H275123   0.936   2.642   2.202  0.6247  0.4528 -0.3731
17878TIP3   OH275124   1.392   6.197  10.710  0.4772  0.1920  0.2644
17878TIP3    H175125   1.412   6.282  10.672  2.6515 -0.2627  0.2564
17878TIP3    H275126   1.341   6.152  10.643 -1.2613  1.6689  0.5264
17879TIP3   OH275127   4.852   3.456  13.397 -0.2525  0.0914  0.5248
17879TIP3    H175128   4.807   3.392  13.342  2.5905 -0.3968 -1.4147
17879TIP3    H275129   4.806   3.538  13.380 -1.6664 -0.7090  0.2440
17880TIP3   OH275130   6.607   2.096  11.501 -0.3626  0.1084  0.1474
17880TIP3    H175131   6.617   2.115  11.594  0.5622 -0.8281  0.2569
17880TIP3    H275132   6.567   2.009  11.498 -0.6357  0.2455 -0.3338
17881TIP3   OH275133   1.266   5.855   1.670 -0.1223 -0.3962  0.1694
17881TIP3    H175134   1.192   5.916   1.673  1.4020  1.5273  0.4775
17881TIP3    H275135   1.298   5.852   1.760  0.9260 -0.2131 -0.1851
17882TIP3   OH275136   5.450   6.602  16.196  0.2070 -0.2632 -0.1941
17882TIP3    H175137   5.409   6.625  16.113 -3.5865 -0.0628  1.5565
17882TIP3    H275138   5.496   6.682  16.223 -1.4697  0.8629 -0.5161
17883TIP3   OH275139   6.506   4.891   3.705 -0.5069 -0.0381 -0.7557
17883TIP3    H175140   6.556   4.819   3.666 -0.8431 -0.2180 -0.8597
17883TIP3    H275141   6.573   4.953   3.734 -0.1422 -0.9244  0.4158
17884TIP3   OH275142   4.750   1.621  16.448 -0.1927  0.7176  0.4765
17884TIP3    H175143   4.757   1.539  16.399  0.5561  0.8865  0.2988
17884TIP3    H275144   4.768   1.690  16.383 -1.4102  1.0743  0.4780
17885TIP3   OH275145   6.480   4.053  12.695  0.2831  0.5458 -0.1101
17885TIP3    H175146   6.567   4.024  12.725 -0.1450  0.0800  0.7226
17885TIP3    H275147   6.491   4.146  12.677  0.7194  0.7196  0.9592
17886TIP3   OH275148   1.702   4.504  11.299  0.4459  0.8711 -0.8879
17886TIP3    H175149   1.701   4.518  11.205  1.9646  2.0235 -0.7825
17886TIP3    H275150   1.767   4.436  11.313 -0.5009 -0.0209 -0.7253
17887TIP3   OH275151   4.649   5.263  11.450  0.1944 -0.1517 -0.6922
17887TIP3    H175152   4.723   5.222  11.495  0.9548  0.7632 -1.0759
17887TIP3    H275153   4.622   5.335  11.507 -2.3312 -2.1799  0.8946
17888TIP3   OH275154   4.729   2.311   3.138  0.4053 -0.1351 -0.1247
17888TIP3    H175155   4.781   2.232   3.146  0.6196  0.1471  1.4625
17888TIP3    H275156   4.642   2.286   3.171  0.5660  0.3646  0.6975
17889TIP3   OH275157   3.402   2.057   2.825 -0.1684 -1.0894  0.8172
17889TIP3    H175158   3.380   2.085   2.913  0.4234  0.4000  0.5242
17889TIP3    H275159   3.484   2.103   2.805 -1.0882 -0.1325 -1.0500
17890TIP3   OH275160   4.687   0.018  11.425 -1.1114  0.3269  0.3750
17890TIP3    H175161   4.750  -0.042  11.387 -1.4089 -0.5623  1.2453
17890TIP3    H275162   4.657   0.072  11.351  0.3537  0.5024 -0.1112
17891TIP3   OH275163   5.403   5.086  14.581  0.0984  0.0041  0.3096
17891TIP3    H175164   5.413   5.116  14.671  2.0451  1.2790 -0.2657
17891TIP3    H275165   5.408   4.990  14.587 -1.8651 -0.0745  1.7220
17892TIP3   OH275166   2.993   2.150  15.496  0.3380 -0.4011 -0.0389
17892TIP3    H175167   3.029   2.125  15.411  2.6584 -0.6388  0.9188
17892TIP3    H275168   2.910   2.193  15.476  1.6951  1.3000 -2.5649
17893TIP3   OH275169   2.667   2.062   4.516 -0.3006  0.5938 -0.5635
17893TIP3    H175170   2.719   2.052   4.437 -1.3998 -1.8206 -1.0726
17893TIP3    H275171   2.714   2.012   4.582 -1.3123 -0.6112 -0.7242
17894TIP3   OH275172   1.976   2.550   3.692 -0.0051 -0.0455 -0.2312
17894TIP3    H175173   2.052   2.535   3.748 -0.5169  0.6400  0.6799
17894TIP3    H275174   1.921   2.472   3.705 -1.0935  0.9812  1.8933
17895TIP3   OH275175   3.145   2.930   3.764  0.8596 -0.0082 -0.0597
17895TIP3    H175176   3.147   2.856   3.703 -0.9759  1.1397 -1.6078
17895TIP3    H275177   3.057   2.966   3.755  1.7192  2.4341  0.5663
17896TIP3   OH275178   1.304   0.516   2.941 -0.1530 -0.1195 -0.3009
17896TIP3    H175179   1.306   0.437   2.996  0.0454 -0.0675 -0.2323
17896TIP3    H275180   1.319   0.485   2.852  0.4293 -0.1030 -0.2095
17897TIP3   OH275181   3.706   4.670  10.313 -0.4273  0.3515 -0.0247
17897TIP3    H175182   3.772   4.731  10.346 -1.0508  0.6174  0.7675
17897TIP3    H275183   3.675   4.624  10.391 -0.6260 -0.3232 -0.4947
17898TIP3   OH275184   2.399   2.363  15.973  0.1287  0.1803  0.4922
17898TIP3    H175185   2.466   2.346  16.039 -0.6860  0.1579  1.3346
17898TIP3    H275186   2.442   2.345  15.890  1.2460  0.4238  0.9965
17899TIP3   OH275187   2.196   6.411   5.373 -0.1308 -0.1987 -0.5462
17899TIP3    H175188   2.291   6.409   5.357  0.3884  3.9097  0.9601
17899TIP3    H275189   2.179   6.498   5.408 -4.3807 -1.1453  0.2848
17900TIP3   OH275190   3.255   6.774  15.668 -0.0790  0.3906 -0.3298
17900TIP3    H175191   3.345   6.752  15.644  0.4723  1.4318  0.6850
17900TIP3    H275192   3.262   6.860  15.711 -1.6899  0.9657 -1.1328
17901TIP3   OH275193   6.428   4.056   3.602 -0.6634 -0.0256  0.0077
17901TIP3    H175194   6.362   4.104   3.652 -1.3163  0.5531 -1.3613
17901TIP3    H275195   6.394   3.966   3.597 -0.2129 -0.2846  1.2254
17902TIP3   OH275196   2.016   3.031   0.095  0.5474  0.1615 -0.2976
17902TIP3    H175197   1.945   3.080   0.137  1.8019  1.6959  0.1611
17902TIP3    H275198   2.066   2.995   0.168  0.8132 -0.0658 -0.5893
17903TIP3   OH275199   1.391   6.594   6.217  0.1252 -0.3543  0.7408
17903TIP3    H175200   1.450   6.584   6.142 -1.3983 -0.9936 -0.4112
17903TIP3    H275201   1.398   6.687   6.239  0.7331 -0.1865 -0.0799
17904TIP3   OH275202   3.927   3.393  11.868 -0.0447 -0.2525 -0.4126
17904TIP3    H175203   3.880   3.422  11.789 -2.5522  0.8259  1.3472
17904TIP3    H275204   3.932   3.298  11.858 -1.7895 -0.3126 -1.1492
17905TIP3   OH275205   2.726   1.920   3.962  0.0816 -0.3077 -0.3631
17905TIP3    H175206   2.642   1.947   3.999  0.2894 -0.2604  0.0852
17905TIP3    H275207   2.769   2.001   3.938  1.3972 -0.0180  2.4808
17906TIP3   OH275208   1.979   6.646   1.300 -0.2151  0.2423  0.3428
17906TIP3    H175209   2.031   6.630   1.379  0.9865  1.5223 -0.1611
17906TIP3    H275210   2.004   6.734   1.272 -0.9093 -0.0388 -1.2538
17907TIP3   OH275211   1.760   0.195  17.121  0.2176 -0.7875 -0.6988
17907TIP3    H175212   1.809   0.268  17.159  0.5330 -0.1520 -2.2328
17907TIP3    H275213   1.824   0.123  17.117  0.4332 -0.5904 -0.8191
17908TIP3   OH275214   5.236   6.516   0.792  0.6048 -0.3942 -0.5336
17908TIP3    H175215   5.164   6.479   0.742 -2.9146 -0.1094  3.7504
17908TIP3    H275216   5.277   6.441   0.836 -0.9309 -0.1423  1.4501
17909TIP3   OH275217   5.357   1.188  15.848 -0.1743  0.1814  0.2330
17909TIP3    H175218   5.414   1.182  15.924  0.8867 -1.1670 -0.6169
17909TIP3    H275219   5.390   1.264  15.799  1.2976 -0.8984 -0.5207
17910TIP3   OH275220   1.133   5.801   4.972 -0.1602  0.4042 -0.3608
17910TIP3    H175221   1.058   5.747   4.995 -1.1150  1.3718 -1.0963
17910TIP3    H275222   1.155   5.774   4.882  0.8409 -0.3677  0.0958
17911TIP3   OH275223   4.585   5.254  16.713  0.1273  0.5036  0.4762
17911TIP3    H175224   4.552   5.264  16.802 -0.5255 -2.0346  0.5961
17911TIP3    H275225   4.680   5.247  16.724 -0.0033 -0.5220  1.0829
17912TIP3   OH275226   3.569   2.033   5.664 -0.1358  0.3250 -0.4107
17912TIP3    H175227   3.480   2.053   5.636 -0.3014  0.3230  0.0960
17912TIP3    H275228   3.573   2.067   5.754  0.1124 -0.4058 -0.1381
17913TIP3   OH275229   4.102   6.756  14.017  0.5025 -0.6568  0.0281
17913TIP3    H175230   4.012   6.767  14.047  0.0816 -1.3323 -0.9186
17913TIP3    H275231   4.149   6.830  14.054 -0.3171 -0.6006  1.0084
17914TIP3   OH275232   2.871   4.023   4.574 -0.1467 -0.1770 -0.0800
17914TIP3    H175233   2.886   4.082   4.500  2.1041 -0.3869  0.1378
17914TIP3    H275234   2.794   4.059   4.618 -0.7514  0.7110 -1.7641
17915TIP3   OH275235   0.510   0.914   0.570  0.2791 -0.2062 -0.1806
17915TIP3    H175236   0.562   0.986   0.534 -0.8913  0.6423 -0.2478
17915TIP3    H275237   0.554   0.890   0.651  1.3079 -0.1730 -0.7176
17916TIP3   OH275238   4.760   1.349   4.017  0.5584  0.2130 -0.4307
17916TIP3    H175239   4.824   1.378   4.082  0.1482  2.4032 -0.9418
17916TIP3    H275240   4.684   1.406   4.030 -0.6664 -1.2183 -0.9480
17917TIP3   OH275241   1.314   4.037   4.404 -0.5132 -0.2382 -0.1681
17917TIP3    H175242   1.271   4.023   4.488 -0.4295 -0.1847 -0.1165
17917TIP3    H275243   1.293   3.958   4.353  1.1764 -1.2767  0.6362
17918TIP3   OH275244   0.366   5.597   2.173  0.3798 -0.1379  0.6755
17918TIP3    H175245   0.430   5.530   2.197 -0.7537 -2.0807 -1.3172
17918TIP3    H275246   0.399   5.632   2.090 -0.2962 -0.0198  0.4492
17919TIP3   OH275247   1.315   2.690   3.289  0.5813  0.0922  0.7213
17919TIP3    H175248   1.329   2.618   3.350 -0.3450 -1.2665 -0.6093
17919TIP3    H275249   1.382   2.679   3.221 -1.6885 -1.7370 -1.4039
17920TIP3   OH275250   0.557   0.054  11.331 -0.3196 -0.7227  0.0547
17920TIP3    H175251   0.629   0.010  11.376 -0.6997  0.1793  1.6477
17920TIP3    H275252   0.544   0.004  11.251  0.9754 -1.8957  0.5406
17921TIP3   OH275253   6.686   5.897  16.907 -0.3289 -0.3741 -0.1371
17921TIP3    H175254   6.699   5.804  16.892  0.5297 -0.0619 -1.5065
17921TIP3    H275255   6.684   5.906  17.002 -0.3132 -1.7659  0.0133
17922TIP3   OH275256   5.936   3.062   2.581  0.0121  0.3038  0.1923
17922TIP3    H175257   6.019   3.062   2.629  1.1068  0.6448 -1.5968
17922TIP3    H275258   5.910   2.970   2.580  0.8549  0.0527  0.0201
17923TIP3   OH275259   4.017   4.366  12.369  0.1824 -0.1346 -0.6561
17923TIP3    H175260   4.074   4.290  12.353 -0.1585 -0.6497  0.5010
17923TIP3    H275261   4.008   4.408  12.283  1.8620 -0.3538 -0.9726
17924TIP3   OH275262   0.671   6.839   2.154 -0.2850  0.3944 -0.1844
17924TIP3    H175263   0.627   6.766   2.199  1.1784 -0.4320 -0.0423
17924TIP3    H275264   0.658   6.822   2.061  0.3671 -0.2664 -0.1611
17925TIP3   OH275265   3.953   5.726  13.464  0.1951  0.3088 -0.0220
17925TIP3    H175266   4.048   5.736  13.474  0.5875 -2.9214  0.5408
17925TIP3    H275267   3.918   5.744  13.551  0.7083 -1.6316  0.6353
17926TIP3   OH275268   6.388   0.087   4.526 -0.3847  0.9401 -0.3007
17926TIP3    H175269   6.293   0.089   4.516 -0.4846 -0.0280  0.2648
17926TIP3    H275270   6.416   0.020   4.463  0.1845  2.7961 -2.1121
17927TIP3   OH275271   2.112   1.147  14.946  0.0832 -0.1724  0.1288
17927TIP3    H175272   2.089   1.218  15.006  2.1575  1.7651 -1.2027
17927TIP3    H275273   2.202   1.166  14.919  1.1533 -3.9731  0.5135
17928TIP3   OH275274   1.436   3.303  11.660 -0.8249  0.0998  0.3916
17928TIP3    H175275   1.394   3.387  11.643  0.6664  0.9421  0.7130
17928TIP3    H275276   1.447   3.263  11.574 -1.0646  0.4742  0.1879
17929TIP3   OH275277   3.790   4.070  11.537 -0.5100 -0.1400  0.4340
17929TIP3    H175278   3.844   4.085  11.614  0.9002 -1.1006 -0.3281
17929TIP3    H275279   3.736   3.994  11.559  0.0583 -0.5585  0.3901
17930TIP3   OH275280   4.141   5.879   1.087 -0.9555  0.4075 -0.0900
17930TIP3    H175281   4.106   5.896   1.175  2.3351  1.7898  1.1233
17930TIP3    H275282   4.118   5.956   1.037  1.2868  1.9592  1.0989
17931TIP3   OH275283   2.919   2.801  13.032  0.0752  0.3570  0.3874
17931TIP3    H175284   2.827   2.821  13.052  0.3225  1.3660  0.5800
17931TIP3    H275285   2.921   2.789  12.937 -0.1651  0.8688  0.3137
17932TIP3   OH275286   4.416   0.253  15.259  0.1134  0.0725  0.4153
17932TIP3    H175287   4.431   0.217  15.171 -1.1405  0.7878 -0.1231
17932TIP3    H275288   4.443   0.344  15.253 -0.4638  0.2623  0.6128
17933TIP3   OH275289   2.048   3.044   0.774  0.0553  0.3325  0.8305
17933TIP3    H175290   2.104   2.972   0.744  0.8752  0.8485  1.0947
17933TIP3    H275291   2.091   3.123   0.742 -0.4980  0.7436  1.0899
17934TIP3   OH275292   1.628   4.941   2.298  0.5624 -0.4815  0.3507
17934TIP3    H175293   1.547   4.990   2.312 -0.4493 -1.7829 -0.6354
17934TIP3    H275294   1.648   4.953   2.206 -0.0526 -2.3250 -0.0790
17935TIP3   OH275295   4.879   4.805   2.794  0.1052  0.1086  1.2198
17935TIP3    H175296   4.909   4.782   2.706  0.7844 -1.7570  1.9038
17935TIP3    H275297   4.796   4.851   2.779  0.1365 -0.3009 -0.3957
17936TIP3   OH275298   0.992   1.092  14.078 -0.2758 -0.0297 -0.0539
17936TIP3    H175299   1.047   1.013  14.080 -0.5368 -0.1996  0.8231
17936TIP3    H275300   0.964   1.099  13.987  1.6668  0.3959 -0.6846
17937TIP3   OH275301   5.659   5.294  10.634 -0.3879 -0.3983 -0.1997
17937TIP3    H175302   5.616   5.262  10.554 -0.0680 -1.1260 -0.0866
17937TIP3    H275303   5.749   5.310  10.607 -0.3564 -0.3432 -0.0587
17938TIP3   OH275304   4.440   0.687  12.518 -0.0860 -0.1598  0.1779
17938TIP3    H175305   4.484   0.747  12.578  1.1802  0.1865 -1.0741
17938TIP3    H275306   4.408   0.616  12.575  1.1152  0.1316  1.2580
17939TIP3   OH275307   5.185   2.321   4.477  0.5514 -0.7210 -0.5727
17939TIP3    H175308   5.275   2.318   4.507  0.8898 -3.8115 -1.5246
17939TIP3    H275309   5.185   2.385   4.405  1.8302 -0.2466 -0.1692
17940TIP3   OH275310   5.907   0.764  13.148 -0.2295 -0.7565 -0.1547
17940TIP3    H175311   5.891   0.671  13.138  0.3924 -0.7750 -1.0835
17940TIP3    H275312   5.993   0.779  13.107 -0.7876  0.3896 -0.9790
17941TIP3   OH275313   1.500   5.404  14.660 -0.1002 -0.0570  0.5810
17941TIP3    H175314   1.535   5.437  14.743  0.2379  0.8295  0.1023
17941TIP3    H275315   1.441   5.474  14.630  0.1948 -0.1234 -0.1804
17942TIP3   OH275316   1.226   5.544  12.067 -0.4608 -0.0876 -0.4148
17942TIP3    H175317   1.236   5.548  12.162 -2.1763  1.0219 -0.2421
17942TIP3    H275318   1.169   5.468  12.052  2.2871 -2.2368 -0.8738
17943TIP3   OH275319   6.753   4.116  12.084 -0.4688  0.6135 -0.2553
17943TIP3    H175320   6.701   4.044  12.118  1.0599 -1.0239 -1.1965
17943TIP3    H275321   6.721   4.128  11.994  1.4135 -1.1793 -1.2439
17944TIP3   OH275322   2.319   0.722  15.003 -0.0032  0.4890 -0.2083
17944TIP3    H175323   2.297   0.775  15.079 -2.0959  0.4857 -0.7439
17944TIP3    H275324   2.330   0.784  14.932  2.1784  0.5101  0.0959
17945TIP3   OH275325   1.980   4.633  16.392 -0.1691 -0.2895  0.2378
17945TIP3    H175326   2.035   4.696  16.438  1.3865 -1.0235 -0.5388
17945TIP3    H275327   1.987   4.658  16.300  3.3361 -3.4781 -0.6129
17946TIP3   OH275328   6.514   5.335   0.716 -0.2413  0.0590 -0.5617
17946TIP3    H175329   6.531   5.241   0.719 -0.7322  0.0013  1.5530
17946TIP3    H275330   6.572   5.373   0.782 -1.0102  1.0650 -0.4282
17947TIP3   OH275331   2.065   3.909   0.271 -0.5300  0.3550  0.1838
17947TIP3    H175332   1.993   3.929   0.330 -1.9241 -1.5498 -0.7520
17947TIP3    H275333   2.116   3.841   0.317 -0.5723  0.1658 -0.0477
17948TIP3   OH275334   5.625   4.473  14.439 -0.1851 -0.1700 -0.5868
17948TIP3    H175335   5.716   4.494  14.457 -1.2447  3.8409  1.2410
17948TIP3    H275336   5.603   4.405  14.504  0.4596  2.1049  2.2375
17949TIP3   OH275337   3.576   4.544   2.143  0.4004  0.5720 -0.2375
17949TIP3    H175338   3.585   4.526   2.049 -0.2338  0.2981 -0.2507
17949TIP3    H275339   3.629   4.622   2.157  1.7768 -0.2834 -0.5207
17950TIP3   OH275340   0.615   6.612   0.522 -0.0302  0.0149  0.0781
17950TIP3    H175341   0.605   6.646   0.611  3.2479 -1.2088  1.0460
17950TIP3    H275342   0.559   6.535   0.520 -0.4537  0.2812  0.9337
17951TIP3   OH275343   2.960   3.928   1.035  0.8443  0.0453  0.4677
17951TIP3    H175344   2.984   3.952   1.124  1.0959  0.1294  0.3795
17951TIP3    H275345   2.903   3.998   1.005  2.1763  0.9545 -0.0521
17952TIP3   OH275346   3.608   3.107  10.880  0.0706 -0.4144  0.2639
17952TIP3    H175347   3.636   3.099  10.972  1.8127  0.3265 -0.1615
17952TIP3    H275348   3.681   3.150  10.837  0.1416 -2.5516 -1.9179
17953TIP3   OH275349   6.021   2.798   3.039 -0.1927  0.3981 -0.7162
17953TIP3    H175350   6.057   2.776   3.125 -0.6200  1.1846 -0.3303
17953TIP3    H275351   5.950   2.734   3.026 -0.2268  0.3744 -0.4209
17954TIP3   OH275352   3.529   5.084   0.170 -0.0228 -0.0727  0.7037
17954TIP3    H175353   3.584   5.123   0.102 -0.9005 -1.7077 -1.0536
17954TIP3    H275354   3.590   5.062   0.240  0.7817  2.4321  0.8818
17955TIP3   OH275355   5.090   4.493   0.439  0.7818 -0.2476 -0.4629
17955TIP3    H175356   5.143   4.572   0.428 -0.2124  0.5749  0.4004
17955TIP3    H275357   5.000   4.524   0.432  0.2991 -0.9597  1.7857
17956TIP3   OH275358   5.284   0.329   2.416 -0.1971  0.4863  0.4729
17956TIP3    H175359   5.319   0.410   2.378  0.3859 -0.1850 -0.4607
17956TIP3    H275360   5.332   0.319   2.499 -0.3702  1.1547  0.6626
17957TIP3   OH275361   0.472   4.232  14.538 -0.1741  0.1124 -0.0001
17957TIP3    H175362   0.429   4.251  14.455 -1.0595  2.6575  0.9675
17957TIP3    H275363   0.417   4.272  14.605  2.5616  1.7389  1.4742
17958TIP3   OH275364   0.145   3.136   4.750  0.2834  0.1225  0.5041
17958TIP3    H175365   0.109   3.052   4.781 -1.5306  0.8457  0.4816
17958TIP3    H275366   0.216   3.111   4.691  1.2814 -1.3525  2.2293
17959TIP3   OH275367   2.220   5.557  15.741  0.4389  0.2676 -0.0229
17959TIP3    H175368   2.191   5.647  15.728 -2.3546 -0.8027 -2.1879
17959TIP3    H275369   2.143   5.511  15.773  2.0259 -1.2594  1.8584
17960TIP3   OH275370   3.659   1.753   1.167  0.5717 -0.1670  0.0858
17960TIP3    H175371   3.574   1.767   1.210  0.6822  0.6523  0.0493
17960TIP3    H275372   3.636   1.715   1.082  0.3480 -1.6900  0.7916
17961TIP3   OH275373   6.429   2.165   1.838  0.2515  0.1225  0.0298
17961TIP3    H175374   6.468   2.229   1.779  0.8479 -1.1495 -1.0077
17961TIP3    H275375   6.362   2.214   1.887  0.7183  1.5169 -0.6992
17962TIP3   OH275376   1.015   2.877  14.984  0.3538 -0.0033  0.0745
17962TIP3    H175377   1.103   2.870  15.020  0.0335  0.6470  1.0423
17962TIP3    H275378   1.006   2.968  14.959 -0.4974  0.2674  1.2716
17963TIP3   OH275379   3.178   6.393  11.544  0.1917 -0.0745  0.4826
17963TIP3    H175380   3.083   6.401  11.553 -0.1913 -0.3843 -2.5049
17963TIP3    H275381   3.198   6.307  11.582 -1.1954 -1.3074 -1.4222
17964TIP3   OH275382   0.186   5.706   3.074  0.6156 -0.2930 -0.0050
17964TIP3    H175383   0.162   5.791   3.037  0.9990  0.1062  0.6502
17964TIP3    H275384   0.132   5.697   3.152  0.8119 -0.5030  0.1094
17965TIP3   OH275385   0.848   1.628  11.795  0.5851  0.0466 -0.0502
17965TIP3    H175386   0.862   1.551  11.852  3.3853 -0.0997 -0.7891
17965TIP3    H275387   0.764   1.611  11.753  0.9137 -2.4386  0.1280
17966TIP3   OH275388   6.729   4.189  12.911  0.2432  0.0182  0.1475
17966TIP3    H175389   6.663   4.226  12.970 -0.5698 -0.1672 -0.6335
17966TIP3    H275390   6.699   4.212  12.823  2.0460  1.2854 -0.1832
17967TIP3   OH275391   5.363   4.561  12.357 -0.6734 -0.3903  0.0156
17967TIP3    H175392   5.393   4.494  12.417  1.3412 -1.2610 -1.8319
17967TIP3    H275393   5.435   4.623  12.351 -0.6803 -0.4805 -1.6415
17968TIP3   OH275394   5.505   6.371  11.456 -0.3353 -0.6808 -0.0702
17968TIP3    H175395   5.547   6.293  11.492  0.1393 -0.0069  0.8977
17968TIP3    H275396   5.577   6.423  11.421 -0.4298  0.0806  0.8180
17969TIP3   OH275397   2.751   0.276   2.071  0.3692  0.4436  0.4706
17969TIP3    H175398   2.739   0.308   1.981  1.6403  1.5430  0.6612
17969TIP3    H275399   2.813   0.337   2.110 -0.4386  0.1915  2.2338
17970TIP3   OH275400   6.016   3.649  11.056  0.2028  0.2648  0.9795
17970TIP3    H175401   5.987   3.739  11.065 -0.3400  0.1439  0.4726
17970TIP3    H275402   6.045   3.642  10.965 -0.2863 -0.2204  0.8560
17971TIP3   OH275403   2.968   2.815   4.392 -0.3318 -0.1440 -0.2153
17971TIP3    H175404   2.884   2.822   4.348 -0.1685  1.7146 -0.3151
17971TIP3    H275405   3.018   2.752   4.340 -2.1853 -2.6476  0.8115
17972TIP3   OH275406   3.127   4.479  14.150 -0.3794 -0.4382  0.0583
17972TIP3    H175407   3.197   4.494  14.212  0.1791 -0.1652 -0.6264
17972TIP3    H275408   3.049   4.517  14.191 -0.4274 -1.9095  1.4097
17973TIP3   OH275409   6.614   6.200   1.682  0.1678 -0.1659  0.1248
17973TIP3    H175410   6.693   6.179   1.632 -0.3394 -0.4520 -0.5600
17973TIP3    H275411   6.615   6.295   1.691  1.9917 -0.2969  2.4370
17974TIP3   OH275412   6.701   1.245  16.760 -0.4815  0.6761 -0.2720
17974TIP3    H175413   6.767   1.286  16.704 -2.0423  1.9978 -1.2650
17974TIP3    H275414   6.730   1.264  16.849  1.0950  0.1409 -0.6411
17975TIP3   OH275415   4.912   0.952   0.403 -0.0796  0.1900  0.0020
17975TIP3    H175416   5.001   0.985   0.394  0.2342 -1.0383 -2.2059
17975TIP3    H275417   4.877   0.995   0.481  1.9826  1.7170  0.1429
17976TIP3   OH275418   0.664   5.850   0.931 -0.0756 -0.3442 -0.3983
17976TIP3    H175419   0.741   5.828   0.878  0.8270 -0.0858  0.7802
17976TIP3    H275420   0.696   5.852   1.021 -1.5477 -0.5954  0.1596
17977TIP3   OH275421   3.450   5.239  16.140 -0.0831 -0.2530 -0.0265
17977TIP3    H175422   3.394   5.228  16.063  0.7768 -0.8484 -0.5820
17977TIP3    H275423   3.389   5.233  16.214 -0.8497 -0.1977 -0.6333
17978TIP3   OH275424   5.688   0.138   2.819  0.2336  0.2574  0.5054
17978TIP3    H175425   5.762   0.077   2.824 -0.0663 -0.0587  1.2543
17978TIP3    H275426   5.626   0.106   2.885 -1.0789 -0.1455 -0.8681
17979TIP3   OH275427   2.710   4.708  12.966 -0.0071 -0.3457  0.9342
17979TIP3    H175428   2.705   4.617  12.938  0.2500 -0.6506  1.8573
17979TIP3    H275429   2.701   4.705  13.061 -1.3814  0.7050  0.8736
17980TIP3   OH275430   0.102   4.621  16.509  0.0365 -0.2295  0.0654
17980TIP3    H175431   0.143   4.707  16.517  2.3997 -1.1976 -0.5143
17980TIP3    H275432   0.048   4.627  16.431  0.2708  0.7056 -0.0402
17981TIP3   OH275433   6.254   5.109   4.563 -0.2888  0.1618 -0.3011
17981TIP3    H175434   6.205   5.165   4.503 -2.7193  0.3154  1.6634
17981TIP3    H275435   6.250   5.154   4.647 -0.6859 -1.9959  0.9058
17982TIP3   OH275436   4.845   3.975   1.945  0.2270  0.3895 -0.2333
17982TIP3    H175437   4.916   4.036   1.970  0.5501  0.2887 -0.8878
17982TIP3    H275438   4.799   3.958   2.027  1.8569 -0.6937  0.5244
17983TIP3   OH275439   6.276   4.736   1.912  0.6983 -0.2171 -0.6352
17983TIP3    H175440   6.320   4.781   1.985  0.9553  0.0503 -0.9505
17983TIP3    H275441   6.280   4.643   1.935  0.3923 -0.1014 -0.0984
17984TIP3   OH275442   1.239   5.374  11.343 -0.6698 -0.9255  0.0526
17984TIP3    H175443   1.272   5.286  11.325  0.3472 -0.9166  1.6984
17984TIP3    H275444   1.260   5.424  11.264  0.8493 -1.5951  0.0065
17985TIP3   OH275445   4.607   2.256  14.202 -0.3034 -0.6711  1.0013
17985TIP3    H175446   4.580   2.327  14.260  1.2869  1.2105 -0.4605
17985TIP3    H275447   4.542   2.255  14.132  0.4697  0.3450  0.2542
17986TIP3   OH275448   3.481   0.668   4.387  0.4482  0.0329  0.1964
17986TIP3    H175449   3.529   0.650   4.467 -0.0638  1.7763  0.9397
17986TIP3    H275450   3.485   0.763   4.377 -0.2731 -0.0668 -1.3537
17987TIP3   OH275451   6.114   6.548   2.532 -0.2597 -0.3036  0.3576
17987TIP3    H175452   6.102   6.483   2.463  2.0932 -1.7419  1.1781
17987TIP3    H275453   6.134   6.496   2.610  1.1591  1.3843  1.1797
17988TIP3   OH275454   2.816   3.263  11.422  0.1348  0.3947 -0.1577
17988TIP3    H175455   2.776   3.198  11.363  1.0622 -0.0353 -0.3255
17988TIP3    H275456   2.881   3.213  11.471 -1.4926  0.4337  2.2061
17989TIP3   OH275457   4.231   5.280  14.698 -0.9101 -0.1211 -0.5933
17989TIP3    H175458   4.142   5.274  14.733  0.2320 -1.1953  2.4826
17989TIP3    H275459   4.255   5.190  14.679  0.5288 -0.2913  1.6547
17990TIP3   OH275460   1.252   1.234   3.033 -0.1650  0.8194 -0.2137
17990TIP3    H175461   1.276   1.154   3.080  1.0761  2.2989  1.8764
17990TIP3    H275462   1.300   1.304   3.079 -1.5622  2.8312 -1.6328
17991TIP3   OH275463   5.551   6.189  14.234 -0.4190  0.7033  0.0016
17991TIP3    H175464   5.514   6.123  14.176 -0.5842  0.4779  0.3579
17991TIP3    H275465   5.619   6.143  14.283  1.5088  1.4843 -1.7745
17992TIP3   OH275466   5.531   5.125  12.680  0.1515 -0.4785 -0.0154
17992TIP3    H175467   5.548   5.034  12.655  0.1161 -0.3915 -0.3644
17992TIP3    H275468   5.438   5.137  12.664 -0.0943 -0.7311  1.1781
17993TIP3   OH275469   2.315   1.303   4.681  0.0126  0.3148 -0.5202
17993TIP3    H175470   2.408   1.320   4.664  0.7229 -2.0526  0.6413
17993TIP3    H275471   2.310   1.209   4.698 -2.7799  0.1993 -1.4837
17994TIP3   OH275472   5.151   5.610  15.659  0.5116 -0.0676 -0.0233
17994TIP3    H175473   5.246   5.621  15.659  0.8555 -2.3433  0.9721
17994TIP3    H275474   5.133   5.560  15.579 -0.0441  1.4300 -0.8625
17995TIP3   OH275475   4.573   0.707  13.000  0.5708  0.5660  0.5036
17995TIP3    H175476   4.518   0.777  12.966 -0.3980 -1.6516 -3.0595
17995TIP3    H275477   4.634   0.687  12.928  1.7871 -1.2786  1.9233
17996TIP3   OH275478   4.819   4.337  12.044  0.5435  0.1242 -0.3452
17996TIP3    H175479   4.860   4.389  11.975  1.1896 -1.4898 -1.2431
17996TIP3    H275480   4.887   4.275  12.070 -0.0309  0.0514  1.0441
17997TIP3   OH275481   0.147   5.651  13.164  0.4068  0.1105 -0.3939
17997TIP3    H175482   0.172   5.743  13.164  1.3951 -0.1429 -1.4186
17997TIP3    H275483   0.097   5.640  13.246 -0.2614  1.6737 -0.5587
17998TIP3   OH275484   1.783   5.926  15.438  0.1899 -0.0754 -0.4055
17998TIP3    H175485   1.758   6.018  15.449 -0.2932 -0.2607  0.1495
17998TIP3    H275486   1.848   5.911  15.507 -0.7893 -0.5124  0.4596
17999TIP3   OH275487   4.423   2.406   4.776  0.1849  0.0736 -0.3449
17999TIP3    H175488   4.515   2.430   4.792  0.1977 -1.4381  2.4191
17999TIP3    H275489   4.396   2.361   4.855 -2.4320 -1.1886 -1.8299
18000TIP3   OH275490   1.659   3.833   2.605  0.2877  0.2040 -0.6976
18000TIP3    H175491   1.699   3.786   2.678 -0.2892  0.6529 -0.0748
18000TIP3    H275492   1.606   3.901   2.647  0.4562  0.8816 -1.5572
18001TIP3   OH275493   4.912   1.883  15.958  0.1811  0.5378  0.0215
18001TIP3    H175494   4.854   1.955  15.981 -1.8144 -0.4206 -1.6131
18001TIP3    H275495   4.882   1.810  16.013  2.5159  0.9944  2.0368
18002TIP3   OH275496   5.473   3.373   1.790  0.1861  0.2982  0.3059
18002TIP3    H175497   5.407   3.333   1.734  1.1685 -0.7922 -0.1242
18002TIP3    H275498   5.529   3.300   1.817  0.4323  0.9864  1.7523
18003TIP3   OH275499   0.789   1.769   4.786 -0.0914  0.5717  0.2527
18003TIP3    H175500   0.808   1.826   4.861  0.6613  0.4040  0.2028
18003TIP3    H275501   0.768   1.684   4.826 -1.4805  0.9368  0.3379
18004TIP3   OH275502   0.200   4.968  16.028  0.0618  0.7180  0.2333
18004TIP3    H175503   0.268   5.023  15.989  0.6146 -1.0402 -1.4725
18004TIP3    H275504   0.156   5.025  16.090  2.0159  2.4075  0.1862
18005TIP3   OH275505   4.643   4.075  10.395  0.4696  0.0241 -0.1952
18005TIP3    H175506   4.598   4.124  10.327 -1.4447 -1.0233  0.2535
18005TIP3    H275507   4.729   4.054  10.357 -0.0883  0.5152 -1.7936
18006TIP3   OH275508   1.754   3.573   1.030  0.7752  0.1638  0.1399
18006TIP3    H175509   1.667   3.585   1.069  1.3320 -0.2768  1.6228
18006TIP3    H275510   1.764   3.646   0.970 -0.4343  0.4801  0.2922
18007TIP3   OH275511   2.651   4.538   1.496  0.2494 -0.7942  0.4936
18007TIP3    H175512   2.629   4.596   1.569  3.9388 -0.1056  1.2667
18007TIP3    H275513   2.568   4.500   1.468 -1.7420  1.6580  2.7157
18008TIP3   OH275514   2.992   4.891   4.471  0.5869 -0.0846  0.0467
18008TIP3    H175515   2.953   4.806   4.449 -0.2728 -0.1730  1.7340
18008TIP3    H275516   2.932   4.955   4.433 -0.1205 -0.2407  0.8619
18009TIP3   OH275517   2.843   6.713   1.559 -0.2791  0.4851 -0.4788
18009TIP3    H175518   2.754   6.725   1.593  0.1234  0.2444  0.7154
18009TIP3    H275519   2.878   6.639   1.609  0.4880  0.3716 -1.1591
18010TIP3   OH275520   3.626   2.887  16.269  0.6478 -0.2143 -0.1309
18010TIP3    H175521   3.560   2.883  16.199 -0.3187 -0.2631  0.7487
18010TIP3    H275522   3.629   2.979  16.293  1.6664 -0.0502 -0.8626
18011TIP3   OH275523   2.434   1.957   4.827  0.0154 -0.0005 -0.8664
18011TIP3    H175524   2.380   1.934   4.751 -1.5767  0.8435 -0.0610
18011TIP3    H275525   2.414   2.049   4.843  0.8730  0.0260  0.1373
18012TIP3   OH275526   6.136   2.146  15.356 -0.3748  0.1588 -0.3512
18012TIP3    H175527   6.138   2.149  15.260  0.9437 -0.9487 -0.3930
18012TIP3    H275528   6.081   2.072  15.378 -0.0335 -0.0747 -0.2754
18013TIP3   OH275529   1.149   4.841   3.994  0.4787 -1.4106  0.6290
18013TIP3    H175530   1.096   4.918   3.976  1.4867 -1.0941 -1.1974
18013TIP3    H275531   1.239   4.872   3.988  0.8888 -2.4849  1.0433
18014TIP3   OH275532   4.810   0.375   0.881 -0.5443 -0.3949 -0.3238
18014TIP3    H175533   4.760   0.358   0.961 -2.1126 -0.4878 -1.2728
18014TIP3    H275534   4.845   0.463   0.892  0.2043 -0.8294  0.9160
18015TIP3   OH275535   1.546   1.774  11.221 -0.0977  0.2685 -0.1195
18015TIP3    H175536   1.641   1.774  11.217 -0.0684 -1.5733 -0.3428
18015TIP3    H275537   1.518   1.772  11.129 -0.3537  0.6898 -0.0536
18016TIP3   OH275538   0.912   3.284   3.695 -0.0954  0.2595 -0.0526
18016TIP3    H175539   0.888   3.269   3.787 -0.1202 -1.3447 -0.2774
18016TIP3    H275540   0.985   3.346   3.699 -1.1319  1.4671  0.9312
18017TIP3   OH275541   4.372   5.928  15.537 -0.2523  0.1604 -0.0995
18017TIP3    H175542   4.395   5.965  15.452  0.8874  0.1894  0.2071
18017TIP3    H275543   4.307   5.989  15.573  0.2562  0.8703 -0.3721
18018TIP3   OH275544   0.768   4.835   2.617 -0.4514 -0.4731 -0.0776
18018TIP3    H175545   0.701   4.829   2.549 -0.2457  1.3069 -0.4850
18018TIP3    H275546   0.755   4.921   2.657  0.6316 -0.7143  0.8630
18019TIP3   OH275547   1.193   4.577   0.546  0.0187 -0.2140 -0.5216
18019TIP3    H175548   1.193   4.656   0.599  0.1109 -0.1326 -0.6438
18019TIP3    H275549   1.272   4.530   0.573 -0.5683 -0.7534  0.2834
18020TIP3   OH275550   5.289   2.683  15.733  0.4977  0.1919 -0.1428
18020TIP3    H175551   5.342   2.741  15.678  0.2885 -1.0112 -1.7057
18020TIP3    H275552   5.204   2.680  15.689 -0.2393  0.5436  1.2310
18021TIP3   OH275553   2.227   1.790  16.817  0.2560 -0.5994  0.1248
18021TIP3    H175554   2.262   1.809  16.904 -2.3782 -1.0165  1.3866
18021TIP3    H275555   2.189   1.874  16.788  0.2137 -0.7176 -0.1673
18022TIP3   OH275556   1.744   4.768   0.900  0.0758 -0.6995  0.1708
18022TIP3    H175557   1.835   4.743   0.883  1.5519  1.9987  3.0418
18022TIP3    H275558   1.719   4.821   0.824  0.0967 -3.0229 -1.5620
18023TIP3   OH275559   5.184   0.624  14.624 -0.2526 -0.3650  0.3666
18023TIP3    H175560   5.201   0.531  14.606 -1.2554 -0.5372  0.2103
18023TIP3    H275561   5.123   0.651  14.555  3.5745  1.7480 -2.5417
18024TIP3   OH275562   0.712   0.441  13.460  0.0850  0.3035 -0.1318
18024TIP3    H175563   0.751   0.417  13.544 -0.3857 -1.4702 -0.3866
18024TIP3    H275564   0.765   0.514  13.429  0.5620  0.6752  1.4734
18025TIP3   OH275565   4.175   3.571   0.309 -0.6841  0.1255 -0.6790
18025TIP3    H175566   4.187   3.556   0.216 -0.2143  1.4990 -0.8708
18025TIP3    H275567   4.080   3.574   0.321 -0.7547 -0.8992 -0.9564
18026TIP3   OH275568   4.881   5.467   5.873  0.1878 -0.2392 -0.2246
18026TIP3    H175569   4.925   5.511   5.946  2.1080 -0.1563 -1.3523
18026TIP3    H275570   4.847   5.386   5.911 -0.7660  0.7885  1.2145
18027TIP3   OH275571   3.614   4.701  15.737 -0.4431  0.0207  0.5640
18027TIP3    H175572   3.692   4.753  15.759  0.5997 -0.1681 -2.2418
18027TIP3    H275573   3.640   4.611  15.751 -0.0041 -0.0585 -0.6036
18028TIP3   OH275574   0.249   1.397  13.312  0.3029  0.1135  0.1488
18028TIP3    H175575   0.335   1.422  13.346 -0.1314  0.9157  0.7002
18028TIP3    H275576   0.199   1.370  13.390 -0.8230  2.3117  0.2640
18029TIP3   OH275577   5.911   4.878  13.215  0.4053 -0.1853 -0.1678
18029TIP3    H175578   5.922   4.920  13.130 -1.0001  1.4261  0.3893
18029TIP3    H275579   5.867   4.795  13.195 -0.3827  0.4092 -0.9931
18030TIP3   OH275580   1.671   6.043   1.685 -0.0665  0.3293  0.3906
18030TIP3    H175581   1.630   6.071   1.603  0.8827  2.3516  0.5384
18030TIP3    H275582   1.616   5.972   1.716 -1.3276  0.5250 -1.2421
18031TIP3   OH275583   4.271   2.574  11.454 -0.3328  0.0166  0.2206
18031TIP3    H175584   4.294   2.667  11.441 -1.6772 -0.0186 -3.9902
18031TIP3    H275585   4.190   2.577  11.504  0.4917  0.9491  1.5933
18032TIP3   OH275586   0.785   1.475  14.184  0.4367 -0.1258  0.5835
18032TIP3    H175587   0.764   1.475  14.091 -0.8285  0.5254  0.8480
18032TIP3    H275588   0.868   1.426  14.190  1.5461  1.4247 -1.0885
18033TIP3   OH275589   5.267   1.236  16.983 -0.2291 -0.7231 -0.1888
18033TIP3    H175590   5.338   1.172  16.987  0.6017  0.0572 -1.5562
18033TIP3    H275591   5.194   1.188  16.943  0.0454 -1.1047 -0.2454
18034TIP3   OH275592   2.561   4.454   5.095 -0.6459  0.4671  0.1358
18034TIP3    H175593   2.522   4.386   5.040  1.1818  0.5598 -1.3730
18034TIP3    H275594   2.570   4.529   5.036 -2.0790  1.8832  1.6126
18035TIP3   OH275595   5.548   1.544   4.362  0.1213  0.1042 -0.1888
18035TIP3    H175596   5.567   1.495   4.442 -0.6899  0.1799  0.0538
18035TIP3    H275597   5.549   1.636   4.390  0.7391  0.1867 -0.4595
18036TIP3   OH275598   1.964   6.587  16.146  0.3118  0.3620 -0.0664
18036TIP3    H175599   1.893   6.555  16.090  1.1277 -0.2375 -0.7823
18036TIP3    H275600   2.042   6.578  16.092  1.0480  0.2308  1.0118
18037TIP3   OH275601   0.833   6.828  11.461 -0.3966  0.3373  0.6239
18037TIP3    H175602   0.840   6.899  11.397  2.2979 -0.8270 -0.5001
18037TIP3    H275603   0.908   6.772  11.444 -0.6517 -1.1028  3.5751
18038TIP3   OH275604   0.492   2.979  10.715 -0.7085 -0.8524  0.2351
18038TIP3    H175605   0.417   2.920  10.711  0.3355 -2.2973  1.1191
18038TIP3    H275606   0.551   2.939  10.779  0.9202  0.1124 -0.5987
18039TIP3   OH275607   5.385   2.529  13.807 -0.2675  0.2592 -0.5417
18039TIP3    H175608   5.293   2.527  13.831 -0.3165 -0.9568 -0.7505
18039TIP3    H275609   5.412   2.437  13.807  1.3363  0.6607  0.9909
18040TIP3   OH275610   0.191   5.463   0.520  0.5850 -0.4635 -0.5370
18040TIP3    H175611   0.160   5.486   0.432  0.0669  1.3538  0.0968
18040TIP3    H275612   0.284   5.444   0.508  0.1805 -1.9503 -1.7429
18041TIP3   OH275613   3.967   2.748  10.779  1.1416 -0.4105  0.7385
18041TIP3    H175614   3.912   2.674  10.803  0.2213  0.5465  1.7203
18041TIP3    H275615   3.941   2.771  10.690  0.6616 -0.5923  0.8320
18042TIP3   OH275616   3.806   4.093   0.251 -0.3822  0.0632 -0.3862
18042TIP3    H175617   3.823   4.005   0.285 -0.1867  0.0434 -0.5323
18042TIP3    H275618   3.893   4.127   0.228 -0.5365 -0.0414 -1.1579
18043TIP3   OH275619   3.179   2.849  11.788 -0.3385  0.4747  0.4646
18043TIP3    H175620   3.265   2.813  11.769 -1.0475 -1.2166  0.3091
18043TIP3    H275621   3.196   2.938  11.819  1.4902 -0.0361  0.9965
18044TIP3   OH275622   4.116   4.520   3.867  0.5002  0.2699  0.5724
18044TIP3    H175623   4.168   4.489   3.941  1.0979  0.4693  0.2434
18044TIP3    H275624   4.073   4.442   3.833 -0.9763  0.3813  2.0233
18045TIP3   OH275625   2.711   2.122  12.365  0.0876 -0.2717 -0.7313
18045TIP3    H175626   2.715   2.047  12.425  0.2375 -1.1424 -1.7927
18045TIP3    H275627   2.619   2.148  12.364  0.3109  0.7534  1.0302
18046TIP3   OH275628   4.532   3.052  15.521 -0.1092 -0.1555 -0.2485
18046TIP3    H175629   4.617   3.008  15.519  1.0320  1.9417 -1.3972
18046TIP3    H275630   4.495   3.036  15.434 -0.0210  0.5388 -0.4127
18047TIP3   OH275631   5.869   3.936   0.077 -0.3697  0.1425  0.1798
18047TIP3    H175632   5.823   3.967  -0.001 -0.2126  0.1998  0.1103
18047TIP3    H275633   5.955   3.979   0.073  0.0082 -0.6186 -0.1399
18048TIP3   OH275634   4.822   4.630   2.227 -0.2117  0.4345  0.0443
18048TIP3    H175635   4.747   4.622   2.286  0.6002  0.9558  1.1893
18048TIP3    H275636   4.784   4.630   2.140 -1.5205  0.4276  0.5899
18049TIP3   OH275637   2.849   0.145   3.958  0.2800 -0.0710 -0.3468
18049TIP3    H175638   2.757   0.122   3.945  0.2414 -1.8078  2.3054
18049TIP3    H275639   2.851   0.240   3.954 -2.1451  0.1795  1.9389
18050TIP3   OH275640   3.040   6.836   0.523 -0.3903  0.3944 -0.4796
18050TIP3    H175641   2.960   6.824   0.574 -0.1432  1.5089  0.1987
18050TIP3    H275642   3.027   6.780   0.445 -0.8767 -1.1311  0.6418
18051TIP3   OH275643   1.372   0.472   4.383  0.3573  0.1551 -0.4238
18051TIP3    H175644   1.402   0.553   4.343  0.8381 -1.1896 -3.0620
18051TIP3    H275645   1.351   0.415   4.309 -0.8837 -1.8115  1.3130
18052TIP3   OH275646   0.614   2.468   2.451 -0.3364  0.0222 -0.1669
18052TIP3    H175647   0.696   2.478   2.499 -0.7446  1.4560  0.3005
18052TIP3    H275648   0.559   2.538   2.484 -1.4649 -0.4051 -1.0728
18053TIP3   OH275649   6.531   2.318  16.930 -0.2575 -0.5918 -0.2762
18053TIP3    H175650   6.578   2.246  16.887 -1.2333  0.1162 -2.6547
18053TIP3    H275651   6.601   2.377  16.960  0.5230 -2.0607  0.9349
18054TIP3   OH275652   5.624   2.283   2.773 -0.5123 -0.5150 -0.2054
18054TIP3    H175653   5.565   2.351   2.740  1.4359  0.3277 -2.2235
18054TIP3    H275654   5.606   2.280   2.867 -1.3461  2.1453 -0.1735
18055TIP3   OH275655   2.755   5.338  14.107  0.1688  0.2532  0.8091
18055TIP3    H175656   2.724   5.317  14.019 -1.3585 -0.0181  1.3927
18055TIP3    H275657   2.830   5.396  14.092 -0.7717  1.1709 -0.6562
18056TIP3   OH275658   6.126   6.004   1.589  0.4655  0.3798 -0.4717
18056TIP3    H175659   6.187   6.042   1.652 -0.4051  1.5556 -0.2961
18056TIP3    H275660   6.178   5.940   1.541  1.1534 -0.5783  1.4407
18057TIP3   OH275661   1.406   1.462  12.283 -0.2589  0.3576  0.1382
18057TIP3    H175662   1.361   1.521  12.222  0.5673 -0.3421 -1.1917
18057TIP3    H275663   1.347   1.456  12.358  0.2836  4.0727  1.0578
18058TIP3   OH275664   3.025   4.657  15.549 -0.4923  0.2831  0.2634
18058TIP3    H175665   2.948   4.693  15.505 -0.3946 -0.1200 -0.2588
18058TIP3    H275666   3.069   4.733  15.587 -0.9339  0.5646  0.2217
18059TIP3   OH275667   6.500   0.349  12.059 -0.5608 -0.1262 -0.2024
18059TIP3    H175668   6.589   0.316  12.053 -0.5584  0.0650 -1.9331
18059TIP3    H275669   6.508   0.444  12.049 -1.0500 -0.2663 -2.7795
18060TIP3   OH275670   0.801   2.147  15.339 -0.5086 -0.3581 -0.0156
18060TIP3    H175671   0.787   2.138  15.245 -0.3702 -2.6658  0.1133
18060TIP3    H275672   0.794   2.241  15.356 -0.7309  0.0937 -2.2809
18061TIP3   OH275673   2.232   0.083  16.247  0.3440  0.4722 -0.2486
18061TIP3    H175674   2.288   0.111  16.320 -0.1215 -1.2165  0.7994
18061TIP3    H275675   2.155   0.044  16.289 -0.5829  0.6936 -1.6600
18062TIP3   OH275676   2.508   3.918   4.005  0.1461  0.0535  0.2545
18062TIP3    H175677   2.459   3.851   4.052 -0.1028  0.1788  0.1760
18062TIP3    H275678   2.463   3.927   3.921  0.6615 -0.2571 -0.0597
18063TIP3   OH275679   3.318   0.368  13.151 -0.3639  0.6330  0.0527
18063TIP3    H175680   3.379   0.316  13.203 -0.2073  0.4667 -0.2878
18063TIP3    H275681   3.235   0.319  13.155 -0.1246  0.1590 -0.5561
18064TIP3   OH275682   4.446   1.277  13.249  0.1043  0.6386 -0.3381
18064TIP3    H175683   4.448   1.280  13.153  2.3985 -2.2626 -0.5114
18064TIP3    H275684   4.521   1.331  13.276  0.7992 -0.3024 -0.3320
18065TIP3   OH275685   1.305   4.876  15.665  0.0850 -0.1857  0.0932
18065TIP3    H175686   1.350   4.959  15.681  0.7866 -0.7629  1.2841
18065TIP3    H275687   1.289   4.874  15.571  3.0040 -0.1663 -0.4984
18066TIP3   OH275688   2.020   1.363   1.783 -0.6312  0.0936  0.0945
18066TIP3    H175689   1.972   1.286   1.751 -0.8038  0.7717 -1.3616
18066TIP3    H275690   1.969   1.394   1.858 -1.5715 -0.1500 -0.4289
18067TIP3   OH275691   0.399   4.579   1.848  0.5682 -0.0748 -0.4479
18067TIP3    H175692   0.342   4.618   1.782 -0.2785 -1.4837 -0.5991
18067TIP3    H275693   0.426   4.652   1.903 -2.0536  0.5731  0.0952
18068TIP3   OH275694   2.824   5.286   2.118  0.0341 -0.4742  0.5410
18068TIP3    H175695   2.835   5.306   2.025 -0.5440  2.3979  0.9984
18068TIP3    H275696   2.897   5.331   2.160 -1.3158  0.7167  1.6896
18069TIP3   OH275697   6.133   4.577  13.954  0.0911 -1.0054  0.1557
18069TIP3    H175698   6.075   4.552  13.881 -1.3890  1.2294  0.4925
18069TIP3    H275699   6.125   4.672  13.960  0.4505 -1.0702  3.0211
18070TIP3   OH275700   4.751   0.398  15.144 -0.4241  0.1218  0.4091
18070TIP3    H175701   4.686   0.461  15.113 -0.0308  0.8345  0.9854
18070TIP3    H275702   4.787   0.438  15.224  1.6196  0.3867 -0.5676
18071TIP3   OH275703   5.618   3.330  10.906 -0.8102 -0.3570 -0.2554
18071TIP3    H175704   5.684   3.372  10.962 -0.3381 -0.0670 -1.0079
18071TIP3    H275705   5.554   3.295  10.967 -0.7071  0.6199  0.4472
18072TIP3   OH275706   3.453   2.412  15.595 -0.6620  0.0352  0.1594
18072TIP3    H175707   3.485   2.501  15.607  1.4033 -0.5366 -0.7362
18072TIP3    H275708   3.358   2.422  15.585 -0.4259  2.1692 -0.4141
18073TIP3   OH275709   5.910   1.529   1.445  0.4754  0.1776  0.5913
18073TIP3    H175710   5.929   1.605   1.500  0.9791 -0.2643  1.0425
18073TIP3    H275711   5.886   1.460   1.507 -0.8428  0.2034  0.1403
18074TIP3   OH275712   4.537   3.102   0.783  0.7653  0.3151  0.3013
18074TIP3    H175713   4.522   3.087   0.877 -2.7518  2.0239  0.1966
18074TIP3    H275714   4.488   3.032   0.740  1.4127  0.2058 -0.2744
18075TIP3   OH275715   1.344   1.144  13.154  0.2006  0.3253 -0.0709
18075TIP3    H175716   1.411   1.157  13.221  2.2101  2.1267 -2.2743
18075TIP3    H275717   1.388   1.096  13.084 -1.8623 -1.5632 -0.1784
18076TIP3   OH275718   6.677   4.426  11.458  0.4430 -0.1772  0.6100
18076TIP3    H175719   6.740   4.377  11.406  0.6692  0.2456  0.4776
18076TIP3    H275720   6.604   4.366  11.470  1.0617 -0.8506  1.1623
18077TIP3   OH275721   1.916   5.655  12.661 -0.0150  0.0304 -0.0264
18077TIP3    H175722   1.872   5.581  12.702  1.4471 -0.3484  0.9477
18077TIP3    H275723   2.009   5.630  12.660  0.3849  1.4229 -0.6156
18078TIP3   OH275724   2.054   1.338  14.584 -0.0258 -0.5887  0.1735
18078TIP3    H175725   2.138   1.371  14.614 -0.1466  1.0371 -1.0929
18078TIP3    H275726   2.050   1.363  14.491 -0.7543 -3.0465 -0.5620
18079TIP3   OH275727   0.624   1.533   0.484  0.0287  0.1889 -0.1050
18079TIP3    H175728   0.662   1.621   0.478 -1.0185  0.6445 -0.3998
18079TIP3    H275729   0.572   1.524   0.404  2.3408 -1.8307 -1.4942
18080TIP3   OH275730   4.661   6.234  11.039 -0.0415  0.2679  0.4243
18080TIP3    H175731   4.636   6.260  11.128  0.7330  2.2022  0.1196
18080TIP3    H275732   4.711   6.308  11.005 -0.4249 -0.3702 -1.6861
18081TIP3   OH275733   0.446   2.561   2.829 -0.2606 -0.0199 -0.2762
18081TIP3    H175734   0.405   2.477   2.809 -1.7433  0.5173  0.3555
18081TIP3    H275735   0.433   2.613   2.749 -0.7648  0.1209 -0.1076
18082TIP3   OH275736   1.564   0.878   5.525  0.2102 -0.4182  0.6679
18082TIP3    H175737   1.605   0.798   5.559  0.6643 -0.7222 -0.5550
18082TIP3    H275738   1.618   0.902   5.450  1.5623  2.4257  2.3590
18083TIP3   OH275739   0.316   5.561  12.697 -0.1133 -0.0558 -0.3079
18083TIP3    H175740   0.405   5.559  12.732 -0.6251 -0.6407  1.0518
18083TIP3    H275741   0.304   5.475  12.656  0.4007  0.5384 -1.7823
18084TIP3   OH275742   3.593   1.771   3.366 -0.4619 -0.0614  0.4558
18084TIP3    H175743   3.647   1.757   3.288  0.7331  1.6878  0.9098
18084TIP3    H275744   3.555   1.685   3.385 -1.4228 -0.3981 -2.4640
18085TIP3   OH275745   6.454   2.325  15.468  0.4982  0.0406 -0.9870
18085TIP3    H175746   6.367   2.328  15.507  0.9672 -0.1008  0.1334
18085TIP3    H275747   6.441   2.342  15.375 -0.7861 -0.5509 -0.9302
18086TIP3   OH275748   2.793   4.854   3.988 -0.2546  0.0964  0.4429
18086TIP3    H175749   2.839   4.772   3.971  1.4003  0.7327  1.6351
18086TIP3    H275750   2.802   4.869   4.082  1.9964  3.0011 -0.0761
18087TIP3   OH275751   5.727   0.718  11.056 -0.7401  0.5162 -0.0228
18087TIP3    H175752   5.713   0.808  11.085 -0.5968  0.3836  0.4612
18087TIP3    H275753   5.755   0.727  10.964  1.1514  1.0938  0.5540
18088TIP3   OH275754   0.279   5.890  13.677 -0.5175  0.5212 -0.1223
18088TIP3    H175755   0.189   5.910  13.702 -0.2434 -1.1150  2.5093
18088TIP3    H275756   0.270   5.830  13.603 -1.4788  2.2227 -1.4572
18089TIP3   OH275757   4.087   3.188   5.831  0.8621  0.2749 -0.6581
18089TIP3    H175758   4.018   3.242   5.870  1.4691 -0.7347  2.0583
18089TIP3    H275759   4.123   3.138   5.905  0.6597 -3.5211 -2.8489
18090TIP3   OH275760   5.008   6.258  13.051 -0.0017  0.0463 -0.5591
18090TIP3    H175761   5.010   6.333  13.111  2.2434  0.4002 -0.9725
18090TIP3    H275762   4.981   6.184  13.106 -0.8413  0.8839  0.1953
18091TIP3   OH275763   0.025   2.149  13.588  0.1709  0.5383 -0.5257
18091TIP3    H175764  -0.045   2.137  13.523 -0.5033  1.5426 -0.0146
18091TIP3    H275765   0.071   2.065  13.589 -1.1266 -0.2155 -0.7730
18092TIP3   OH275766   2.189   5.705  14.988  0.3103  0.4462  0.5886
18092TIP3    H175767   2.244   5.668  14.920 -0.6935 -0.6761  0.3659
18092TIP3    H275768   2.250   5.727  15.059  1.1481  0.1026 -0.0151
18093TIP3   OH275769   1.966   4.294  13.388 -0.3880 -0.3126  0.1743
18093TIP3    H175770   1.919   4.316  13.469  1.2887 -0.6870  1.2930
18093TIP3    H275771   2.052   4.263  13.418  0.2593 -0.4877 -1.7612
18094TIP3   OH275772   6.003   2.485  11.757 -0.1283 -0.1868  0.5146
18094TIP3    H175773   5.946   2.557  11.728  0.7987 -0.4654 -2.2053
18094TIP3    H275774   6.090   2.525  11.763  0.3881 -1.0292 -0.9946
18095TIP3   OH275775   2.297   3.925  16.551  0.5080 -0.1631  0.0832
18095TIP3    H175776   2.224   3.914  16.612  0.0895 -1.2729 -0.5954
18095TIP3    H275777   2.373   3.890  16.598  0.2442 -0.7382  0.0835
18096TIP3   OH275778   2.331   1.996  17.100 -0.5658 -0.0846  0.3141
18096TIP3    H175779   2.421   1.989  17.128 -1.1013 -0.0687  2.1320
18096TIP3    H275780   2.321   2.088  17.073  0.4738 -0.5735 -1.9356
18097TIP3   OH275781   2.012   3.632  11.513 -0.3789 -0.1428 -0.9082
18097TIP3    H175782   2.061   3.645  11.432  1.5611 -0.3180  0.1865
18097TIP3    H275783   1.999   3.720  11.548  2.6697 -0.1970  0.7226
18098TIP3   OH275784   6.277   5.943  16.723 -0.0051  0.3519 -0.0268
18098TIP3    H175785   6.217   5.901  16.662  0.2374  0.8318 -0.6063
18098TIP3    H275786   6.338   5.992  16.667  3.0356 -2.7045  0.2677
18099TIP3   OH275787   3.712   5.243  15.270  0.0835 -0.6212  0.3051
18099TIP3    H175788   3.735   5.330  15.304  2.1788 -0.3043 -1.6614
18099TIP3    H275789   3.787   5.188  15.292  1.1692 -0.5901 -2.7553
18100TIP3   OH275790   6.777   2.297   5.673  0.2006  0.0231 -0.2199
18100TIP3    H175791   6.767   2.239   5.748  0.9573 -0.8418 -0.7737
18100TIP3    H275792   6.799   2.240   5.600 -1.0803  0.7782 -1.2599
18101TIP3   OH275793   6.726   1.860   1.805  0.1146 -0.4940  0.2482
18101TIP3    H175794   6.635   1.883   1.785 -0.5906 -2.7696  0.5301
18101TIP3    H275795   6.742   1.780   1.755  1.8834 -0.3034  0.4489
18102TIP3   OH275796   2.168   0.152  14.622 -0.3107 -0.2993  0.0951
18102TIP3    H175797   2.186   0.233  14.576  0.3388  0.1385  1.0761
18102TIP3    H275798   2.131   0.180  14.706 -2.7884 -1.1066 -0.6413
18103TIP3   OH275799   3.389   3.583  14.019  0.2115 -0.0926  0.2056
18103TIP3    H175800   3.403   3.558  13.928  1.6869  1.3579 -0.0065
18103TIP3    H275801   3.294   3.594  14.026  0.1066  0.1991 -1.2708
18104TIP3   OH275802   5.796   0.822  14.009  0.1818  0.0416  0.6660
18104TIP3    H175803   5.865   0.757  14.027 -0.7578 -0.8771  1.0677
18104TIP3    H275804   5.727   0.802  14.072 -1.1831 -0.1845 -0.8325
18105TIP3   OH275805   3.387   4.658  15.027 -0.2651  0.0966  0.6333
18105TIP3    H175806   3.412   4.581  14.976 -0.7804  0.0535  0.4403
18105TIP3    H275807   3.309   4.693  14.982 -0.2493  0.5218  0.9258
18106TIP3   OH275808   3.631   2.091   2.488 -0.3364  0.8307 -0.2736
18106TIP3    H175809   3.636   2.186   2.479 -0.6786  0.8939  0.1847
18106TIP3    H275810   3.707   2.068   2.543 -0.8725  0.9683  0.5412
18107TIP3   OH275811   6.062   4.892  14.253 -0.1294 -0.3386 -0.4150
18107TIP3    H175812   6.107   4.972  14.283  0.5825 -0.8152 -0.1846
18107TIP3    H275813   5.972   4.903  14.284  0.6703 -1.0273  2.4360
18108TIP3   OH275814   6.186   6.394  15.902 -0.1640  0.1397  0.1650
18108TIP3    H175815   6.119   6.377  15.836 -0.8607 -0.5265  1.0116
18108TIP3    H275816   6.137   6.401  15.984  0.5248  2.2847  0.4560
18109TIP3   OH275817   0.335   2.510   3.973 -0.2886 -0.2455  0.7299
18109TIP3    H175818   0.354   2.503   4.067 -0.0726  0.2561  0.7238
18109TIP3    H275819   0.413   2.551   3.936 -0.8721  0.7155  0.5255
18110TIP3   OH275820   4.574   0.998  13.632 -0.1949 -0.1221 -0.0750
18110TIP3    H175821   4.597   1.004  13.725  0.7930  0.1012 -0.3300
18110TIP3    H275822   4.511   1.070  13.619  0.3339  0.4086  0.2298
18111TIP3   OH275823   3.851   2.495  10.455  0.2521  0.1996 -0.3359
18111TIP3    H175824   3.804   2.485  10.372 -0.2939  0.3757 -0.0516
18111TIP3    H275825   3.791   2.460  10.521 -0.0983  1.7989  0.2187
18112TIP3   OH275826   1.159   2.249  15.283  0.1437  0.0257 -0.1402
18112TIP3    H175827   1.132   2.242  15.192  1.7726 -2.1743 -0.5545
18112TIP3    H275828   1.127   2.168  15.323  0.1260  0.6051  1.0517
18113TIP3   OH275829   1.772   4.708  16.000 -0.0986  0.1514 -0.1075
18113TIP3    H175830   1.856   4.694  16.042 -0.3971  1.8764  1.1584
18113TIP3    H275831   1.793   4.734  15.911  0.9250  3.6307  1.0199
18114TIP3   OH275832   3.739   3.697   0.659  0.0121 -0.5737  0.0177
18114TIP3    H175833   3.727   3.661   0.747 -1.5407 -0.4032 -0.0898
18114TIP3    H275834   3.698   3.783   0.662  1.1106 -0.0137 -0.5297
18115TIP3   OH275835   1.037   0.658   4.155  0.0258  0.5306 -0.1854
18115TIP3    H175836   1.075   0.692   4.074  0.8859 -3.5005 -1.7074
18115TIP3    H275837   0.948   0.693   4.156  0.2065  1.2471 -2.5072
18116TIP3   OH275838   0.337   0.967  10.026 -0.0981  0.2924  0.3637
18116TIP3    H175839   0.279   0.897  10.057 -0.3243  0.5037  0.4271
18116TIP3    H275840   0.405   0.922   9.976 -1.7701  0.2403 -1.9873
18117TIP3   OH275841   3.455   1.374  11.874 -0.0496 -0.5280  0.0846
18117TIP3    H175842   3.459   1.278  11.871 -0.6567 -0.5522 -0.1585
18117TIP3    H275843   3.425   1.399  11.786 -0.2534 -0.1392  0.2639
18118TIP3   OH275844   6.378   6.805   4.804 -0.1335 -0.1974 -0.3008
18118TIP3    H175845   6.294   6.822   4.845 -0.7881 -1.6667 -0.9776
18118TIP3    H275846   6.359   6.800   4.710  0.6533 -0.7824 -0.4472
18119TIP3   OH275847   3.418   5.285  13.852  0.3212 -0.1467 -0.2964
18119TIP3    H175848   3.459   5.227  13.915 -0.3937 -1.7946 -1.2933
18119TIP3    H275849   3.490   5.336  13.815  1.1499 -1.2946 -0.3071
18120TIP3   OH275850   2.305   2.483   1.651  0.0223 -0.7184 -0.2002
18120TIP3    H175851   2.270   2.417   1.591 -2.2174  0.2931 -0.1174
18120TIP3    H275852   2.328   2.557   1.595 -0.5283 -0.3845  0.0053
18121TIP3   OH275853   6.549   6.431   5.788  0.2227  0.7034 -0.1714
18121TIP3    H175854   6.579   6.385   5.709  0.3761  0.1221  0.2194
18121TIP3    H275855   6.625   6.433   5.845  0.1576  1.2711 -0.1009
18122TIP3   OH275856   6.431   0.353   3.891  0.5997  0.4311  0.0330
18122TIP3    H175857   6.435   0.417   3.820  0.8115 -0.5939 -0.9042
18122TIP3    H275858   6.387   0.277   3.853  0.2582  0.0350  1.1521
18123TIP3   OH275859   6.549   4.574  10.172 -0.2099  0.2779 -0.2575
18123TIP3    H175860   6.496   4.632  10.118 -0.1759  0.7341  0.1848
18123TIP3    H275861   6.490   4.546  10.242 -0.1436  0.0166 -0.3066
18124TIP3   OH275862   5.312   0.837  16.105 -0.8187 -0.1226  0.4393
18124TIP3    H175863   5.378   0.779  16.066  1.1633  1.9001  0.5857
18124TIP3    H275864   5.236   0.827  16.047  0.1709 -1.2834 -0.7500
18125TIP3   OH275865   6.034   3.750   2.235 -0.2877 -0.3516  0.3326
18125TIP3    H175866   5.995   3.822   2.285 -1.9618 -0.1623 -1.1539
18125TIP3    H275867   6.061   3.789   2.153 -0.0323 -1.1648  0.0228
18126TIP3   OH275868   6.567   3.409  11.715  0.9029  0.1363  0.0962
18126TIP3    H175869   6.551   3.504  11.716  2.9795  0.5372 -0.3241
18126TIP3    H275870   6.636   3.397  11.650 -0.1451 -1.8469 -0.7471
18127TIP3   OH275871   3.024   0.435  15.508  0.0923 -0.2205 -0.8099
18127TIP3    H175872   3.092   0.470  15.566  0.1398  0.6367 -1.3624
18127TIP3    H275873   2.961   0.394  15.567 -1.1416  2.7480  0.1425
18128TIP3   OH275874   6.590   2.561  14.176  0.2399 -0.1030  0.6968
18128TIP3    H175875   6.538   2.629  14.133  1.1300  0.1535 -0.0012
18128TIP3    H275876   6.525   2.501  14.213 -0.5567  0.7684  0.7561
18129TIP3   OH275877   4.137   3.802   3.678  0.4945  0.5160 -0.1451
18129TIP3    H175878   4.112   3.842   3.594  0.5566  2.5898  0.7630
18129TIP3    H275879   4.233   3.797   3.674  0.4583 -0.0900 -0.4672
18130TIP3   OH275880   5.060   0.355   4.048 -0.1347  0.0848  0.5102
18130TIP3    H175881   4.982   0.408   4.065 -0.5276  0.1193 -1.2028
18130TIP3    H275882   5.100   0.396   3.971  0.2406 -1.3806 -0.0942
18131TIP3   OH275883   4.266   5.333   2.983  0.5659 -0.6485  0.1267
18131TIP3    H175884   4.250   5.275   2.908 -2.6774  0.3413 -0.0899
18131TIP3    H275885   4.267   5.421   2.946  1.3121 -0.2691  0.9941
18132TIP3   OH275886   6.035   1.788   4.998  0.1110 -0.4595  0.4038
18132TIP3    H175887   5.955   1.794   4.947 -0.4682  1.1518  1.4231
18132TIP3    H275888   6.006   1.781   5.089  1.0590  1.0333  0.8781
18133TIP3   OH275889   2.457   1.624  11.109 -0.0333  0.1935 -0.0210
18133TIP3    H175890   2.386   1.565  11.084 -1.9249  1.6345  1.6418
18133TIP3    H275891   2.435   1.708  11.070  2.7308 -0.0581 -2.5212
18134TIP3   OH275892   1.274   0.259   2.614 -0.2421  0.0556  0.1327
18134TIP3    H175893   1.290   0.190   2.678 -0.4664  0.4862  0.6614
18134TIP3    H275894   1.190   0.236   2.574 -0.0781 -0.2403 -0.0482
18135TIP3   OH275895   0.174   4.470  14.095  0.1952 -0.4308 -0.3800
18135TIP3    H175896   0.250   4.491  14.040 -0.7084  0.2717 -1.4062
18135TIP3    H275897   0.101   4.515  14.052 -1.0341 -2.1089 -0.1072
18136TIP3   OH275898   6.387   5.561  13.052 -0.1937  0.3327 -0.0337
18136TIP3    H175899   6.381   5.655  13.064 -2.4957  0.1621  0.6153
18136TIP3    H275900   6.469   5.536  13.095  0.6103  2.0492 -0.5138
18137TIP3   OH275901   4.046   3.130   5.203  0.2642  0.1645  0.0418
18137TIP3    H175902   4.063   3.120   5.109  0.1305 -0.5989  0.0908
18137TIP3    H275903   4.122   3.176   5.237 -0.1492  1.3778 -0.6107
18138TIP3   OH275904   6.790   1.955   4.141 -0.1957 -0.3557 -0.3050
18138TIP3    H175905   6.701   1.991   4.133  0.4921  1.1059 -2.2625
18138TIP3    H275906   6.792   1.884   4.077  0.1015 -0.2639 -0.3967
18139TIP3   OH275907   6.029   0.021  15.886 -1.0521  0.1701  0.3743
18139TIP3    H175908   6.095  -0.038  15.849  1.7795  2.2497  1.7134
18139TIP3    H275909   5.957  -0.037  15.912  0.9853 -2.5332  0.4503
18140TIP3   OH275910   3.319   0.852   3.693 -0.4724  0.0767  0.0898
18140TIP3    H175911   3.400   0.874   3.646 -0.1553 -0.1678  0.5090
18140TIP3    H275912   3.270   0.798   3.632 -0.1159 -0.1472 -0.0045
18141TIP3   OH275913   0.049   1.341  12.300  0.1702 -0.6865 -0.0917
18141TIP3    H175914   0.095   1.318  12.381 -0.9788 -2.3630  0.1364
18141TIP3    H275915   0.111   1.396  12.252  2.8196 -3.5426 -0.2381
18142TIP3   OH275916   2.275   4.416  15.367 -0.0326 -0.5067 -0.3008
18142TIP3    H175917   2.306   4.454  15.285 -1.7100  0.2495 -0.6285
18142TIP3    H275918   2.314   4.329  15.370 -0.0150 -0.5820 -1.9378
18143TIP3   OH275919   5.349   4.947   1.976 -0.0746  0.4250  0.7497
18143TIP3    H175920   5.417   5.007   2.005  0.0110 -0.2819  2.1223
18143TIP3    H275921   5.303   4.922   2.057 -0.5521 -0.8027  0.1332
18144TIP3   OH275922   6.104   6.218  13.662  0.3509  0.1480 -0.3484
18144TIP3    H175923   6.090   6.201  13.755 -0.2519 -0.3563 -0.5268
18144TIP3    H275924   6.153   6.142  13.630  1.1140  0.6098 -0.3229
18145TIP3   OH275925   3.011   1.343  14.626 -0.1219  0.4042 -0.3654
18145TIP3    H175926   2.962   1.421  14.652 -0.7380 -0.4081  0.9955
18145TIP3    H275927   3.059   1.317  14.704  1.1841  0.2014 -1.2061
18146TIP3   OH275928   4.438   3.926  15.188 -0.2142  0.2775  0.6169
18146TIP3    H175929   4.440   3.951  15.281 -0.5364  1.5962  0.2964
18146TIP3    H275930   4.496   3.990  15.145 -0.1159 -0.2799 -0.0999
18147TIP3   OH275931   5.968   1.909   1.656 -0.2057  0.1820 -0.1487
18147TIP3    H175932   6.049   1.937   1.699  1.1005 -0.4113 -2.1406
18147TIP3    H275933   5.908   1.982   1.670  0.6481  0.6507  1.3352
18148TIP3   OH275934   5.270   1.950   0.730 -0.4025 -0.2129  0.1651
18148TIP3    H175935   5.268   2.044   0.715 -0.4153 -0.3400 -0.7080
18148TIP3    H275936   5.253   1.939   0.823 -0.7185  0.6311  0.2068
18149TIP3   OH275937   3.848   5.993  11.387  0.0750  0.0560  0.2595
18149TIP3    H175938   3.861   6.070  11.333  2.2067  0.5089  1.3107
18149TIP3    H275939   3.928   5.985  11.439 -0.7831 -1.8648  1.4495
18150TIP3   OH275940   4.369   6.339  14.975 -0.0632  0.4843  0.2382
18150TIP3    H175941   4.414   6.338  14.890  1.6306 -0.3523  1.0856
18150TIP3    H275942   4.440   6.341  15.039 -1.3128  1.2201  1.6517
18151TIP3   OH275943   3.722   5.583  14.434  0.2604  0.1025 -0.8026
18151TIP3    H175944   3.763   5.497  14.441 -0.6941 -0.4410 -1.5755
18151TIP3    H275945   3.793   5.642  14.411  0.8185 -0.5886 -0.8838
18152TIP3   OH275946   1.254   2.516   1.551 -0.4734  0.1295 -0.3909
18152TIP3    H175947   1.328   2.560   1.508  0.8117 -1.0792  0.4830
18152TIP3    H275948   1.227   2.449   1.488 -1.4408  1.1332 -1.0819
18153TIP3   OH275949   0.744   2.571  14.331 -0.1489  0.5334 -0.2816
18153TIP3    H175950   0.724   2.663  14.351  0.0238  0.2807  1.1979
18153TIP3    H275951   0.659   2.532  14.311 -0.3366  0.8392 -0.0971
18154TIP3   OH275952   3.849   4.741  16.632 -0.2630 -0.3361 -0.3314
18154TIP3    H175953   3.914   4.741  16.703 -2.1046 -0.7514  1.4458
18154TIP3    H275954   3.890   4.793  16.563  1.8876 -0.4443  0.7511
18155TIP3   OH275955   4.573   4.427  14.597  0.7372  0.3897  0.1286
18155TIP3    H175956   4.485   4.431  14.561  1.0767  0.9039 -0.6847
18155TIP3    H275957   4.630   4.445  14.522  1.6659 -2.4195  0.0471
18156TIP3   OH275958   3.754   6.341  14.624 -0.0462 -0.0357  0.4149
18156TIP3    H175959   3.742   6.435  14.641 -1.3918 -0.3050  1.1233
18156TIP3    H275960   3.692   6.321  14.554  0.4443 -0.3392  0.0684
18157TIP3   OH275961   1.915   4.543   4.185  0.2886 -0.1669 -0.2676
18157TIP3    H175962   1.848   4.611   4.188  0.9529  0.4646  0.7079
18157TIP3    H275963   1.957   4.554   4.100 -2.8664 -2.6082 -2.3891
18158TIP3   OH275964   2.202   4.934  14.993 -0.7556 -0.8898  0.3612
18158TIP3    H175965   2.192   5.025  15.023  1.2552  0.5603 -2.7931
18158TIP3    H275966   2.201   4.882  15.073  0.8653  2.2117  2.6357
18159TIP3   OH275967   1.262   6.612   2.579 -0.0919  0.2248  0.2527
18159TIP3    H175968   1.271   6.523   2.544 -1.7487 -0.0614  0.5000
18159TIP3    H275969   1.281   6.669   2.504  0.0496 -0.3372 -0.1509
18160TIP3   OH275970   6.112   1.539   0.140 -0.0411 -0.3267 -0.4901
18160TIP3    H175971   6.156   1.617   0.104 -0.7572  0.3859  0.1292
18160TIP3    H275972   6.023   1.544   0.104  0.3939 -1.8454 -1.8696
18161TIP3   OH275973   5.711   0.816   2.029 -0.3653  0.4114 -0.1366
18161TIP3    H175974   5.756   0.805   2.113 -1.3644  0.0854  0.3730
18161TIP3    H275975   5.764   0.766   1.967 -1.0150 -1.5577  0.8023
18162TIP3   OH275976   2.985   1.923   4.372  0.1763  0.3306 -0.0386
18162TIP3    H175977   2.959   1.869   4.447 -1.9833  1.3162 -0.0196
18162TIP3    H275978   2.962   1.871   4.296  1.3128 -0.1822 -0.0612
18163TIP3   OH275979   3.937   0.748  14.288 -0.5650 -0.5389  0.1655
18163TIP3    H175980   3.923   0.842  14.277  0.8534 -0.5295 -2.1764
18163TIP3    H275981   3.882   0.707  14.221 -2.1877 -1.5436  1.9890
18164TIP3   OH275982   2.601   0.148   3.145  0.0139 -0.0905 -0.1754
18164TIP3    H175983   2.551   0.225   3.171  0.2985  0.2312 -0.5609
18164TIP3    H275984   2.590   0.086   3.217 -1.6708 -0.3744 -0.6428
18165TIP3   OH275985   6.770   3.511   4.412  0.0453 -0.0810  0.0430
18165TIP3    H175986   6.696   3.451   4.415 -0.3042  0.3574  0.4100
18165TIP3    H275987   6.830   3.479   4.479  1.1349 -1.6080 -1.5721
18166TIP3   OH275988   5.419   2.350   1.387  0.1271  0.2243 -0.4397
18166TIP3    H175989   5.478   2.370   1.314  0.9286  0.2472  0.1961
18166TIP3    H275990   5.477   2.344   1.463 -0.7017  0.2394  0.2019
18167TIP3   OH275991   1.337   2.535   0.766  0.5817 -0.1223  0.1043
18167TIP3    H175992   1.420   2.581   0.750  0.3337  0.7294  1.1692
18167TIP3    H275993   1.352   2.447   0.732  1.6755  0.2353 -0.3869
18168TIP3   OH275994   1.911   1.067   1.301 -0.2792 -0.6884  0.0521
18168TIP3    H175995   1.912   1.131   1.230 -0.1619  0.3203  0.9396
18168TIP3    H275996   1.901   1.119   1.380  0.2618 -1.7424  0.8402
18169TIP3   OH275997   3.922   2.149   2.044 -0.1164  0.1444 -0.2357
18169TIP3    H175998   3.893   2.087   1.977  1.0258 -0.8523  0.1453
18169TIP3    H275999   4.002   2.109   2.080  1.1537  2.2328 -0.5578
18170TIP3   OH276000   4.751   2.242   1.540 -0.1077 -0.4159  0.3911
18170TIP3    H176001   4.734   2.238   1.634 -2.0909 -0.2249  0.0811
18170TIP3    H276002   4.811   2.170   1.523  0.7244 -0.1105  1.8813
18171TIP3   OH276003   6.776   3.192  13.078  0.3673 -0.0211 -0.2730
18171TIP3    H176004   6.745   3.185  13.169  0.1426 -0.1587 -0.3599
18171TIP3    H276005   6.716   3.136  13.028  0.5940 -0.0754 -0.4807
18172TIP3   OH276006   3.114   6.090   0.379 -0.0971 -0.9656 -0.1768
18172TIP3    H176007   3.172   6.165   0.370 -0.5899 -0.6471 -0.8308
18172TIP3    H276008   3.099   6.061   0.289  1.6178 -3.0639  0.1261
18173TIP3   OH276009   6.339   3.936  15.912 -0.3270 -0.5180  0.3742
18173TIP3    H176010   6.328   3.927  16.007 -0.8647  0.0180  0.3650
18173TIP3    H276011   6.378   4.023  15.901 -0.0557 -0.6717  0.1132
18174TIP3   OH276012   0.377   2.293   1.308  0.2006 -0.3488  0.0914
18174TIP3    H176013   0.365   2.216   1.251  2.1067  0.1017 -0.9792
18174TIP3    H276014   0.392   2.256   1.395  1.3595 -1.2322 -0.4586
18175TIP3   OH276015   4.357   4.340   2.814  0.3013  0.1613  0.4730
18175TIP3    H176016   4.287   4.334   2.749 -0.2928  0.0117  1.1228
18175TIP3    H276017   4.388   4.431   2.807  0.0255  0.2369  0.2091
18176TIP3   OH276018   5.229   0.329  13.506 -0.5289  0.0379 -0.0426
18176TIP3    H176019   5.195   0.409  13.467 -1.4242 -1.0114 -1.4913
18176TIP3    H276020   5.309   0.356  13.551 -0.9769  1.7852 -0.2426
18177TIP3   OH276021   4.344   6.342  15.380  0.4383 -0.4087  0.1392
18177TIP3    H176022   4.420   6.385  15.420 -0.0495  0.0177  0.6315
18177TIP3    H276023   4.269   6.372  15.432 -0.4572  1.4643 -2.0853
18178TIP3   OH276024   1.077   5.667   4.262 -0.2471 -0.4301  0.0128
18178TIP3    H176025   1.005   5.699   4.208  1.3683  1.0721 -1.3531
18178TIP3    H276026   1.070   5.717   4.343  0.6165  1.4930 -1.0426
18179TIP3   OH276027   5.455   3.301  12.821 -0.4369  0.2446  0.0607
18179TIP3    H176028   5.536   3.326  12.775 -0.3127 -0.7816 -0.3142
18179TIP3    H276029   5.404   3.254  12.755 -1.6675  1.4694  0.0925
18180TIP3   OH276030   1.478   6.140  16.672 -0.2960  0.0691  0.5471
18180TIP3    H176031   1.530   6.072  16.714  0.0957  0.9817  1.6061
18180TIP3    H276032   1.399   6.147  16.726  0.3899  1.5234  1.4287
18181TIP3   OH276033   1.666   1.450   2.543  0.2890  0.1658  0.5069
18181TIP3    H176034   1.576   1.454   2.509 -0.0678  2.6452  1.4804
18181TIP3    H276035   1.657   1.411   2.630  0.2557 -0.2144  0.3333
18182TIP3   OH276036   2.166   5.287   2.243 -0.0813 -0.0636  0.1974
18182TIP3    H176037   2.183   5.369   2.290 -1.4794  0.5085 -0.2304
18182TIP3    H276038   2.228   5.224   2.280  2.1364  1.5535 -0.5414
18183TIP3   OH276039   3.538   6.796   2.370  0.4610 -0.7604  0.4749
18183TIP3    H176040   3.545   6.793   2.466 -1.2210 -0.4854  0.6366
18183TIP3    H276041   3.445   6.804   2.353  0.4915 -3.1048 -1.2888
18184TIP3   OH276042   1.511   0.640   2.708 -0.0157  0.2867 -0.3156
18184TIP3    H176043   1.466   0.557   2.697 -0.1720  0.3566 -0.2154
18184TIP3    H276044   1.567   0.649   2.631 -0.7077  0.5334 -0.7942
18185TIP3   OH276045   5.851   0.355   1.736  0.2940 -0.2004  0.1222
18185TIP3    H176046   5.901   0.344   1.655  0.9850  1.3368  0.3073
18185TIP3    H276047   5.770   0.397   1.709  0.7989  0.9126  0.2733
18186TIP3   OH276048   0.085   1.994  12.987 -0.1004 -0.7851  0.1132
18186TIP3    H176049   0.067   2.068  13.045  0.0403 -0.8406  0.2268
18186TIP3    H276050   0.101   2.035  12.902  0.8155 -0.6210  0.3549
18187TIP3   OH276051   4.325   2.132   5.350  0.2221 -0.3928  0.1580
18187TIP3    H176052   4.264   2.082   5.295 -0.6331  0.8281 -0.0575
18187TIP3    H276053   4.298   2.113   5.440 -1.5307  1.2563  0.0729
18188TIP3   OH276054   0.097   5.850   3.415  0.0582 -0.5156 -0.2674
18188TIP3    H176055   0.126   5.931   3.456  0.3403 -0.7695  0.0364
18188TIP3    H276056   0.028   5.817   3.473  0.6920 -1.0493  0.1963
18189TIP3   OH276057   4.125   3.567  13.460  0.5239  0.4125  0.4204
18189TIP3    H176058   4.070   3.618  13.518 -0.1546  0.5122 -0.2993
18189TIP3    H276059   4.211   3.609  13.465  0.3774  0.6473  1.0486
18190TIP3   OH276060   3.741   5.761   3.044  0.1932 -0.4048  0.3235
18190TIP3    H176061   3.817   5.813   3.016 -0.7763  0.6234 -0.4785
18190TIP3    H276062   3.778   5.695   3.103  1.4820  1.2788  1.5122
18191TIP3   OH276063   6.152   3.865  10.237  0.1868  0.6266  0.2467
18191TIP3    H176064   6.167   3.958  10.255  3.6100  0.3649 -0.5708
18191TIP3    H276065   6.217   3.820  10.291 -0.6697 -1.2431 -0.2158
18192TIP3   OH276066   5.869   5.357   3.816  0.4193 -0.1990 -0.2321
18192TIP3    H176067   5.914   5.441   3.813  0.9901 -0.5179 -1.2113
18192TIP3    H276068   5.790   5.370   3.763 -1.3049  0.6836  2.3643
18193TIP3   OH276069   6.344   3.619  11.291 -0.1294 -0.8143  0.1210
18193TIP3    H176070   6.313   3.596  11.204 -1.6533  3.0723 -0.5854
18193TIP3    H276071   6.436   3.590  11.292 -0.7504 -3.1538 -1.7577
18194TIP3   OH276072   3.363   4.830   5.333  0.2206  0.1379  0.0507
18194TIP3    H176073   3.407   4.748   5.310  0.8467  0.4124  0.2584
18194TIP3    H276074   3.285   4.802   5.381  0.5452 -0.3326  0.3133
18195TIP3   OH276075   0.367   0.796  13.308 -0.1144 -0.6127  0.1434
18195TIP3    H176076   0.357   0.856  13.235 -0.7729 -0.0935  0.6399
18195TIP3    H276077   0.314   0.721  13.285  1.2467 -1.3301 -0.7857
18196TIP3   OH276078   2.942   5.219   3.675 -0.2514 -0.4220 -0.1699
18196TIP3    H176079   2.891   5.169   3.611  0.5285 -0.1303 -1.0408
18196TIP3    H276080   2.921   5.179   3.759 -0.7946 -1.2364 -0.6821
18197TIP3   OH276081   2.275   1.015  10.954  0.1425  0.4425 -0.7767
18197TIP3    H176082   2.194   1.003  10.904  0.0850  0.0307 -0.5881
18197TIP3    H276083   2.341   0.965  10.905  0.7797  2.4672 -2.1071
18198TIP3   OH276084   0.246   3.906  17.088 -0.3779 -0.2453 -0.1015
18198TIP3    H176085   0.184   3.841  17.124  0.0556 -1.0750 -0.8256
18198TIP3    H276086   0.332   3.866  17.102 -0.2209 -1.3135 -3.3016
18199TIP3   OH276087   3.565   0.403   0.549 -0.1853 -0.3832 -0.0472
18199TIP3    H176088   3.593   0.394   0.458  0.7570 -0.9649  0.2788
18199TIP3    H276089   3.569   0.314   0.584 -0.0033 -0.0852  0.7098
18200TIP3   OH276090   5.046   0.793   3.693 -0.1314 -0.3190 -0.1561
18200TIP3    H176091   5.035   0.809   3.787  0.4428 -2.9936  0.4563
18200TIP3    H276092   5.062   0.880   3.656 -1.1361  0.9229  2.0751
18201TIP3   OH276093   4.249   5.413   4.414  0.3930 -0.1971 -0.1079
18201TIP3    H176094   4.222   5.417   4.322 -1.0670  1.1875  0.3506
18201TIP3    H276095   4.333   5.459   4.416  0.0242  0.5188 -0.6180
18202TIP3   OH276096   1.150   3.625  13.465  0.5289 -0.4595 -0.2086
18202TIP3    H176097   1.169   3.572  13.388 -0.0318 -0.3814 -0.4101
18202TIP3    H276098   1.223   3.609  13.524  1.6654  0.5054 -1.2878
18203TIP3   OH276099   6.269   4.176  12.928 -0.1754 -0.0337 -0.1732
18203TIP3    H176100   6.214   4.250  12.952 -0.0133  0.5995 -1.6062
18203TIP3    H276101   6.358   4.211  12.933 -0.0091 -0.5597  0.5340
18204TIP3   OH276102   3.863   4.123   3.377 -0.3857 -0.2890 -0.1466
18204TIP3    H176103   3.860   4.205   3.427 -0.1198 -0.9645  1.0060
18204TIP3    H276104   3.773   4.090   3.378 -0.4548 -0.1157 -0.4476
18205TIP3   OH276105   2.761   0.390   1.840  0.1398 -0.0804 -0.0312
18205TIP3    H176106   2.846   0.363   1.806 -1.0796 -1.4159 -2.3071
18205TIP3    H276107   2.748   0.478   1.805  0.1881 -0.2609 -0.5138
18206TIP3   OH276108   0.961   4.496  17.009  0.0299  0.0648  0.4267
18206TIP3    H176109   0.978   4.477  16.916  2.4524 -0.8284  0.9877
18206TIP3    H276110   0.947   4.410  17.049 -0.4431  0.4031  1.0112
18207TIP3   OH276111   6.632   3.167  16.475 -0.0455  1.0170  0.2925
18207TIP3    H176112   6.716   3.120  16.479  0.8367  2.0283 -3.0922
18207TIP3    H276113   6.571   3.102  16.441 -0.1669  0.8610  0.7939
18208TIP3   OH276114   4.657   1.558  12.004  0.1052  0.9791  0.0819
18208TIP3    H176115   4.645   1.485  12.064  1.5759 -0.2706 -1.0729
18208TIP3    H276116   4.617   1.633  12.050 -0.1183 -0.2053  1.9467
18209TIP3   OH276117   2.908   0.256  15.662 -0.2080  0.3332 -0.0042
18209TIP3    H176118   2.814   0.241  15.653 -0.0460  0.4127 -2.5761
18209TIP3    H276119   2.944   0.171  15.687 -0.9785  0.4156  1.4818
18210TIP3   OH276120   4.683   1.122  16.339 -0.0783  0.4917 -0.2847
18210TIP3    H176121   4.706   1.032  16.361 -1.6026 -0.1026 -1.0125
18210TIP3    H276122   4.707   1.131  16.247  1.3162  1.2799  0.1328
18211TIP3   OH276123   6.413   5.042  11.755  0.3674 -0.2520 -0.3484
18211TIP3    H176124   6.444   5.113  11.811  3.0978  0.0459 -2.0349
18211TIP3    H276125   6.492   5.010  11.711 -1.1841 -2.5236 -1.7130
18212TIP3   OH276126   1.905   1.978  14.585 -0.2373 -0.5458 -0.0975
18212TIP3    H176127   1.950   1.894  14.578  1.5432  0.4045 -0.7725
18212TIP3    H276128   1.954   2.036  14.526 -1.4984  0.9346  0.2507
18213TIP3   OH276129   6.055   0.163   2.880 -0.0908 -0.1372  0.7267
18213TIP3    H176130   6.077   0.084   2.832  0.8362  0.6462 -0.1763
18213TIP3    H276131   6.000   0.214   2.820 -1.2794 -0.3920  1.5638
18214TIP3   OH276132   5.839   3.150  16.873  0.5689  0.4128  0.1001
18214TIP3    H176133   5.931   3.141  16.896  0.4247 -1.1164  0.1690
18214TIP3    H276134   5.839   3.201  16.792  1.4954  0.1552 -0.0714
18215TIP3   OH276135   1.195   4.672  14.970  0.5538 -0.3835 -0.2813
18215TIP3    H176136   1.191   4.746  15.032  3.3429 -0.5332  0.1819
18215TIP3    H276137   1.153   4.705  14.891  2.5077  2.0854 -0.4033
18216TIP3   OH276138   4.450   1.074  16.171 -0.5509 -0.2115  0.3782
18216TIP3    H176139   4.356   1.068  16.186 -0.5793  0.1076  0.3303
18216TIP3    H276140   4.469   1.168  16.173 -0.1556 -0.2976  0.8752
18217TIP3   OH276141   0.837   6.196  14.070  0.0254  0.5985 -0.2630
18217TIP3    H176142   0.748   6.165  14.055  0.2917 -1.1820  1.4465
18217TIP3    H276143   0.847   6.195  14.165  1.7994  0.9607 -0.4119
18218TIP3   OH276144   3.484   0.719  12.984  0.2151 -0.0277 -0.5920
18218TIP3    H176145   3.479   0.629  12.952  0.0952 -0.1322 -0.2830
18218TIP3    H276146   3.402   0.759  12.957  0.0997 -0.1257 -0.3874
18219TIP3   OH276147   4.671   1.559   4.171  0.1376  0.2404 -0.6839
18219TIP3    H176148   4.657   1.615   4.247 -3.6482  1.3764 -1.9712
18219TIP3    H276149   4.663   1.470   4.205 -1.6945  0.7263  0.3081
18220TIP3   OH276150   6.208   2.058   4.055 -0.1820  0.6105 -0.3562
18220TIP3    H176151   6.219   1.999   4.130 -0.9768  2.3446  1.2351
18220TIP3    H276152   6.207   2.001   3.979 -0.0165 -1.3262  1.0156
18221TIP3   OH276153   3.308   3.782   2.938 -0.4081 -0.4724  0.2710
18221TIP3    H176154   3.400   3.792   2.914 -0.4715  0.4603  0.3875
18221TIP3    H276155   3.300   3.690   2.964  0.4288 -0.6259  0.0227
18222TIP3   OH276156   0.990   2.163  14.539  0.2007 -0.1671 -0.3775
18222TIP3    H176157   0.919   2.104  14.563 -0.7853  1.8848  2.2797
18222TIP3    H276158   1.060   2.144  14.601 -0.2869  1.6030  0.8031
18223TIP3   OH276159   3.555   2.536   1.932 -0.4807  0.6446 -0.0966
18223TIP3    H176160   3.610   2.489   1.870 -0.7455 -0.7056  0.6488
18223TIP3    H276161   3.484   2.572   1.879 -1.1227 -1.1159 -0.5337
18224TIP3   OH276162   1.433   3.210  13.838  0.2031 -0.1524 -0.4017
18224TIP3    H176163   1.382   3.129  13.834 -3.2976  1.1510  5.3904
18224TIP3    H276164   1.515   3.185  13.880 -0.1707 -0.9438 -0.1197
18225TIP3   OH276165   0.152   4.895  12.270 -0.1053 -0.2903  0.2496
18225TIP3    H176166   0.219   4.923  12.333  0.9363  1.5866 -1.5750
18225TIP3    H276167   0.070   4.930  12.304  0.5298  1.1936  0.3054
18226TIP3   OH276168   2.890   6.112   2.785  0.0555  0.1376  0.1449
18226TIP3    H176169   2.864   6.051   2.716 -0.9743  2.4219 -1.6540
18226TIP3    H276170   2.808   6.138   2.827  0.4763  0.2100  0.9309
18227TIP3   OH276171   0.460   1.082   3.468 -0.3534  0.6137 -0.6034
18227TIP3    H176172   0.439   1.092   3.375 -1.3922  0.3612 -0.4051
18227TIP3    H276173   0.377   1.097   3.514  0.4010  1.9917  0.3800
18228TIP3   OH276174   1.967   2.828   4.013 -0.3835 -0.0013 -0.3468
18228TIP3    H176175   1.983   2.736   4.034 -1.4381 -0.0102  0.5182
18228TIP3    H276176   1.873   2.838   4.022 -0.2728  1.1807 -0.3881
18229TIP3   OH276177   4.110   2.207  16.908 -0.2684  0.0069 -0.0224
18229TIP3    H176178   4.137   2.295  16.882 -0.5212  0.7337  1.9918
18229TIP3    H276179   4.176   2.180  16.972 -2.0513  0.1976  1.9962
18230TIP3   OH276180   2.036   4.037  12.310  0.2331  0.6081 -0.5331
18230TIP3    H176181   2.015   4.126  12.339 -0.2446  0.4961 -0.5227
18230TIP3    H276182   2.008   3.981  12.383  1.9474  0.5388  0.1342
18231TIP3   OH276183   4.519   1.764   2.170  0.6430 -0.4176  0.8633
18231TIP3    H176184   4.454   1.700   2.139  0.3022 -0.3897  1.5126
18231TIP3    H276185   4.469   1.844   2.183  1.1265  0.0933 -0.2528
18232TIP3   OH276186   2.652   4.203  16.171 -0.0921  0.6136  0.2682
18232TIP3    H176187   2.629   4.147  16.246  0.3945  1.3761  1.0053
18232TIP3    H276188   2.747   4.210  16.174 -0.0391  0.4106 -0.6169
18233TIP3   OH276189   2.068   4.064  11.269  0.2590 -0.1927 -0.2607
18233TIP3    H176190   2.126   4.086  11.197  0.6181 -0.7658 -0.1530
18233TIP3    H276191   2.101   3.980  11.302 -0.2390 -0.2110  0.2091
18234TIP3   OH276192   6.835   0.610   3.481  0.7364 -0.0535  0.8118
18234TIP3    H176193   6.919   0.586   3.521  0.7825  0.6332  1.1396
18234TIP3    H276194   6.809   0.531   3.432  1.2153 -0.5248  1.2940
18235TIP3   OH276195   5.828   4.532  16.842 -0.4254 -0.1653 -0.1015
18235TIP3    H176196   5.797   4.520  16.932  0.4311 -0.0082  0.2197
18235TIP3    H276197   5.794   4.618  16.817 -0.4744 -0.1097  0.1495
18236TIP3   OH276198   0.726   1.971  15.132  0.4587 -0.2614 -0.2140
18236TIP3    H176199   0.696   1.922  15.208 -0.9125  1.5387  0.4778
18236TIP3    H276200   0.668   1.943  15.061 -1.6943  1.6832  0.6419
18237TIP3   OH276201   2.030   6.547  10.476  0.4018  0.6782  0.0471
18237TIP3    H176202   2.031   6.457  10.509  0.8367  0.4328 -0.6183
18237TIP3    H276203   1.937   6.568  10.465  0.2274  0.8329  1.5656
18238TIP3   OH276204   3.248   5.455   0.327  0.1641 -0.0350  0.0465
18238TIP3    H176205   3.297   5.536   0.316  1.2718 -0.6650  0.2112
18238TIP3    H276206   3.242   5.418   0.239 -2.6772  1.4839 -0.5182
18239TIP3   OH276207   3.917   4.862   5.263  0.1910  0.1877  0.2701
18239TIP3    H176208   3.835   4.879   5.216 -0.6233  0.2102  1.6399
18239TIP3    H276209   3.952   4.782   5.223 -0.1761  0.5268 -0.7436
18240TIP3   OH276210   0.902   0.464  12.035 -0.4956  0.0908  0.0400
18240TIP3    H176211   0.830   0.400  12.030  0.2023 -0.6426 -2.5221
18240TIP3    H276212   0.948   0.442  12.116 -2.8162  0.2432  1.4681
18241TIP3   OH276213   0.734   4.617   4.091 -0.2228 -0.2603 -0.3233
18241TIP3    H176214   0.814   4.566   4.076  0.6693  1.5417 -2.1722
18241TIP3    H276215   0.727   4.674   4.015 -2.4721  0.7114  0.5243
18242TIP3   OH276216   1.014   2.712  16.009  0.4803 -0.2128 -0.1749
18242TIP3    H176217   1.048   2.628  15.976 -0.4335 -0.2164 -1.1810
18242TIP3    H276218   0.920   2.696  16.019  0.2320  0.8027 -0.7773
18243TIP3   OH276219   6.246   5.383   3.209 -0.3644 -0.1814  0.0804
18243TIP3    H176220   6.257   5.418   3.121  1.3059  2.2570  1.1667
18243TIP3    H276221   6.335   5.369   3.242 -0.9506 -1.2205  1.3501
18244TIP3   OH276222   2.731   3.463  13.133 -0.0691  0.4747 -0.6619
18244TIP3    H176223   2.783   3.538  13.162 -0.0708  1.0824 -2.1470
18244TIP3    H276224   2.793   3.406  13.088 -0.2534  0.0724 -0.4113
18245TIP3   OH276225   5.529   6.166   5.825  0.0725 -0.5351  0.0897
18245TIP3    H176226   5.443   6.192   5.792  0.3030  1.3068  0.7668
18245TIP3    H276227   5.566   6.112   5.756 -1.5116 -1.1468 -0.3276
18246TIP3   OH276228   6.738   2.213  16.153  0.0229  0.0532 -0.4336
18246TIP3    H176229   6.651   2.250  16.170  0.2859  0.2577  0.5397
18246TIP3    H276230   6.722   2.142  16.092 -0.6936  0.7956 -1.1481
18247TIP3   OH276231   3.724   3.282   6.163 -0.2543 -0.3105  0.2713
18247TIP3    H176232   3.816   3.268   6.141 -0.4679 -0.1960 -0.7704
18247TIP3    H276233   3.677   3.215   6.114 -0.8078  0.3647 -0.1488
18248TIP3   OH276234   4.148   6.292  15.156  0.1353 -0.1437  0.0509
18248TIP3    H176235   4.215   6.276  15.090  0.5321 -1.8553  0.8054
18248TIP3    H276236   4.197   6.309  15.236 -0.2240 -2.5691  0.8779
18249TIP3   OH276237   6.732   3.127  15.831  0.3382 -0.4306 -0.1479
18249TIP3    H176238   6.697   3.125  15.742  0.3741  1.4956 -0.2615
18249TIP3    H276239   6.824   3.103  15.822 -0.3674 -3.4900 -0.1268
18250TIP3   OH276240   3.347   5.541  17.109 -0.7267 -0.4661  0.3371
18250TIP3    H176241   3.336   5.474  17.177  0.2963 -0.5411  0.4405
18250TIP3    H276242   3.317   5.497  17.028  0.2748 -1.2000  0.3393
18251TIP3   OH276243   5.212   2.951  15.394  0.2417 -0.0517  0.1784
18251TIP3    H176244   5.246   2.989  15.476 -0.6265  0.6019  0.2459
18251TIP3    H276245   5.123   2.984  15.387  0.2396 -0.2557 -0.9498
18252TIP3   OH276246   2.969   0.702   1.863  0.2804 -0.5257 -0.6193
18252TIP3    H176247   2.893   0.749   1.897  1.4592  0.2377  1.0919
18252TIP3    H276248   3.022   0.769   1.820  0.6718 -0.7760 -0.5368
18253TIP3   OH276249   5.872   6.363  15.409  0.0149 -0.1672  0.2556
18253TIP3    H176250   5.829   6.446  15.429  0.0408  0.0614 -0.6227
18253TIP3    H276251   5.882   6.363  15.314  0.8086 -0.7842  0.3277
18254TIP3   OH276252   3.255   2.073  12.125 -0.0739  0.3061  0.3744
18254TIP3    H176253   3.298   2.077  12.210 -1.6709 -0.3871  1.2536
18254TIP3    H276254   3.197   2.149  12.123 -0.7853 -0.2300  0.3303
18255TIP3   OH276255   6.540   4.335   3.718  0.0765  0.1564  0.1041
18255TIP3    H176256   6.543   4.243   3.745 -1.2872  0.1432  0.2696
18255TIP3    H276257   6.586   4.336   3.634 -1.0699 -0.9434 -0.5784
18256TIP3   OH276258   2.154   0.036  14.300  0.2225  0.1952 -0.0941
18256TIP3    H176259   2.081   0.037  14.237  0.1574 -3.0097 -0.2129
18256TIP3    H276260   2.111   0.026  14.385  0.4689 -0.5881 -0.0580
18257TIP3   OH276261   0.190   4.923  13.825 -0.5185  0.1670  0.4680
18257TIP3    H176262   0.179   4.894  13.915 -1.1710 -0.2602  0.2500
18257TIP3    H276263   0.122   4.989  13.811 -1.7432 -1.2176 -0.3276
18258TIP3   OH276264   4.615   0.173  11.633  0.0433  0.6427  0.2794
18258TIP3    H176265   4.680   0.243  11.639 -0.2608  0.8716  0.9729
18258TIP3    H276266   4.648   0.116  11.563  2.1271 -0.4062  1.9740
18259TIP3   OH276267   4.569   4.163   1.925 -0.0282  0.0835 -0.0050
18259TIP3    H176268   4.532   4.077   1.944  0.7002 -0.2632 -0.1180
18259TIP3    H276269   4.645   4.170   1.984  1.3138 -0.3450 -1.6010
18260TIP3   OH276270   1.791   0.925  17.071 -0.4060  0.0866  0.6939
18260TIP3    H176271   1.865   0.890  17.121 -0.2544  0.3288  0.6377
18260TIP3    H276272   1.735   0.966  17.136  0.5939  1.8630  0.4976
18261TIP3   OH276273   6.277   4.621   3.721 -0.1783 -0.4707 -0.6555
18261TIP3    H176274   6.267   4.697   3.778 -1.0761 -0.0409 -1.3531
18261TIP3    H276275   6.227   4.552   3.764  0.9490 -0.7952  0.1721
18262TIP3   OH276276   1.376   5.741   4.455 -0.4416  0.0689  0.3533
18262TIP3    H176277   1.291   5.762   4.417 -1.0084 -2.7468 -0.1964
18262TIP3    H276278   1.437   5.745   4.382 -0.9942 -2.3621 -0.3326
18263TIP3   OH276279   4.016   4.986   5.829 -0.0893 -0.0166  0.0705
18263TIP3    H176280   3.949   5.050   5.805  0.1705  0.0738 -0.4124
18263TIP3    H276281   4.012   4.982   5.925 -0.6231  0.1611  0.0575
18264TIP3   OH276282   3.867   5.075   1.555 -0.3663  0.1368  0.2735
18264TIP3    H176283   3.832   4.998   1.512 -0.9894  0.4628  0.1864
18264TIP3    H276284   3.813   5.086   1.633 -0.4414  0.6247  0.1564
18265TIP3   OH276285   4.906   5.446   2.975  0.2463  0.3788 -0.0861
18265TIP3    H176286   4.874   5.494   2.899 -0.6655 -2.3604 -1.5758
18265TIP3    H276287   4.833   5.446   3.036  0.1423  0.6043 -0.2109
18266TIP3   OH276288   1.513   1.115  12.945 -0.6456  0.4358  0.0288
18266TIP3    H176289   1.457   1.075  12.879 -0.1907 -0.6929  0.3132
18266TIP3    H276290   1.511   1.209  12.924 -3.9134  0.7111  0.9639
18267TIP3   OH276291   1.749   2.146   1.807  0.6484 -0.3048 -0.1601
18267TIP3    H176292   1.698   2.171   1.730  1.8002  0.3006 -0.7510
18267TIP3    H276293   1.839   2.164   1.783  1.1641 -1.4335  0.8348
18268TIP3   OH276294   4.482   2.140  10.500  0.2869 -0.2570 -0.0691
18268TIP3    H176295   4.531   2.059  10.486  0.8407  0.3693 -2.1454
18268TIP3    H276296   4.524   2.180  10.576  1.5199 -0.8549 -0.4034
18269TIP3   OH276297   2.941   0.893   2.120  0.2682  0.0525  0.0985
18269TIP3    H176298   2.891   0.829   2.070 -2.0861  0.3931  1.8090
18269TIP3    H276299   2.996   0.841   2.178 -0.2364 -0.4080  0.1703
18270TIP3   OH276300   3.133   3.478   3.469 -0.3548 -0.4024  0.4433
18270TIP3    H176301   3.057   3.435   3.508 -1.1443  0.1115 -0.4824
18270TIP3    H276302   3.130   3.454   3.376  0.1274  0.2982  0.2291
18271TIP3   OH276303   3.720   1.632  16.038 -0.1468 -0.3331  0.1193
18271TIP3    H176304   3.678   1.681  15.968  1.8660  0.0133 -0.9365
18271TIP3    H276305   3.681   1.666  16.119 -2.0251 -0.2582 -0.7690
18272TIP3   OH276306   4.269   2.628   3.545 -0.2169 -0.2492  0.7845
18272TIP3    H176307   4.224   2.546   3.524  0.3780 -0.4411  0.2309
18272TIP3    H276308   4.204   2.679   3.595 -0.6074 -1.0233  1.0773
18273TIP3   OH276309   4.613   2.909  16.464  0.2940  0.7377 -0.3454
18273TIP3    H176310   4.643   2.902  16.554  3.2920 -0.4521 -1.3007
18273TIP3    H276311   4.635   2.998  16.438  1.8393  0.3154 -0.5949
18274TIP3   OH276312   3.310   3.545  15.388  0.5639 -0.3724 -0.6214
18274TIP3    H176313   3.258   3.619  15.356 -0.1157 -0.4824  0.1813
18274TIP3    H276314   3.319   3.487  15.313  1.6081  0.7871 -1.4295
18275TIP3   OH276315   5.238   0.986   3.907 -0.2325  0.1310  0.2698
18275TIP3    H176316   5.167   1.043   3.937  0.0918  0.2326  0.8771
18275TIP3    H276317   5.306   1.046   3.877 -1.0451  0.0233 -1.9379
18276TIP3   OH276318   6.385   2.183  11.832  0.7579  0.1345  0.0986
18276TIP3    H176319   6.444   2.108  11.821  0.8628  0.1721  0.4172
18276TIP3    H276320   6.390   2.230  11.748 -0.6277 -1.1615 -0.7636
18277TIP3   OH276321   1.358   3.855   3.653  0.4149  0.6338 -0.3773
18277TIP3    H176322   1.370   3.888   3.564 -1.7341 -0.8099 -1.2795
18277TIP3    H276323   1.437   3.802   3.669  0.8894  1.0164 -1.3653
18278TIP3   OH276324   3.282   5.236   3.673 -0.0373  0.2740 -0.3997
18278TIP3    H176325   3.373   5.267   3.683 -0.1617  1.5463 -2.5017
18278TIP3    H276326   3.291   5.147   3.639  0.3744 -0.1852  0.8418
18279TIP3   OH276327   5.165   6.420   2.921 -1.1594 -0.0724  0.4035
18279TIP3    H176328   5.195   6.481   2.988  1.0634  0.8711 -1.3620
18279TIP3    H276329   5.197   6.335   2.951 -0.7354  0.2366  0.8552
18280TIP3   OH276330   4.622   5.330   4.212  0.0491 -0.8839  0.1269
18280TIP3    H176331   4.625   5.348   4.306 -1.3793 -2.4744  0.5238
18280TIP3    H276332   4.559   5.259   4.203  0.4950 -1.0774 -2.0039
18281TIP3   OH276333   6.228   5.449  10.854 -0.3002  0.1263  0.1613
18281TIP3    H176334   6.178   5.379  10.811  0.2210 -0.0442 -0.1741
18281TIP3    H276335   6.257   5.411  10.936 -0.3389  0.0787  0.1529
18282TIP3   OH276336   0.961   1.188  15.923 -0.2620 -0.1448 -0.6459
18282TIP3    H176337   1.010   1.263  15.889 -1.1690  2.1771  2.6319
18282TIP3    H276338   1.026   1.137  15.971 -0.3053  0.9199  0.6096
18283TIP3   OH276339   0.879   5.246   4.677  0.3040  0.0584  0.4911
18283TIP3    H176340   0.866   5.287   4.591 -1.1812 -0.5050  0.4161
18283TIP3    H276341   0.927   5.311   4.728  0.3548  0.7924 -0.4666
18284TIP3   OH276342   2.402   6.411   0.258  0.2850  0.2297 -0.1404
18284TIP3    H176343   2.370   6.321   0.253  0.0418  0.3358 -4.1826
18284TIP3    H276344   2.329   6.464   0.226  0.8867  1.7496  0.8886
18285TIP3   OH276345   2.762   2.180   4.833 -0.1996 -0.2334  0.5273
18285TIP3    H176346   2.816   2.209   4.907  2.4295  0.4645 -1.5365
18285TIP3    H276347   2.803   2.098   4.804 -0.9871 -0.3239 -0.4000
18286TIP3   OH276348   5.608   5.881  10.879  0.1361  0.2143  0.3817
18286TIP3    H176349   5.615   5.790  10.850  0.8971  0.6168 -0.7244
18286TIP3    H276350   5.684   5.894  10.936  1.3051  0.7837 -1.2439
18287TIP3   OH276351   6.137   5.428   3.544  0.6344 -0.1437 -0.9989
18287TIP3    H176352   6.136   5.381   3.627 -0.0776  1.9211  0.2495
18287TIP3    H276353   6.088   5.373   3.483 -2.2103 -0.0271  1.0011
18288TIP3   OH276354   5.188   2.170   1.400  0.0361 -0.1131 -0.4937
18288TIP3    H176355   5.174   2.160   1.495  1.7233 -4.2031 -0.4584
18288TIP3    H276356   5.273   2.214   1.393  0.2952 -0.5366 -0.0662
18289TIP3   OH276357   0.662   5.430  14.458  0.2827 -0.0130  0.2514
18289TIP3    H176358   0.610   5.471  14.527 -0.3243  1.6990 -1.1544
18289TIP3    H276359   0.752   5.434  14.490  0.4029  3.3740 -0.1552
18290TIP3   OH276360   3.549   6.573  11.950  0.0575  0.0646 -0.3136
18290TIP3    H176361   3.588   6.643  11.897  0.0778  0.0484 -0.3201
18290TIP3    H276362   3.605   6.567  12.027  0.9946 -1.0172 -1.0509
18291TIP3   OH276363   4.169   0.542   3.743 -0.1885  0.2059 -0.1618
18291TIP3    H176364   4.257   0.514   3.719 -0.4759 -1.1796  0.3628
18291TIP3    H276365   4.183   0.613   3.807  0.5525 -0.7214  0.7308
18292TIP3   OH276366   0.874   3.079  11.161 -0.0389 -0.2572 -0.3178
18292TIP3    H176367   0.901   2.988  11.166 -1.2683 -0.5900  0.6210
18292TIP3    H276368   0.882   3.101  11.068 -0.1265 -1.4538 -0.6207
18293TIP3   OH276369   1.073   0.742   4.679  0.0965  0.6459  0.0585
18293TIP3    H176370   1.009   0.813   4.691  0.1444  0.5069  1.1860
18293TIP3    H276371   1.060   0.715   4.588 -2.9381 -0.7881  0.7949
18294TIP3   OH276372   4.371   1.443   3.763 -0.0301  0.1997 -0.6127
18294TIP3    H176373   4.286   1.406   3.788  0.3159  0.5400  1.2523
18294TIP3    H276374   4.365   1.535   3.789  0.2495  0.7044 -2.2645
18295TIP3   OH276375   4.196   1.517  12.137 -0.0103 -0.2816 -0.8080
18295TIP3    H176376   4.190   1.548  12.047  3.2291 -2.3083 -1.8669
18295TIP3    H276377   4.237   1.590  12.184 -1.2821  0.5998 -1.0084
18296TIP3   OH276378   5.934   0.994   3.324  0.2550  0.0277  0.0376
18296TIP3    H176379   6.006   0.954   3.275  1.6599  0.3983  1.6937
18296TIP3    H276380   5.864   1.005   3.260  0.5656 -3.0526 -0.9999
18297TIP3   OH276381   3.147   6.194  13.292 -0.2721 -0.6667  0.1426
18297TIP3    H176382   3.214   6.215  13.357  0.8611 -0.2337 -1.1215
18297TIP3    H276383   3.172   6.109  13.257  0.0651 -0.1692 -0.8627
18298TIP3   OH276384   3.923   1.301   0.034  0.0348  0.4037  0.5593
18298TIP3    H176385   4.001   1.271   0.081 -0.1680  0.2304  0.7922
18298TIP3    H276386   3.939   1.278  -0.057  0.1423  0.1281  0.6475
18299TIP3   OH276387   5.770   4.644  13.133  0.7084 -0.2065  0.3597
18299TIP3    H176388   5.675   4.648  13.141  0.7930  1.2408  0.9832
18299TIP3    H276389   5.793   4.558  13.168 -0.5018 -1.4530 -1.7311
18300TIP3   OH276390   0.801   3.143  14.957 -0.4862  0.0756  0.2455
18300TIP3    H176391   0.891   3.173  14.972 -0.8674  0.2882  2.4240
18300TIP3    H276392   0.747   3.219  14.978 -1.1881  0.1175 -1.5868
18301TIP3   OH276393   2.776   1.510   2.115  0.1536  0.4240  0.5090
18301TIP3    H176394   2.831   1.452   2.167  0.7870  0.7785  0.2373
18301TIP3    H276395   2.814   1.508   2.027 -1.0742 -0.4045 -0.0414
18302TIP3   OH276396   3.705   6.536  10.851  0.2085 -0.7743 -0.2057
18302TIP3    H176397   3.628   6.528  10.796  1.6531 -3.0325 -2.0804
18302TIP3    H276398   3.703   6.459  10.907 -0.8835  1.1480  2.6541
18303TIP3   OH276399   3.747   4.362  13.313 -0.8755 -0.4463  0.2462
18303TIP3    H176400   3.795   4.430  13.361 -0.5705 -1.5761  1.6151
18303TIP3    H276401   3.655   4.381  13.328 -0.8633  0.8247 -1.0898
18304TIP3   OH276402   0.653   6.626   5.318 -0.1946 -0.1750  0.3422
18304TIP3    H176403   0.692   6.696   5.267 -0.1682  0.1441  0.7919
18304TIP3    H276404   0.676   6.647   5.409 -2.5010  0.7618  0.7911
18305TIP3   OH276405   5.605   0.915  13.477  0.2215 -0.0931 -0.2316
18305TIP3    H176406   5.548   0.856  13.526  2.9867 -1.3659  1.6801
18305TIP3    H276407   5.617   0.991  13.535  0.0431  0.4355 -0.8729
18306TIP3   OH276408   6.053   4.413  13.257  0.3889 -0.3344  0.0890
18306TIP3    H176409   6.068   4.371  13.172  0.1314 -0.9413  0.3329
18306TIP3    H276410   6.128   4.472  13.269  0.0352  0.3269 -0.8950
18307TIP3   OH276411   1.150   4.543   1.424 -1.0370  0.9935  0.3802
18307TIP3    H176412   1.090   4.475   1.394  0.1913  0.1437 -0.2855
18307TIP3    H276413   1.222   4.540   1.361 -0.2987  1.9673  1.1474
18308TIP3   OH276414   6.419   6.836  16.040  0.5503 -0.7637  0.0019
18308TIP3    H176415   6.437   6.820  16.133  2.9233 -0.3244 -0.3040
18308TIP3    H276416   6.389   6.752  16.006  1.3709 -1.4183  0.8292
18309TIP3   OH276417   4.751   6.284   0.647  0.3942 -0.1266  0.1730
18309TIP3    H176418   4.838   6.305   0.611  0.6437 -0.8762  0.3113
18309TIP3    H276419   4.697   6.360   0.625  1.2912  0.7196  0.8080
18310TIP3   OH276420   2.246   2.534  10.522  0.2161  0.4608 -0.6627
18310TIP3    H176421   2.278   2.444  10.516 -1.4618 -0.2273  0.0431
18310TIP3    H276422   2.259   2.558  10.613 -1.8782 -0.1228 -0.1585
18311TIP3   OH276423   0.046   1.662   4.330  0.0407  0.6295  0.1591
18311TIP3    H176424   0.029   1.666   4.424  0.1682  0.7355  0.1788
18311TIP3    H276425  -0.038   1.680   4.289 -0.6473 -1.9638  0.2430
18312TIP3   OH276426   1.532   3.115   3.114 -0.1238 -0.1163 -0.0724
18312TIP3    H176427   1.446   3.075   3.121  0.2755 -1.1403 -0.8048
18312TIP3    H276428   1.529   3.188   3.176 -2.1881  1.1165 -1.4948
18313TIP3   OH276429   0.725   0.800   2.464  0.3879 -0.1015  0.1516
18313TIP3    H176430   0.725   0.797   2.559 -1.3144  0.6040  0.2022
18313TIP3    H276431   0.800   0.856   2.442  1.6411 -1.3863  0.9783
18314TIP3   OH276432   5.241   3.217   0.969 -0.1305 -0.5170  0.0593
18314TIP3    H176433   5.164   3.162   0.973 -0.9978  0.6398 -0.1677
18314TIP3    H276434   5.212   3.297   0.925  0.3632  1.2579  2.7224
18315TIP3   OH276435   3.288   3.159  15.971  0.1136 -0.0733  0.3075
18315TIP3    H176436   3.375   3.161  15.930  0.7676  2.6438  1.6083
18315TIP3    H276437   3.228   3.140  15.899  1.4895  1.4384 -1.3404
18316TIP3   OH276438   4.646   2.842   3.267 -0.2412  0.2154 -0.1256
18316TIP3    H176439   4.735   2.808   3.278 -0.6495 -1.3567 -1.3141
18316TIP3    H276440   4.650   2.931   3.302  0.9800 -0.9123  2.9711
18317TIP3   OH276441   0.247   2.211  13.736 -0.8655  0.4942  0.3474
18317TIP3    H176442   0.248   2.166  13.820 -0.2013  0.4222  0.3084
18317TIP3    H276443   0.158   2.198  13.703 -1.3824  1.2375  1.4083
18318TIP3   OH276444   5.175   5.371   2.837  0.1304 -0.0310 -0.2412
18318TIP3    H176445   5.199   5.289   2.881  0.0788 -0.0294 -0.2109
18318TIP3    H276446   5.097   5.402   2.883 -1.3624 -1.2555 -1.8508
18319TIP3   OH276447   1.310   3.615  12.500  0.4061 -0.0216  0.3543
18319TIP3    H176448   1.389   3.660  12.469  1.4449 -2.2160 -0.4150
18319TIP3    H276449   1.241   3.681  12.494  2.0465  1.7977  0.4799
18320TIP3   OH276450   6.223   0.595   4.564  0.0313  0.0065 -0.2807
18320TIP3    H176451   6.242   0.683   4.597  2.9495 -0.5036 -0.3582
18320TIP3    H276452   6.160   0.609   4.493 -2.4738  1.5983  2.0341
18321TIP3   OH276453   2.604   0.962  14.442  0.3220 -0.0999  0.0901
18321TIP3    H176454   2.601   0.867  14.435 -0.3758 -0.0049 -1.2158
18321TIP3    H276455   2.633   0.992  14.356  2.8349  0.8035  1.1360
18322TIP3   OH276456   1.386   6.034   3.648 -0.1309 -0.4695 -0.1724
18322TIP3    H176457   1.354   5.946   3.668 -0.4862 -0.0420  1.3236
18322TIP3    H276458   1.308   6.082   3.620 -0.1954 -0.2907  0.3028
18323TIP3   OH276459   0.447   3.817   5.304 -0.4912  0.2314  0.4493
18323TIP3    H176460   0.447   3.875   5.380 -1.3309  0.1005  0.5628
18323TIP3    H276461   0.391   3.862   5.240  0.4044  0.4599 -0.1922
18324TIP3   OH276462   0.752   3.958  10.696 -0.8162  0.2883  0.2875
18324TIP3    H176463   0.669   3.932  10.656 -0.4454  0.1148 -0.3995
18324TIP3    H276464   0.780   4.035  10.646 -0.3368  0.0569  0.1870
18325TIP3   OH276465   4.335   1.179   6.300  0.0672 -0.3907 -0.1288
18325TIP3    H176466   4.264   1.134   6.256 -1.0963  1.5409 -0.3229
18325TIP3    H276467   4.292   1.235   6.365  1.2497  1.9021 -1.2112
18326TIP3   OH276468   2.017   3.886  16.841  0.7475 -0.2691  0.2088
18326TIP3    H176469   2.006   3.895  16.746  0.3144  5.4291  0.4648
18326TIP3    H276470   1.932   3.855  16.872 -0.2739  1.1030 -1.0745
18327TIP3   OH276471   6.763   1.017   1.400 -0.4754  0.6675 -0.3909
18327TIP3    H176472   6.832   1.080   1.420  0.0072 -0.0915  0.4416
18327TIP3    H276473   6.700   1.027   1.470 -0.1233 -0.1385  0.0562
18328TIP3   OH276474   1.882   5.826   2.224 -0.3608 -0.3898  0.1130
18328TIP3    H176475   1.902   5.790   2.310  0.4358  1.6555  0.8324
18328TIP3    H276476   1.960   5.875   2.199 -1.4518  0.9989 -0.6987
18329TIP3   OH276477   4.562   0.660  11.964  0.3401  0.6549 -0.4861
18329TIP3    H176478   4.625   0.731  11.952 -0.5556  1.7917  1.1848
18329TIP3    H276479   4.525   0.675  12.051 -1.1585 -0.8400 -0.8191
18330TIP3   OH276480   1.297   1.593  15.792  0.5317 -0.2795  0.3851
18330TIP3    H176481   1.345   1.647  15.729  2.0940 -0.3087  1.4841
18330TIP3    H276482   1.359   1.578  15.863 -0.4040 -2.2086  0.8620
18331TIP3   OH276483   1.191   1.468  13.129 -0.2651  0.6050 -0.0493
18331TIP3    H176484   1.133   1.391  13.130 -0.0050  0.3629 -1.3161
18331TIP3    H276485   1.152   1.528  13.192  0.3848 -1.1720  2.1925
18332TIP3   OH276486   2.407   1.738  16.130 -0.3906  0.1540 -0.1393
18332TIP3    H176487   2.377   1.689  16.206  1.8253 -0.1510  0.6289
18332TIP3    H276488   2.488   1.695  16.104  1.0298  2.6204 -0.1749
18333TIP3   OH276489   2.310   4.738   0.624 -0.1688 -0.4552 -0.4538
18333TIP3    H176490   2.222   4.749   0.588 -0.3274  1.9788  0.4640
18333TIP3    H276491   2.367   4.788   0.565  0.6195 -1.8885 -0.9566
18334TIP3   OH276492   1.498   3.273   3.593 -0.0679  0.1362 -0.1066
18334TIP3    H176493   1.527   3.217   3.665 -2.6884  1.2912  2.0647
18334TIP3    H276494   1.503   3.362   3.628  1.1726  1.0474 -2.3985
18335TIP3   OH276495   2.231   3.511  11.673 -0.0206  0.7683 -0.4336
18335TIP3    H176496   2.294   3.560  11.726  0.9014  0.4647 -1.2259
18335TIP3    H276497   2.146   3.545  11.699  0.5389  2.0166 -0.1843
18336TIP3   OH276498   6.687   2.109   5.820  0.5620  0.2682 -0.0108
18336TIP3    H176499   6.630   2.079   5.749 -1.0612  0.1910  1.2454
18336TIP3    H276500   6.665   2.051   5.893  2.0345  0.4865  0.6189
18337TIP3   OH276501   3.390   0.014  14.585 -0.1595  0.1453  0.5586
18337TIP3    H176502   3.388  -0.013  14.677  0.2629  1.6345  1.0416
18337TIP3    H276503   3.298   0.023  14.561 -0.2757  0.9486  1.2350
18338TIP3   OH276504   5.024   1.708   2.422  0.0253  0.0870  0.3436
18338TIP3    H176505   5.046   1.618   2.397  3.3416  0.8976 -0.1226
18338TIP3    H276506   5.013   1.705   2.517  0.8053 -0.7205  0.4260
18339TIP3   OH276507   4.866   2.450   5.814  0.2967 -0.2335 -0.2131
18339TIP3    H176508   4.927   2.501   5.868  0.3050 -0.6785  0.2086
18339TIP3    H276509   4.923   2.392   5.764  0.1932 -1.2678  0.8257
18340TIP3   OH276510   4.407   5.684   3.191 -0.2640 -0.6422 -0.3326
18340TIP3    H176511   4.393   5.596   3.155  2.0475 -0.9513 -0.6702
18340TIP3    H276512   4.399   5.673   3.286 -5.1177 -0.0780 -0.4610
18341TIP3   OH276513   6.669   6.830   3.423 -0.8171 -0.0083 -0.5213
18341TIP3    H176514   6.655   6.781   3.503 -2.1460 -0.1373 -0.8206
18341TIP3    H276515   6.589   6.881   3.410  0.3441  1.9344 -0.4572
18342TIP3   OH276516   0.543   2.397   0.609  0.8449  0.2695 -0.3882
18342TIP3    H176517   0.597   2.369   0.536  0.6279 -0.0459 -0.4290
18342TIP3    H276518   0.543   2.493   0.604 -2.0723  0.3187 -2.9946
18343TIP3   OH276519   1.200   2.064   1.419  0.1483 -0.5113 -0.3367
18343TIP3    H176520   1.123   2.022   1.456 -1.4331  2.3606 -0.0197
18343TIP3    H276521   1.205   2.031   1.330 -0.0695 -2.4251  0.3236
18344TIP3   OH276522   4.266   1.918   2.768 -0.0629  0.5671  0.5679
18344TIP3    H176523   4.304   1.872   2.842 -1.2734  1.7938  2.0057
18344TIP3    H276524   4.182   1.874   2.752  0.5378 -0.2113 -0.6482
18345TIP3   OH276525   0.013   5.665   0.019 -0.5993 -0.2208  0.4054
18345TIP3    H176526  -0.063   5.618   0.054  0.0145 -1.0560  0.6446
18345TIP3    H276527   0.087   5.606   0.035  0.0540  0.4473 -0.1063
18346TIP3   OH276528   2.919   3.199  14.660 -0.0526  0.8466  0.2233
18346TIP3    H176529   2.939   3.269  14.722  0.2816  0.7326  0.2416
18346TIP3    H276530   2.864   3.241  14.594  0.6767  1.2835 -0.1166
18347TIP3   OH276531   0.862   3.410   4.854 -0.7861 -0.1513  0.2753
18347TIP3    H176532   0.933   3.434   4.795 -1.4316 -2.2100 -1.5022
18347TIP3    H276533   0.811   3.491   4.864 -0.3370  0.4280 -1.6031
18348TIP3   OH276534   4.484   3.958  11.509 -0.5289 -0.0485  0.2602
18348TIP3    H176535   4.554   4.023  11.521 -1.5976  1.3008 -0.5019
18348TIP3    H276536   4.480   3.912  11.593  0.2498  0.8962  0.8392
18349TIP3   OH276537   6.772   6.576   0.705 -0.4603 -0.1479  0.2348
18349TIP3    H176538   6.687   6.554   0.667  0.0402 -0.7386 -0.5479
18349TIP3    H276539   6.754   6.654   0.759 -1.2685  0.4189 -0.8232
18350TIP3   OH276540   4.676   4.110   3.187  0.0476  0.6982 -0.6751
18350TIP3    H176541   4.703   4.019   3.179  0.7502  0.6538  1.4599
18350TIP3    H276542   4.750   4.160   3.153  0.5244  0.4785  0.0104
18351TIP3   OH276543   6.605   0.823  13.916  0.1765  0.0945 -0.3346
18351TIP3    H176544   6.551   0.762  13.866  0.2879 -0.7531  0.5497
18351TIP3    H276545   6.542   0.880  13.961  0.0318 -0.1768 -0.1869
18352TIP3   OH276546   5.950   0.409  14.734 -0.3875 -0.3974  0.6766
18352TIP3    H176547   5.968   0.455  14.815  0.5830  0.3507  0.0536
18352TIP3    H276548   5.953   0.316  14.758  0.0751 -0.1872  1.4495
18353TIP3   OH276549   4.919   5.224   3.791  0.1408  0.2476  0.0297
18353TIP3    H176550   4.848   5.171   3.756  0.7396 -0.2107 -0.5274
18353TIP3    H276551   4.884   5.263   3.871 -0.9852  0.6584 -0.6509
18354TIP3   OH276552   0.865   4.504  13.180  0.5513 -0.2272  0.0760
18354TIP3    H176553   0.833   4.549  13.258  0.1618  0.3500 -0.4013
18354TIP3    H276554   0.888   4.575  13.120  2.0415 -0.6363  0.1161
18355TIP3   OH276555   3.269   0.967   2.068  0.1499  0.0625 -0.6909
18355TIP3    H176556   3.276   0.892   2.009  1.4350  0.4224 -1.0131
18355TIP3    H276557   3.307   0.937   2.150 -0.3054  0.0281 -0.4903
18356TIP3   OH276558   2.143   2.660   0.758  0.7567 -0.2169  0.3798
18356TIP3    H176559   2.173   2.735   0.708  0.4693  1.0373  2.0010
18356TIP3    H276560   2.112   2.598   0.692  3.4096 -0.0643 -1.1665
18357TIP3   OH276561   0.786   4.594   1.054  0.4222 -0.6675 -0.3822
18357TIP3    H176562   0.705   4.640   1.033  1.5655  1.0561 -1.2545
18357TIP3    H276563   0.789   4.593   1.149 -0.1085  0.2364 -0.3443
18358TIP3   OH276564   0.229   1.932  10.790  0.3613  0.2532  0.1826
18358TIP3    H176565   0.237   1.925  10.694  2.6520 -1.0066  0.4002
18358TIP3    H276566   0.317   1.951  10.820 -0.2733  0.3287  2.0992
18359TIP3   OH276567   3.043   5.687  14.294  0.0884 -0.6456 -0.7978
18359TIP3    H176568   2.961   5.678  14.343  0.6479 -1.5064  0.0158
18359TIP3    H276569   3.103   5.626  14.337  1.4363  0.6234 -0.7962
18360TIP3   OH276570   0.171   2.449   1.478  0.5175  0.5333  0.3379
18360TIP3    H176571   0.258   2.475   1.508  1.2905 -1.5551  0.0462
18360TIP3    H276572   0.180   2.437   1.384 -0.1398  0.4668  0.2735
18361TIP3   OH276573   6.758   1.507   2.396 -0.0072 -0.0333 -0.0811
18361TIP3    H176574   6.765   1.574   2.464 -1.2717 -0.0063  0.0346
18361TIP3    H276575   6.839   1.516   2.346  0.1993  1.0371  0.4184
18362TIP3   OH276576   4.693   0.321   4.762 -0.1120  0.3119 -0.2676
18362TIP3    H176577   4.646   0.299   4.682 -2.3807 -0.3317  1.1692
18362TIP3    H276578   4.667   0.411   4.782  0.9359  0.6945 -0.5431
18363TIP3   OH276579   5.933   0.837   4.764  0.3145 -0.3471 -0.1765
18363TIP3    H176580   5.915   0.795   4.848 -0.3796 -0.0604 -0.1760
18363TIP3    H276581   6.025   0.862   4.769  0.2395 -0.1962  0.5627
18364TIP3   OH276582   3.408   2.221  11.863 -0.1647  0.2197 -0.3610
18364TIP3    H176583   3.438   2.142  11.908  1.3159  2.0610  2.1417
18364TIP3    H276584   3.429   2.205  11.771 -1.8122 -3.0666 -0.3062
18365TIP3   OH276585   3.997   4.788  15.348 -0.0151 -0.3230 -0.3696
18365TIP3    H176586   4.057   4.792  15.423 -0.8201  0.2294  0.2695
18365TIP3    H276587   4.048   4.747  15.279  0.6016 -1.2873  0.6241
18366TIP3   OH276588   5.195   1.982  16.876 -0.1909 -0.0452  0.4408
18366TIP3    H176589   5.286   2.005  16.893  0.6313 -2.5451 -0.2159
18366TIP3    H276590   5.182   2.002  16.784 -1.0365  2.3344  1.0053
18367TIP3   OH276591   1.963   6.362  15.743 -0.2670 -0.1651 -0.0617
18367TIP3    H176592   1.935   6.383  15.654  0.8147 -0.2101 -0.4253
18367TIP3    H276593   1.881   6.355  15.793 -0.8899 -0.3245 -1.0845
18368TIP3   OH276594   2.233   5.903   0.191  0.0826  0.4873 -0.3818
18368TIP3    H176595   2.139   5.892   0.205  0.0803 -1.4371 -1.5403
18368TIP3    H276596   2.262   5.819   0.155  2.1522  1.2149 -0.5454
18369TIP3   OH276597   5.661   1.402  14.942  0.5982  0.3288  0.0970
18369TIP3    H176598   5.745   1.357  14.934  0.7723  0.6049  0.3599
18369TIP3    H276599   5.678   1.491  14.909  0.0232 -0.0516 -1.3163
18370TIP3   OH276600   5.184   0.222   2.010  0.1327 -0.3549 -0.8386
18370TIP3    H176601   5.102   0.243   1.966  1.3313  1.4603 -2.3572
18370TIP3    H276602   5.214   0.305   2.046  0.0261 -1.4745  2.1535
18371TIP3   OH276603   0.231   1.986  14.309 -0.8661 -0.3016 -0.1459
18371TIP3    H176604   0.227   1.927  14.385  0.9885  0.5706  0.6999
18371TIP3    H276605   0.322   1.983  14.281 -1.5001 -0.4970 -2.3002
18372TIP3   OH276606   5.986   3.505   1.904 -0.0402 -0.2664 -0.2125
18372TIP3    H176607   6.027   3.559   1.836 -0.9527  0.7826  0.0470
18372TIP3    H276608   5.910   3.555   1.932  0.6180 -0.3827  1.9992
18373TIP3   OH276609   3.017   1.997  15.746 -0.1645  0.2245 -0.1333
18373TIP3    H176610   3.021   2.040  15.661 -2.5964  1.3893  0.2487
18373TIP3    H276611   2.967   2.058  15.801  1.3280 -0.4794  2.1600
18374TIP3   OH276612   0.875   2.020  11.963 -0.3913 -0.4613 -0.0552
18374TIP3    H176613   0.782   1.999  11.972 -0.6104  0.0680 -0.9760
18374TIP3    H276614   0.879   2.085  11.893  0.7061 -0.7115 -0.2544
18375TIP3   OH276615   5.392   3.008  16.577  0.1938  0.3597  0.1450
18375TIP3    H176616   5.425   3.069  16.511  0.5135 -0.8555 -0.8520
18375TIP3    H276617   5.297   3.021  16.576 -0.0969 -1.3035 -2.3415
18376TIP3   OH276618   1.495   3.303   5.196 -0.0873  0.2281  0.3573
18376TIP3    H176619   1.512   3.395   5.213  0.0062  0.1205  0.8556
18376TIP3    H276620   1.492   3.262   5.283  1.4531 -0.5050  0.0971
18377TIP3   OH276621   3.748   6.049  15.777 -0.0444 -0.5983  0.7856
18377TIP3    H176622   3.735   6.143  15.791  0.6243 -0.4084  0.2155
18377TIP3    H276623   3.809   6.023  15.846  1.9977  0.0039 -0.6767
18378TIP3   OH276624   4.110   2.436  11.925 -0.4844  0.1312 -0.6906
18378TIP3    H176625   4.080   2.346  11.914  1.4061 -0.8389  1.3830
18378TIP3    H276626   4.066   2.466  12.005 -1.8215  1.4252 -1.8622
18379TIP3   OH276627   4.094   1.841  13.931 -0.3062 -0.4899  0.2291
18379TIP3    H176628   4.023   1.886  13.977  0.6286  2.2561 -0.7757
18379TIP3    H276629   4.075   1.855  13.838 -0.0459 -2.4348 -0.1641
18380TIP3   OH276630   3.189   2.546   0.318 -0.0570  0.4719 -0.5134
18380TIP3    H176631   3.263   2.527   0.376  1.0531  0.5761 -1.8480
18380TIP3    H276632   3.146   2.461   0.306  1.0401 -0.0095 -1.2858
18381TIP3   OH276633   6.632   1.149  14.053  0.5957 -0.0546  0.3535
18381TIP3    H176634   6.545   1.109  14.047  0.4183  0.1614  1.3007
18381TIP3    H276635   6.662   1.126  14.141  0.4372  1.9947  0.9835
18382TIP3   OH276636   6.094   2.679   5.006 -0.3194  0.0419 -0.1225
18382TIP3    H176637   6.078   2.758   5.058 -0.3970  0.2728 -0.4929
18382TIP3    H276638   6.045   2.693   4.925 -0.7960 -0.6317  0.0356
18383TIP3   OH276639   4.553   5.125   0.975 -0.0803  0.3782 -0.2059
18383TIP3    H176640   4.501   5.145   1.053  1.5860 -0.6715  1.2253
18383TIP3    H276641   4.642   5.113   1.007  0.8488  0.8325 -2.4123
18384TIP3   OH276642   5.614   4.242  12.774  0.3399  0.3058  0.4441
18384TIP3    H176643   5.617   4.336  12.792  1.6023  0.1425  1.2704
18384TIP3    H276644   5.523   4.217  12.787 -0.0225  1.4353  0.1178
18385TIP3   OH276645   3.813   0.908  12.779  0.3264 -0.3607 -0.0011
18385TIP3    H176646   3.832   0.986  12.727  1.1071 -0.9325 -0.5903
18385TIP3    H276647   3.721   0.890  12.762  0.6409 -0.7350 -1.4961
18386TIP3   OH276648   4.673   3.863   5.559 -0.5284 -0.3853  0.1077
18386TIP3    H176649   4.680   3.853   5.653 -0.5933  1.6577  0.3749
18386TIP3    H276650   4.632   3.781   5.529 -1.4177 -0.6614  1.9549
18387TIP3   OH276651   4.815   5.310   4.016  0.5689 -0.1229 -0.6593
18387TIP3    H176652   4.872   5.378   4.051 -1.7290  1.9639 -0.6880
18387TIP3    H276653   4.740   5.308   4.075 -0.0325 -1.7341 -1.4066
18388TIP3   OH276654   6.361   5.666   5.400 -0.4927 -0.0998 -0.1590
18388TIP3    H176655   6.360   5.618   5.483 -1.1546  1.4229  0.7438
18388TIP3    H276656   6.384   5.756   5.423  1.7007 -0.1126 -1.9264
18389TIP3   OH276657   0.692   4.244  10.561 -0.5878  0.0606  0.3169
18389TIP3    H176658   0.638   4.180  10.515  0.1487 -0.9181  0.7744
18389TIP3    H276659   0.746   4.283  10.492 -0.3981 -0.4742  0.1536
18390TIP3   OH276660   1.472   1.774  16.347 -0.1179  0.3833 -0.0326
18390TIP3    H176661   1.434   1.840  16.289 -0.1423  1.3333  1.0430
18390TIP3    H276662   1.566   1.781  16.332 -0.2220 -0.6834 -1.3238
18391TIP3   OH276663   5.048   0.141  13.516  0.3785 -0.1802  0.0736
18391TIP3    H176664   5.004   0.176  13.439 -0.9571  1.6814  1.5756
18391TIP3    H276665   5.127   0.194  13.526 -0.6838  1.2784  1.2760
18392TIP3   OH276666   4.492   0.534   3.354 -0.8509  0.0882 -0.5228
18392TIP3    H176667   4.444   0.481   3.290 -0.8623 -0.3213 -0.1712
18392TIP3    H276668   4.454   0.622   3.344 -0.4758  0.1549 -1.4653
18393TIP3   OH276669   2.897   3.854  10.717 -0.0908 -1.0323 -0.1832
18393TIP3    H176670   2.894   3.927  10.654 -0.1056 -1.1036 -0.2652
18393TIP3    H276671   2.825   3.797  10.691 -0.6949 -0.5958  0.4720
18394TIP3   OH276672   3.000   3.053  13.879 -0.3492 -0.8206 -0.1267
18394TIP3    H176673   2.909   3.026  13.887 -0.3486 -1.7168 -2.5051
18394TIP3    H276674   3.051   2.977  13.907 -0.3209 -0.6094  0.4067
18395TIP3   OH276675   5.221   0.545   2.651  0.0003 -0.4209  0.2393
18395TIP3    H176676   5.184   0.524   2.737 -0.0150  2.4483  1.0095
18395TIP3    H276677   5.308   0.506   2.652 -0.0351 -0.4872  1.5210
18396TIP3   OH276678   3.986   6.824   3.118  0.5439 -0.0986  0.0886
18396TIP3    H176679   3.983   6.861   3.206 -0.2567  3.0506 -1.1408
18396TIP3    H276680   4.039   6.745   3.127 -0.3476 -0.4679  3.5512
18397TIP3   OH276681   5.027   4.183  11.296 -0.3771 -0.0781  0.2388
18397TIP3    H176682   5.001   4.225  11.378 -1.0611 -0.6529  0.3300
18397TIP3    H276683   5.001   4.245  11.228  0.5629  0.5817  0.4670
18398TIP3   OH276684   4.609   0.665   0.581 -0.0006  0.3428 -0.0397
18398TIP3    H176685   4.539   0.653   0.645 -2.2948  1.7662 -2.1083
18398TIP3    H276686   4.689   0.659   0.632 -1.6858  1.5256  2.9984
18399TIP3   OH276687   0.514   1.760   2.769  0.4600 -0.0060  0.0951
18399TIP3    H176688   0.524   1.804   2.684 -0.5423  0.4119  0.1693
18399TIP3    H276689   0.420   1.767   2.787  0.6485 -0.2129  1.1754
18400TIP3   OH276690   4.339   6.489   0.380 -0.5791 -0.2078  0.3020
18400TIP3    H176691   4.389   6.518   0.304 -1.1288  1.5300  0.5363
18400TIP3    H276692   4.262   6.446   0.343 -0.1155 -0.7068 -0.0919
18401TIP3   OH276693   4.556   3.837  14.008  0.1021  0.4280  0.8256
18401TIP3    H176694   4.526   3.909  13.952 -0.8613 -0.9706 -0.5211
18401TIP3    H276695   4.630   3.874  14.057  2.8006  1.0438 -3.2417
18402TIP3   OH276696   5.051   5.075   1.769  0.5624  0.5068 -0.2960
18402TIP3    H176697   4.990   5.045   1.701  1.2180 -0.3147 -0.5257
18402TIP3    H276698   5.057   5.003   1.831  0.3995  1.0433  0.3617
18403TIP3   OH276699   0.978   4.460   2.247  0.4049 -1.1664 -0.1744
18403TIP3    H176700   0.903   4.516   2.224  0.4818 -1.9032 -2.5483
18403TIP3    H276701   1.041   4.520   2.287 -1.5187 -0.5875  2.2472
18404TIP3   OH276702   0.046   3.010   5.722 -0.3250  0.3243  0.1080
18404TIP3    H176703   0.078   2.972   5.803  2.0155  1.2042 -0.3241
18404TIP3    H276704  -0.035   3.054   5.746 -2.2690 -3.2939  0.9663
18405TIP3   OH276705   1.907   4.611  12.730 -0.7092 -0.4638 -0.0238
18405TIP3    H176706   1.907   4.532  12.784 -1.7795 -0.7391 -0.4030
18405TIP3    H276707   1.818   4.616  12.694 -0.9940  1.4645  0.8119
18406TIP3   OH276708   5.073   1.210   4.023 -0.2604 -0.0460  0.6887
18406TIP3    H176709   5.076   1.224   4.118  1.1839  0.5788  0.5765
18406TIP3    H276710   5.116   1.287   3.986  1.3374 -1.3611 -0.3425
18407TIP3   OH276711   0.082   0.086   3.848  0.1358 -0.1572 -0.4198
18407TIP3    H176712   0.032   0.164   3.823 -1.7596 -1.1903  0.0106
18407TIP3    H276713   0.104   0.100   3.940 -0.7445 -0.4149 -0.1711
18408TIP3   OH276714   3.914   1.009  12.259  0.0989 -0.0637  0.0965
18408TIP3    H176715   3.990   0.960  12.227 -0.4796  0.4675 -2.3129
18408TIP3    H276716   3.846   0.991  12.194 -0.7619  2.2036  0.3036
18409TIP3   OH276717   3.175   1.992   1.825 -0.1005  0.1569 -0.4556
18409TIP3    H176718   3.222   2.033   1.897  0.8763  1.5605 -1.8427
18409TIP3    H276719   3.089   1.970   1.862  0.7484 -0.1451  1.4079
18410TIP3   OH276720   4.427   0.894   4.474 -0.2335  0.2293 -0.0739
18410TIP3    H176721   4.432   0.912   4.567  0.5002 -1.1570  0.1813
18410TIP3    H276722   4.513   0.858   4.452 -0.6210 -0.0887 -1.1396
18411TIP3   OH276723   3.799   3.690  11.504  0.3200 -0.1896 -0.2454
18411TIP3    H176724   3.887   3.661  11.525 -0.1532 -2.2346 -0.7914
18411TIP3    H276725   3.755   3.611  11.471 -2.2821  0.2294  1.7812
18412TIP3   OH276726   0.867   4.729  16.163  0.3004  0.4212  0.0525
18412TIP3    H176727   0.916   4.696  16.087  0.6493  1.0662 -0.0147
18412TIP3    H276728   0.783   4.757  16.126 -0.1602 -0.7392  0.1793
18413TIP3   OH276729   2.514   6.409   2.030  0.5083 -0.5369  0.4652
18413TIP3    H176730   2.428   6.368   2.035  0.4684 -0.4533  0.4743
18413TIP3    H276731   2.564   6.354   1.970  0.0025  0.1952 -0.6456
18414TIP3   OH276732   4.624   6.315  15.050  0.1397  0.0022 -0.1134
18414TIP3    H176733   4.710   6.356  15.040  0.2238 -0.0738  0.2741
18414TIP3    H276734   4.643   6.231  15.091 -0.0583 -0.3050 -0.6403
18415TIP3   OH276735   6.668   2.485   0.479  0.1831  0.7336  0.4736
18415TIP3    H176736   6.720   2.413   0.516 -1.4134 -0.0194  1.3429
18415TIP3    H276737   6.597   2.442   0.432 -0.1356  1.7448  0.0052
18416TIP3   OH276738   5.236   5.305   0.425 -0.8465 -0.8580  0.6222
18416TIP3    H176739   5.209   5.213   0.414  0.6885 -1.1706 -0.9837
18416TIP3    H276740   5.313   5.300   0.482  0.0611 -0.7379 -0.5651
18417TIP3   OH276741   6.476   5.831  10.794  0.5970  0.0864  0.7065
18417TIP3    H176742   6.525   5.827  10.712 -0.5125 -0.1056  0.0273
18417TIP3    H276743   6.408   5.765  10.785  0.0475  0.5140  1.5159
18418TIP3   OH276744   2.711   0.976   1.132 -0.3609  0.4340 -0.4422
18418TIP3    H176745   2.801   0.945   1.140  0.0101  1.2885 -1.1719
18418TIP3    H276746   2.661   0.917   1.188  1.0683  1.9015  2.6097
18419TIP3   OH276747   4.978   1.168  16.658 -0.3685  0.6537  0.2254
18419TIP3    H176748   5.042   1.240  16.659  0.5758 -0.1596  0.4909
18419TIP3    H276749   4.914   1.193  16.593 -0.4142  2.0462  0.7700
18420TIP3   OH276750   1.001   1.881   2.934  0.4243  0.0354 -0.4000
18420TIP3    H176751   0.969   1.814   2.873  0.2435 -0.8380  0.6263
18420TIP3    H276752   1.023   1.832   3.014 -3.9918  1.6051  2.1235
18421TIP3   OH276753   5.376   6.021  11.629  0.1615  0.0626 -0.3300
18421TIP3    H176754   5.311   6.039  11.561 -1.1342  1.1398  1.1251
18421TIP3    H276755   5.399   6.108  11.664  0.5409 -0.4844  0.8270
18422TIP3   OH276756   3.065   1.705  10.635  0.4214  0.2065 -0.5434
18422TIP3    H176757   3.079   1.770  10.567  0.0664 -0.0043 -0.8207
18422TIP3    H276758   2.982   1.731  10.676 -0.2730 -0.6726 -1.3567
18423TIP3   OH276759   3.566   3.335   4.371  0.4422  0.1271 -0.1468
18423TIP3    H176760   3.585   3.241   4.369 -1.1313 -0.2129 -0.3379
18423TIP3    H276761   3.593   3.367   4.285  0.3554 -0.2859 -0.3295
18424TIP3   OH276762   1.779   0.343  12.363  0.3215  0.6738  0.4016
18424TIP3    H176763   1.685   0.339  12.375  0.4328  0.3561  1.1894
18424TIP3    H276764   1.790   0.385  12.278 -0.5494 -0.1895 -0.1628
18425TIP3   OH276765   6.326   2.393  14.283  0.2469 -0.3078  0.2562
18425TIP3    H176766   6.285   2.423  14.365  1.3918 -0.3362  0.8608
18425TIP3    H276767   6.351   2.303  14.300 -0.1233 -0.5349 -0.3776
18426TIP3   OH276768   2.256   4.973  12.368  0.0821  0.2303 -0.4950
18426TIP3    H176769   2.204   4.904  12.327  0.4629  0.5850 -1.6163
18426TIP3    H276770   2.304   5.013  12.295 -0.0804  1.6352  0.1418
18427TIP3   OH276771   6.517   3.499   1.553 -0.7624  0.2071  0.1986
18427TIP3    H176772   6.421   3.496   1.554 -0.7521 -0.1617  0.6801
18427TIP3    H276773   6.542   3.479   1.643 -0.1965 -1.5330 -0.3083
18428TIP3   OH276774   5.170   3.535   1.592 -0.2339 -0.3111 -0.1902
18428TIP3    H176775   5.247   3.526   1.536  1.1741 -2.1555  1.8402
18428TIP3    H276776   5.096   3.528   1.533  1.1669 -0.7629 -1.9801
18429TIP3   OH276777   0.879   6.787  14.756  0.0216  0.0494  0.1077
18429TIP3    H176778   0.803   6.779  14.698 -0.6415  0.4329  0.8988
18429TIP3    H276779   0.934   6.853  14.715 -0.5477  0.4743  0.0143
18430TIP3   OH276780   4.390   0.165   6.241  0.0407  0.0982 -0.3289
18430TIP3    H176781   4.400   0.257   6.218 -1.2639  0.1632 -0.7112
18430TIP3    H276782   4.316   0.135   6.188 -0.1167 -0.9384  0.4433
18431TIP3   OH276783   6.603   0.694  13.339  0.2269 -0.6011 -0.3715
18431TIP3    H176784   6.584   0.786  13.320 -2.6079 -1.2081 -1.0450
18431TIP3    H276785   6.678   0.673  13.284  1.2444  1.3914  0.1621
18432TIP3   OH276786   1.614   5.761   2.113  0.3921  0.1429 -0.8107
18432TIP3    H176787   1.708   5.775   2.125  0.8571 -2.9423 -0.0413
18432TIP3    H276788   1.591   5.697   2.180 -1.6112 -1.3792 -2.8247
18433TIP3   OH276789   6.093   2.775   6.358  0.4272  0.2059 -0.5467
18433TIP3    H176790   6.079   2.759   6.264 -0.6696  1.5862 -0.6520
18433TIP3    H276791   6.038   2.711   6.402  2.7927 -2.1301 -0.7294
18434TIP3   OH276792   5.740   1.795   4.294  0.2654 -0.2076 -0.2747
18434TIP3    H176793   5.664   1.836   4.253  0.4710 -2.1272 -2.8378
18434TIP3    H276794   5.806   1.865   4.297 -0.4374  0.5476 -1.4336
18435TIP3   OH276795   1.404   0.716   5.377 -0.0789  0.3867  0.2200
18435TIP3    H176796   1.459   0.764   5.439 -1.3319  1.7835  0.3056
18435TIP3    H276797   1.343   0.667   5.432 -0.3411  0.5743  0.0924
18436TIP3   OH276798   0.863   4.224  14.320 -0.8227 -0.6113 -0.3431
18436TIP3    H176799   0.873   4.225  14.225  2.5402  0.9564 -0.1316
18436TIP3    H276800   0.834   4.313  14.342  2.5028  0.4811  0.2154
18437TIP3   OH276801   4.433   2.130  10.870  0.1302  0.1788 -0.0692
18437TIP3    H176802   4.350   2.145  10.916 -0.0523  0.9875 -0.6308
18437TIP3    H276803   4.480   2.213  10.880  0.2718  0.2159 -0.9456
18438TIP3   OH276804   0.359   4.999   6.175 -0.0179 -0.0364  0.0358
18438TIP3    H176805   0.264   5.000   6.172 -0.0279 -0.2946 -3.6547
18438TIP3    H276806   0.385   4.915   6.137  1.5456  1.9213 -3.7744
18439TIP3   OH276807   2.421   3.313   3.892 -0.1394 -0.1552  0.1936
18439TIP3    H176808   2.356   3.345   3.830  0.5799  1.7447  0.3488
18439TIP3    H276809   2.496   3.372   3.880  1.1388 -1.5954  0.7894
18440TIP3   OH276810   4.101   2.829   3.993  0.4811 -0.0213  0.3777
18440TIP3    H176811   4.128   2.745   4.030  3.0907 -0.4175 -2.0649
18440TIP3    H276812   4.163   2.893   4.030  0.9935  0.1246 -0.6941
18441TIP3   OH276813   0.917   2.526  13.868 -0.2472 -0.0318  0.9653
18441TIP3    H176814   0.880   2.453  13.916 -1.4709  0.5380  0.9345
18441TIP3    H276815   0.844   2.560  13.816  0.5874  0.4839  0.0862
18442TIP3   OH276816   0.884   3.157  13.020  0.0791  0.4881 -0.3075
18442TIP3    H176817   0.882   3.248  13.049  0.9059  0.0405  1.2429
18442TIP3    H276818   0.971   3.146  12.982 -0.1718  0.4304 -0.8879
18443TIP3   OH276819   0.656   4.561  16.267  0.4199 -0.3207 -0.3568
18443TIP3    H176820   0.744   4.587  16.241  0.7158  0.0584  0.9919
18443TIP3    H276821   0.642   4.600  16.353 -0.7862 -0.9845 -0.2132
18444TIP3   OH276822   5.614   2.957  13.128  0.5375  0.3661  0.5632
18444TIP3    H176823   5.602   3.050  13.109  2.2300  0.2566 -1.3992
18444TIP3    H276824   5.664   2.924  13.053  1.2258 -1.8204  1.9137
18445TIP3   OH276825   3.674   0.986   0.200 -0.2772 -0.3172 -0.2266
18445TIP3    H176826   3.608   0.961   0.264  0.2206  0.2729  0.5481
18445TIP3    H276827   3.712   1.067   0.235  1.7244 -1.3137  0.0295
18446TIP3   OH276828   3.683   1.797  13.824 -0.0606 -0.1078  0.3138
18446TIP3    H176829   3.662   1.719  13.772 -0.0495 -0.9694  1.5689
18446TIP3    H276830   3.653   1.777  13.912 -0.2720  1.4167  0.6304
18447TIP3   OH276831   4.352   3.516   0.975 -0.2407 -0.2062 -0.7828
18447TIP3    H176832   4.372   3.562   0.893  0.1038  1.7932  0.3684
18447TIP3    H276833   4.265   3.479   0.961  0.6509 -1.7515 -2.7886
18448TIP3   OH276834   1.230   5.357  16.484  0.2543 -0.1654  0.2062
18448TIP3    H176835   1.262   5.447  16.489 -1.3047  0.4851 -0.7156
18448TIP3    H276836   1.288   5.314  16.421 -0.5751  0.9705 -1.4155
18449TIP3   OH276837   6.539   5.815  16.482  0.2880  0.3418 -0.1971
18449TIP3    H176838   6.494   5.897  16.462 -0.7004 -0.3722 -1.0315
18449TIP3    H276839   6.496   5.750  16.426 -0.2728 -1.1336  1.8284
18450TIP3   OH276840   4.344   3.279  15.190 -0.3634 -1.2296  0.3719
18450TIP3    H176841   4.335   3.233  15.107  3.6134 -2.0726  0.1764
18450TIP3    H276842   4.329   3.212  15.257  0.8981 -1.7456  0.1710
18451TIP3   OH276843   3.326   0.200   3.442 -0.4652  0.4150  0.0115
18451TIP3    H176844   3.252   0.234   3.493 -0.8188 -0.1819 -0.0927
18451TIP3    H276845   3.396   0.264   3.456 -1.3333  1.6162 -0.7958
18452TIP3   OH276846   3.811   0.663  11.718 -0.1861 -0.1576 -0.4524
18452TIP3    H176847   3.753   0.615  11.778 -0.0586  2.4274  1.9393
18452TIP3    H276848   3.832   0.599  11.650 -3.9565 -1.9509 -0.2203
18453TIP3   OH276849   6.306   2.550  13.720  0.2657 -0.0839  0.3398
18453TIP3    H176850   6.313   2.549  13.815  2.3312 -1.8843  0.2426
18453TIP3    H276851   6.218   2.517  13.702  0.9137 -2.8719  1.6761
18454TIP3   OH276852   2.208   3.601  11.026  0.4348 -0.0127 -0.1545
18454TIP3    H176853   2.279   3.540  11.047 -0.1597 -0.7651 -0.2908
18454TIP3    H276854   2.227   3.631  10.937  1.5721  1.2077  0.4851
18455TIP3   OH276855   5.321   4.174  10.692  0.2102  0.2426  0.3086
18455TIP3    H176856   5.398   4.166  10.636 -0.6139 -0.0168 -0.8152
18455TIP3    H276857   5.312   4.268  10.708 -0.2092  0.4470 -0.9830
18456TIP3   OH276858   4.227   1.106  14.139 -0.2041  0.5053 -0.3855
18456TIP3    H176859   4.142   1.072  14.112  0.1270  0.0808 -0.8992
18456TIP3    H276860   4.207   1.192  14.177 -1.1204 -0.4593  1.4531
18457TIP3   OH276861   6.624   1.208  16.363  1.0093  0.1228  0.0633
18457TIP3    H176862   6.583   1.221  16.449  1.1807 -1.1716  0.3564
18457TIP3    H276863   6.579   1.133  16.326  1.1150  0.5174 -0.8838
18458TIP3   OH276864   0.187   2.370  12.802  0.3476  0.0500  0.2377
18458TIP3    H176865   0.229   2.371  12.888 -0.4202  1.7075  0.6464
18458TIP3    H276866   0.247   2.420  12.746  0.5698 -0.5400 -0.0582
18459TIP3   OH276867   2.794   0.470   4.811 -0.9955  0.0346  0.0796
18459TIP3    H176868   2.714   0.495   4.857 -0.2834  2.4856  0.1425
18459TIP3    H276869   2.834   0.403   4.867 -0.3719  2.5748  2.9758
18460TIP3   OH276870   6.220   2.566   3.489  0.1934 -0.2647 -0.4238
18460TIP3    H176871   6.316   2.563   3.492  0.2124  0.6241  0.0787
18460TIP3    H276872   6.193   2.477   3.510  0.9348 -1.1001 -2.6379
18461TIP3   OH276873   4.555   4.263  15.575  0.2361  0.3014  0.2694
18461TIP3    H176874   4.614   4.192  15.548 -0.2675  0.5175 -1.4521
18461TIP3    H276875   4.614   4.337  15.592  0.6797 -0.2408  1.1994
18462TIP3   OH276876   6.474   1.924   1.688  0.6362 -0.2470 -0.0434
18462TIP3    H176877   6.522   1.991   1.638  1.6656 -0.8528  0.1027
18462TIP3    H276878   6.446   1.970   1.767  0.9375  0.1442 -0.1577
18463TIP3   OH276879   1.851   5.422   3.217  0.6446 -0.2110  0.5296
18463TIP3    H176880   1.932   5.379   3.191  0.3304 -1.1591  1.0885
18463TIP3    H276881   1.782   5.377   3.168  0.2503 -0.7839  1.5758
18464TIP3   OH276882   6.407   4.296  12.085  0.3737  0.3025  0.0509
18464TIP3    H176883   6.391   4.328  11.996 -0.7984 -2.2783 -0.7681
18464TIP3    H276884   6.364   4.360  12.141 -0.7427  0.8666 -1.3781
18465TIP3   OH276885   1.736   0.044  15.038  0.0048  0.9220 -0.4550
18465TIP3    H176886   1.802   0.068  14.974 -0.0037  1.6026 -0.2189
18465TIP3    H276887   1.737   0.115  15.102 -1.4753  1.3365 -0.8431
18466TIP3   OH276888   6.179   6.286  16.346 -0.3604  0.0300 -0.0926
18466TIP3    H176889   6.226   6.369  16.335  0.1826 -0.3660 -0.8578
18466TIP3    H276890   6.115   6.304  16.415  0.7955  0.6354  0.8553
18467TIP3   OH276891   0.323   2.557  13.452  0.0706  0.0586  0.3302
18467TIP3    H176892   0.389   2.581  13.518  2.2680  0.4664 -1.8768
18467TIP3    H276893   0.346   2.468  13.427 -0.1430  0.2343 -0.5222
18468TIP3   OH276894   0.763   2.481  15.349 -0.1620  0.9099  0.4177
18468TIP3    H176895   0.802   2.543  15.287 -0.6753 -0.8445 -1.7775
18468TIP3    H276896   0.736   2.407  15.295 -1.9826 -0.1031  2.5665
18469TIP3   OH276897   0.246   3.324   0.845 -0.7109  0.4950 -0.4187
18469TIP3    H176898   0.162   3.281   0.864  0.1883 -0.4965  1.6452
18469TIP3    H276899   0.275   3.357   0.930  0.5652  1.6634 -1.2661
18470TIP3   OH276900   5.567   3.300  11.802  0.1700 -0.3866  0.1579
18470TIP3    H176901   5.500   3.301  11.734 -0.0356  1.0727  0.3537
18470TIP3    H276902   5.552   3.380  11.852  1.3678 -0.5975  0.8973
18471TIP3   OH276903   3.563   0.810   3.882 -0.4158  0.2101 -0.0863
18471TIP3    H176904   3.548   0.871   3.954  0.8078  0.1412  0.2630
18471TIP3    H276905   3.502   0.837   3.813 -2.0186 -0.0798  1.1674
18472TIP3   OH276906   0.955   5.038  15.525  0.0026 -0.2898  0.1748
18472TIP3    H176907   0.929   5.020  15.615  1.2078  2.0784  1.0923
18472TIP3    H276908   0.890   5.100  15.493 -0.1469 -0.7523 -0.4304
18473TIP3   OH276909   2.181   0.790   4.532  0.0501  0.1671  0.3193
18473TIP3    H176910   2.270   0.780   4.564  0.7506 -0.3674 -1.6597
18473TIP3    H276911   2.144   0.701   4.534 -0.2642  0.3001  0.6112
18474TIP3   OH276912   5.084   1.162   5.001  0.1411  0.3830 -0.1390
18474TIP3    H176913   5.076   1.256   4.988  0.2072  0.4125  0.0277
18474TIP3    H276914   5.161   1.152   5.058  0.1108  0.2320 -0.1234
18475TIP3   OH276915   5.248   6.562  16.743 -0.6444  0.5820  0.0585
18475TIP3    H176916   5.307   6.609  16.802 -0.7006  0.9906 -0.2034
18475TIP3    H276917   5.236   6.476  16.783  0.0325  0.5414  0.1750
18476TIP3   OH276918   0.711   6.109  15.776  0.3927 -0.0321  0.2459
18476TIP3    H176919   0.752   6.144  15.696 -0.4887  1.3609  0.3647
18476TIP3    H276920   0.776   6.123  15.844  0.6219  0.0503  0.0141
18477TIP3   OH276921   6.559   6.331  16.669 -0.1228 -0.1124  0.3449
18477TIP3    H176922   6.520   6.262  16.723  1.6279 -1.1456  0.3800
18477TIP3    H276923   6.599   6.284  16.596  1.0763  0.8641  0.3403
18478TIP3   OH276924   2.076   1.906   4.873 -0.4251 -0.0092 -0.3037
18478TIP3    H176925   2.043   1.938   4.789  1.3713 -0.0527 -1.0777
18478TIP3    H276926   2.150   1.963   4.893 -1.3045  0.5269  1.7018
18479TIP3   OH276927   3.700   3.028  13.499 -0.4639  0.3339 -0.0226
18479TIP3    H176928   3.771   2.973  13.532  0.1896  0.9645 -0.3457
18479TIP3    H276929   3.638   3.034  13.572  0.7873  1.4327  1.0164
18480TIP3   OH276930   0.321   0.520   5.800  0.1414  0.3100  0.7944
18480TIP3    H176931   0.405   0.485   5.770  1.7842  3.6113  0.9866
18480TIP3    H276932   0.331   0.525   5.895 -0.2732  0.6739  0.8212
18481TIP3   OH276933   5.554   6.486  10.382 -0.6880 -0.0393  0.2497
18481TIP3    H176934   5.630   6.466  10.327  0.2915  0.7547  1.2560
18481TIP3    H276935   5.484   6.507  10.320 -0.4808 -2.0230 -0.7249
18482TIP3   OH276936   1.372   5.063   4.788  0.0797  0.3415 -0.0411
18482TIP3    H176937   1.424   5.039   4.865 -2.6131 -0.5755  1.6514
18482TIP3    H276938   1.345   4.979   4.750 -0.1439  0.7929 -0.9043
18483TIP3   OH276939   4.806   4.816  12.996  0.4044  0.3918 -0.2151
18483TIP3    H176940   4.810   4.809  13.092 -0.0940 -0.7070 -0.2671
18483TIP3    H276941   4.769   4.733  12.967  3.4041 -0.5904 -1.6061
18484TIP3   OH276942   6.114   4.209  15.994  0.3276 -0.5206  0.0293
18484TIP3    H176943   6.172   4.264  16.047 -0.1978 -1.0988  1.2431
18484TIP3    H276944   6.114   4.251  15.908 -2.4308  3.3263  1.5957
18485TIP3   OH276945   4.957   6.380   3.776 -0.4507  0.1741  1.0008
18485TIP3    H176946   4.931   6.328   3.700  2.3754 -0.3159  0.2794
18485TIP3    H276947   5.050   6.362   3.787 -0.2551  2.0887  3.1506
18486TIP3   OH276948   5.716   1.621   1.656 -0.0805 -0.5336  0.2040
18486TIP3    H176949   5.656   1.650   1.588  0.6289 -1.0228 -0.6562
18486TIP3    H276950   5.710   1.688   1.724 -1.1778 -0.3018 -0.1123
18487TIP3   OH276951   0.514   2.703   0.627 -0.2614 -0.4616 -0.6050
18487TIP3    H176952   0.494   2.783   0.578  0.1903 -0.5952 -1.0106
18487TIP3    H276953   0.500   2.728   0.719 -0.0403  0.1119 -0.7208
18488TIP3   OH276954   4.694   2.056   4.531 -0.4941 -0.8110  0.2182
18488TIP3    H176955   4.600   2.059   4.550  0.1157 -0.7459  4.0277
18488TIP3    H276956   4.713   1.964   4.517 -1.0440 -0.8905 -0.0366
18489TIP3   OH276957   2.314   3.918  11.302 -0.8132  0.3475 -0.1599
18489TIP3    H176958   2.393   3.868  11.319 -0.4107  0.8282 -0.5924
18489TIP3    H276959   2.332   3.965  11.221 -0.8976  1.7571  0.6030
18490TIP3   OH276960   6.762   4.089   3.782 -0.7890  0.0445  0.1247
18490TIP3    H176961   6.824   4.063   3.850  1.2193  1.3834 -1.0771
18490TIP3    H276962   6.687   4.032   3.796 -0.1998 -0.2265  2.9965
18491TIP3   OH276963   6.267   5.444  15.288 -0.4209 -0.0116 -0.2832
18491TIP3    H176964   6.215   5.386  15.344  0.2615 -1.8190 -1.4290
18491TIP3    H276965   6.357   5.412  15.299  0.0971  1.3676 -0.3558
18492TIP3   OH276966   5.247   5.744   0.358 -0.2798  0.3396 -0.1881
18492TIP3    H176967   5.196   5.727   0.279 -2.4300 -0.9146  1.3683
18492TIP3    H276968   5.204   5.693   0.426  1.3836  1.4948  1.8536
18493TIP3   OH276969   0.210   6.353   5.520  0.6424  0.2537  0.0476
18493TIP3    H176970   0.198   6.294   5.594  1.9523  0.1628  0.2139
18493TIP3    H276971   0.295   6.394   5.535 -0.0641  1.9104 -0.2765
18494TIP3   OH276972   2.989   2.847   2.985  0.1814 -0.2092 -0.3148
18494TIP3    H176973   2.912   2.829   2.930  0.6394 -0.3670 -0.9123
18494TIP3    H276974   3.010   2.939   2.966  1.5950 -0.8368 -2.0185
18495TIP3   OH276975   0.798   1.613  12.734 -0.3490  0.2323  0.3699
18495TIP3    H176976   0.887   1.643  12.751  0.6069 -0.7391 -2.3585
18495TIP3    H276977   0.803   1.518  12.744 -0.9244  0.1220 -0.3174
18496TIP3   OH276978   6.196   1.182   1.149  0.0986  0.8789 -0.1676
18496TIP3    H176979   6.284   1.196   1.112 -0.2680  1.1570 -0.9721
18496TIP3    H276980   6.169   1.269   1.179 -0.0461  0.8727 -0.2752
18497TIP3   OH276981   5.789   6.832   2.293 -1.0399  0.0071 -0.1428
18497TIP3    H176982   5.782   6.923   2.320  0.7525  0.4778 -1.1015
18497TIP3    H276983   5.781   6.834   2.198  1.8721 -0.3802 -0.4946
18498TIP3   OH276984   3.576   4.188  16.154 -0.1558  0.2221  0.0750
18498TIP3    H176985   3.617   4.273  16.140 -0.0231 -0.2547 -3.3136
18498TIP3    H276986   3.482   4.204  16.142 -0.2678  0.0937  0.7407
18499TIP3   OH276987   5.131   0.063  15.489 -0.0416  0.2641 -0.1814
18499TIP3    H176988   5.051   0.110  15.512 -0.8827 -0.5264 -1.3636
18499TIP3    H276989   5.200   0.129  15.494 -0.6459  0.8374  1.4314
18500TIP3   OH276990   5.291   0.470  15.323 -0.6484  1.1065  0.1682
18500TIP3    H176991   5.324   0.530  15.256  2.5237 -0.6480  0.0021
18500TIP3    H276992   5.304   0.516  15.405  0.1771  1.3379 -0.0834
18501TIP3   OH276993   0.132   5.534   3.315  0.2213  0.1208 -0.1236
18501TIP3    H176994   0.047   5.538   3.360  0.1205 -1.6704 -0.0878
18501TIP3    H276995   0.139   5.443   3.285  2.1114  0.2506 -0.1769
18502TIP3   OH276996   5.946   3.852  13.187 -0.4469 -0.0342  0.8716
18502TIP3    H176997   6.034   3.853  13.224  0.0959  0.0608 -0.3551
18502TIP3    H276998   5.916   3.762  13.199  0.6799 -0.6465 -0.5643
18503TIP3   OH276999   4.042   0.332  14.554 -1.0279 -0.5792  0.5257
18503TIP3    H177000   4.123   0.290  14.584 -0.2986  0.2874 -0.1637
18503TIP3    H277001   4.054   0.341  14.459 -1.4750  0.5099  0.5585
18504TIP3   OH277002   4.545   2.160  13.179  0.4400  0.6316  0.4638
18504TIP3    H177003   4.476   2.221  13.203 -0.7046 -0.0300 -0.9860
18504TIP3    H277004   4.605   2.212  13.125  0.1722  0.7949  0.3213
18505TIP3   OH277005   6.039   6.143  16.823 -0.2838  0.1904  0.4379
18505TIP3    H177006   6.115   6.200  16.827 -0.2079  0.1813 -0.5110
18505TIP3    H277007   6.075   6.054  16.823 -0.3754  0.1416  1.3756
18506TIP3   OH277008   2.313   4.103   5.456  0.6985 -0.0259  0.0386
18506TIP3    H177009   2.402   4.137   5.450  0.6644 -0.0655 -0.8640
18506TIP3    H277010   2.324   4.008   5.454  0.6488 -0.0338  0.1439
18507TIP3   OH277011   4.782   4.010   4.731  0.4910  0.1584  0.1640
18507TIP3    H177012   4.760   3.944   4.797 -2.8034  0.3198 -0.5764
18507TIP3    H277013   4.815   4.084   4.781  0.0622 -0.4869  1.4530
18508TIP3   OH277014   5.630   5.343   3.654  0.0891  0.5089  0.2869
18508TIP3    H177015   5.667   5.343   3.566 -0.5604  0.3699  0.0097
18508TIP3    H277016   5.608   5.252   3.672 -0.2808  0.6154  0.3810
18509TIP3   OH277017   5.188   2.099  12.163  0.2299  0.1681  0.2892
18509TIP3    H177018   5.117   2.154  12.196  1.1434  0.1776  2.3805
18509TIP3    H277019   5.144   2.023  12.125 -1.0132  1.8624 -1.8920
18510TIP3   OH277020   6.748   2.141   1.305  0.0014  0.1558  0.1692
18510TIP3    H177021   6.800   2.066   1.276  1.6425  0.7241  1.4839
18510TIP3    H277022   6.792   2.217   1.267 -1.1230  0.5481 -0.4114
18511TIP3   OH277023   3.561   2.430  16.060  0.1033 -0.2191 -1.0036
18511TIP3    H177024   3.509   2.350  16.067  1.5248 -1.1134 -0.1825
18511TIP3    H277025   3.609   2.421  15.978  0.6945 -0.4887 -0.6336
18512TIP3   OH277026   5.287   4.218  14.482 -0.2466 -0.1981  0.1981
18512TIP3    H177027   5.293   4.140  14.427 -2.5808  0.6966 -1.4793
18512TIP3    H277028   5.282   4.290  14.420  1.9420  1.3605  1.7069
18513TIP3   OH277029   5.718   6.522  14.200 -0.3966 -0.0100  0.1659
18513TIP3    H177030   5.743   6.610  14.173 -0.9139  0.0605 -0.0981
18513TIP3    H277031   5.622   6.525  14.204 -0.3807 -0.3302  0.9434
18514TIP3   OH277032   5.427   2.993   4.241  0.4033  0.2740  0.3535
18514TIP3    H177033   5.387   3.077   4.263  0.1017 -0.2383  1.9668
18514TIP3    H277034   5.359   2.929   4.261  1.3136 -0.4763  1.1296
18515TIP3   OH277035   2.354   5.337   1.983 -0.1652  0.4465  0.1214
18515TIP3    H177036   2.293   5.321   2.055  0.5369  0.1490  0.6667
18515TIP3    H277037   2.397   5.419   2.006 -1.4153  1.4768 -1.0249
18516TIP3   OH277038   4.985   3.680   2.003  0.1204 -0.2210 -0.0801
18516TIP3    H177039   4.936   3.747   2.050 -0.4661 -1.7082  1.5564
18516TIP3    H277040   5.077   3.698   2.024  0.0875  0.8412 -0.7779
18517TIP3   OH277041   5.551   2.650  13.999 -0.4605 -0.0092  0.0008
18517TIP3    H177042   5.642   2.670  13.976 -0.0599 -1.3135  0.3797
18517TIP3    H277043   5.519   2.597  13.926 -1.5837  2.0372 -1.1015
18518TIP3   OH277044   0.510   6.578   2.313  0.1180 -0.2179  0.3100
18518TIP3    H177045   0.472   6.490   2.323 -1.9910  0.5422 -0.4175
18518TIP3    H277046   0.436   6.637   2.324  1.4996  1.5032  0.7869
18519TIP3   OH277047   2.991   1.059   0.227 -0.5161  0.0519 -0.0683
18519TIP3    H177048   2.985   1.041   0.321 -0.5452  1.9356  0.3233
18519TIP3    H277049   2.913   1.017   0.190 -2.3456  2.0745  1.2718
18520TIP3   OH277050   5.081   3.868  15.605 -0.0269  0.0196  0.4710
18520TIP3    H177051   5.137   3.914  15.541 -0.9010  0.7105  0.1818
18520TIP3    H277052   5.088   3.920  15.685 -0.8505  0.5734  0.2048
18521TIP3   OH277053   6.299   2.604   6.121 -0.1327 -0.3044  0.5125
18521TIP3    H177054   6.333   2.694   6.122 -2.2299  0.5979  2.6365
18521TIP3    H277055   6.206   2.614   6.142 -1.0513 -2.8248 -1.8551
18522TIP3   OH277056   4.457   6.103  15.329 -0.4161  0.1611  0.3235
18522TIP3    H177057   4.546   6.121  15.300 -0.5280 -0.4282 -0.4010
18522TIP3    H277058   4.419   6.190  15.346  0.2475  0.4155  0.5264
18523TIP3   OH277059   0.617   5.928  11.367 -0.0065 -0.3119  0.4829
18523TIP3    H177060   0.610   6.020  11.343  1.2000 -0.3935 -0.2311
18523TIP3    H277061   0.660   5.886  11.292  2.0838 -0.9146  1.9196
18524TIP3   OH277062   2.985   4.473   4.944 -0.5704 -0.8608 -0.1469
18524TIP3    H177063   2.920   4.420   4.897 -1.3228 -0.5744  0.5548
18524TIP3    H277064   2.938   4.508   5.019 -0.0604  0.7528 -0.5503
18525TIP3   OH277065   3.667   3.374   0.742 -0.0228 -0.8910 -0.5947
18525TIP3    H177066   3.678   3.443   0.808 -1.0872 -1.3110  0.0464
18525TIP3    H277067   3.736   3.311   0.762  0.2879 -0.5310 -0.5136
18526TIP3   OH277068   2.946   0.211  14.310 -0.4584  0.0525  0.2188
18526TIP3    H177069   2.856   0.179  14.308 -0.7974  0.9088  0.9770
18526TIP3    H277070   2.963   0.227  14.403  0.8717 -1.1824  0.2051
18527TIP3   OH277071   4.999   4.026   5.414 -0.3659  0.0487 -0.7294
18527TIP3    H177072   4.980   4.023   5.320  1.4383 -1.1437 -1.1051
18527TIP3    H277073   4.986   3.936   5.444  1.1520 -0.0454 -0.3026
18528TIP3   OH277074   3.273   1.700   2.004  0.2984 -0.1950  0.6242
18528TIP3    H177075   3.239   1.615   2.032  1.2597 -0.8963 -0.2491
18528TIP3    H277076   3.360   1.705   2.043  1.1484 -0.6314 -1.1077
18529TIP3   OH277077   0.098   0.888   0.814 -0.0828 -0.3094 -0.4551
18529TIP3    H177078   0.096   0.983   0.829  1.0711 -0.2270 -0.7026
18529TIP3    H277079   0.009   0.859   0.834 -0.2466  0.7022  0.4160
18530TIP3   OH277080   3.483   5.532  15.842  0.4053  0.1264 -0.0116
18530TIP3    H177081   3.538   5.464  15.803  0.8381  1.1082 -1.1624
18530TIP3    H277082   3.542   5.606  15.855  0.0524  0.1614  1.6674
18531TIP3   OH277083   5.844   4.802   4.509  0.0365  0.7210  0.4867
18531TIP3    H177084   5.750   4.779   4.510  0.3354 -0.8132 -1.2293
18531TIP3    H277085   5.845   4.897   4.514 -1.8577  1.1486 -3.4102
18532TIP3   OH277086   5.596   5.798  14.980 -0.1721  0.3607 -0.3916
18532TIP3    H177087   5.615   5.873  15.036  0.1693 -0.5424  0.7358
18532TIP3    H277088   5.677   5.783  14.931 -0.5153  1.2367 -1.2530
18533TIP3   OH277089   5.641   4.047  15.223 -0.7701 -0.1477  0.3627
18533TIP3    H177090   5.686   4.040  15.308  1.1539  0.4560 -0.5484
18533TIP3    H277091   5.601   4.134  15.225  1.8933  1.2265 -0.4537
18534TIP3   OH277092   1.556   3.544   1.904 -0.4808 -0.2966 -0.4021
18534TIP3    H177093   1.555   3.638   1.920  2.5271 -0.0779 -0.9459
18534TIP3    H277094   1.614   3.509   1.971  0.2465 -1.4447 -1.5927
18535TIP3   OH277095   1.115   4.924   1.500 -0.3994 -0.6807  0.3778
18535TIP3    H177096   1.053   4.851   1.487 -2.2077  0.9436 -0.6291
18535TIP3    H277097   1.060   5.002   1.504  1.6427  1.0819 -2.2286
18536TIP3   OH277098   3.910   0.583  16.929 -0.0255 -0.0463 -0.2141
18536TIP3    H177099   3.924   0.500  16.882 -0.1486  0.4428 -1.1286
18536TIP3    H277100   3.815   0.590  16.938  0.0223 -0.5343  0.8602
18537TIP3   OH277101   4.538   4.711  14.685 -0.2274 -0.2668 -0.3783
18537TIP3    H177102   4.630   4.724  14.708 -0.9800  2.4588  1.6662
18537TIP3    H277103   4.530   4.617  14.668  2.5613 -0.8750  1.0878
18538TIP3   OH277104   1.790   1.780  16.239 -0.5897 -0.6741 -0.1565
18538TIP3    H177105   1.745   1.830  16.171  1.5010 -2.1098 -2.8437
18538TIP3    H277106   1.755   1.691  16.231  0.4762 -1.1100 -0.1592
18539TIP3   OH277107   0.840   0.519  11.392  0.2154 -0.3567 -0.0502
18539TIP3    H177108   0.868   0.501  11.482  0.6856 -2.0480 -0.5029
18539TIP3    H277109   0.768   0.457  11.377 -1.1308  1.1832 -0.2518
18540TIP3   OH277110   2.604   0.685  15.873  0.7383 -0.0016 -0.8231
18540TIP3    H177111   2.670   0.626  15.835 -1.0429 -2.2237 -0.6928
18540TIP3    H277112   2.538   0.695  15.804  0.3330  0.7322 -0.3417
18541TIP3   OH277113   4.101   6.452  13.532  0.7240  0.4879  0.4289
18541TIP3    H177114   4.027   6.402  13.565 -0.1200  0.3169 -1.6033
18541TIP3    H277115   4.125   6.510  13.604  0.8017 -1.7548  2.3339
18542TIP3   OH277116   1.636   1.533  16.225  0.9301  0.2358  0.2853
18542TIP3    H177117   1.574   1.513  16.295  1.1692 -0.7586  0.2288
18542TIP3    H277118   1.694   1.456  16.221  3.1867  1.7668  1.4201
18543TIP3   OH277119   3.364   3.636  16.939 -0.1257 -0.2764 -0.5116
18543TIP3    H177120   3.380   3.717  16.890  0.6420 -1.5668 -2.5202
18543TIP3    H277121   3.271   3.638  16.959 -0.0579  1.2614 -0.1447
18544TIP3   OH277122   2.696   5.251   4.980 -0.0068  0.4459  0.0123
18544TIP3    H177123   2.686   5.169   5.028  0.3948  0.2519 -0.2267
18544TIP3    H277124   2.723   5.314   5.047 -0.6009  0.4535  0.2490
18545TIP3   OH277125   3.016   3.768  13.628  0.4304 -0.0505  0.2132
18545TIP3    H177126   3.086   3.830  13.648  0.1337  0.2464  0.3457
18545TIP3    H277127   3.028   3.746  13.536  0.7763 -0.1016  0.2719
18546TIP3   OH277128   3.177   5.494  14.929  0.1937  0.3094  0.0502
18546TIP3    H177129   3.145   5.581  14.904 -0.1261 -0.4166 -2.3284
18546TIP3    H277130   3.113   5.462  14.992 -0.4543  1.2385 -0.1205
18547TIP3   OH277131   3.299   4.516  13.157  0.2936 -0.2750  0.3669
18547TIP3    H177132   3.335   4.467  13.083  1.3325 -0.2226  0.8271
18547TIP3    H277133   3.249   4.587  13.116  1.4028  0.1468 -0.3101
18548TIP3   OH277134   5.982   6.516   0.004  0.6546 -0.3679 -0.3022
18548TIP3    H177135   5.927   6.506   0.082  2.4281  0.9700  1.2456
18548TIP3    H277136   6.061   6.465   0.024  1.7028  1.0798 -0.5773
18549TIP3   OH277137   3.639   1.580  13.141 -0.3370  0.1096  0.6056
18549TIP3    H177138   3.655   1.663  13.097  0.4020  0.2284  1.0943
18549TIP3    H277139   3.674   1.514  13.081 -0.3055  0.1955  0.5285
18550TIP3   OH277140   3.995   5.782  13.938  0.5457 -0.0771 -0.0844
18550TIP3    H177141   4.013   5.689  13.947 -1.2413 -0.6355 -1.5775
18550TIP3    H277142   3.916   5.797  13.990  0.4778  0.4684 -0.3309
18551TIP3   OH277143   5.510   6.222  15.644 -0.1233  0.3929 -0.0524
18551TIP3    H177144   5.419   6.250  15.633  0.0014  0.6343 -0.5118
18551TIP3    H277145   5.556   6.302  15.672 -0.2820 -0.0228  1.5071
18552TIP3   OH277146   1.191   2.846   1.808  0.2608  0.0523  0.0907
18552TIP3    H177147   1.156   2.794   1.736 -0.2860 -0.9481  1.0535
18552TIP3    H277148   1.116   2.896   1.841  0.2238 -0.4178  0.7377
18553TIP3   OH277149   1.528   5.767   2.770 -0.5573 -0.3776 -0.5451
18553TIP3    H177150   1.537   5.704   2.699 -0.8889 -0.2426 -0.7146
18553TIP3    H277151   1.460   5.730   2.827 -0.6739 -0.2317 -0.5865
18554TIP3   OH277152   3.612   5.638   5.139  0.6029  0.1407  0.2777
18554TIP3    H177153   3.681   5.672   5.082  0.7046 -0.1303  0.2361
18554TIP3    H277154   3.531   5.659   5.093  0.7496 -2.1964 -1.1982
18555TIP3   OH277155   0.812   2.021  10.864 -0.4335 -1.0276  0.5798
18555TIP3    H177156   0.758   2.091  10.827  0.6584  0.0789  1.0069
18555TIP3    H277157   0.781   2.011  10.954  0.6869  0.3208  1.1555
18556TIP3   OH277158   0.516   5.148  13.541  0.5345 -0.5683  0.0999
18556TIP3    H177159   0.473   5.222  13.499  0.9764 -0.0947  0.4585
18556TIP3    H277160   0.509   5.076  13.478 -0.7677 -0.5075  0.1583
18557TIP3   OH277161   1.304   6.382   3.456 -0.5426  0.0171  0.2594
18557TIP3    H177162   1.320   6.471   3.425  0.6078 -0.3468 -0.2189
18557TIP3    H277163   1.313   6.389   3.551  0.0515  0.3170  0.1873
18558TIP3   OH277164   3.981   3.104  17.133 -0.3166 -0.0173 -0.4901
18558TIP3    H177165   4.073   3.127  17.124  0.0295 -0.4043  1.5382
18558TIP3    H277166   3.956   3.139  17.219 -1.2713 -2.2675  0.2222
18559TIP3   OH277167   5.014   0.963   4.525 -0.6433 -0.0299  0.5069
18559TIP3    H177168   5.054   1.040   4.483  0.7758  0.3989  2.5167
18559TIP3    H277169   4.949   1.000   4.584  0.6458 -0.2351  2.1364
18560TIP3   OH277170   2.701   3.493   5.141 -0.0053 -0.3269  0.0611
18560TIP3    H177171   2.682   3.554   5.212  0.4650 -2.3777  2.0476
18560TIP3    H277172   2.776   3.530   5.096 -0.0323  0.7935  0.9126
18561TIP3   OH277173   6.252   2.140  15.667 -0.2361 -0.3068  0.5677
18561TIP3    H177174   6.285   2.064  15.620  1.6788  1.0035 -0.3330
18561TIP3    H277175   6.292   2.134  15.753  1.1771  0.4499 -0.0080
18562TIP3   OH277176   3.690   4.219  10.161 -0.0410  0.5304  0.2606
18562TIP3    H177177   3.603   4.211  10.200  0.5576  2.4588  2.2195
18562TIP3    H277178   3.731   4.134  10.174 -2.2461 -1.1198 -2.5508
18563TIP3   OH277179   1.607   3.987   1.028 -1.1529 -0.0142  0.0430
18563TIP3    H177180   1.632   3.903   0.990 -3.3804 -1.0761  0.7587
18563TIP3    H277181   1.659   3.993   1.108 -0.7630 -0.5763 -0.1595
18564TIP3   OH277182   5.132   4.581   4.247 -0.2132  0.7860 -0.0329
18564TIP3    H177183   5.054   4.537   4.280  0.7668  0.0768  1.4492
18564TIP3    H277184   5.110   4.606   4.158 -1.7151 -0.4530 -0.0427
18565TIP3   OH277185   5.836   6.536  12.135 -0.4955  0.0434 -0.0462
18565TIP3    H177186   5.852   6.542  12.229  1.1966  0.2357 -0.3101
18565TIP3    H277187   5.755   6.485  12.128 -0.8202  0.2874  1.5090
18566TIP3   OH277188   4.978   1.638  13.350 -0.1640 -0.4165 -0.2123
18566TIP3    H177189   5.002   1.651  13.258 -1.5012  0.6307 -0.4434
18566TIP3    H277190   4.977   1.543  13.362  1.6971 -0.5429 -0.7952
18567TIP3   OH277191   3.808   0.879   3.510 -0.2764  0.0438  0.4899
18567TIP3    H177192   3.812   0.811   3.443  0.7031 -0.8650  1.4483
18567TIP3    H277193   3.855   0.843   3.584  1.0198  2.0937  0.7467
18568TIP3   OH277194   4.976   6.785  14.976 -0.1170  0.0132  0.4987
18568TIP3    H177195   4.979   6.840  15.055  3.2363  1.1933 -0.2643
18568TIP3    H277196   4.928   6.838  14.912  0.0228  0.5072  0.7930
18569TIP3   OH277197   1.492   1.569  15.982  0.3971  0.3303 -0.4881
18569TIP3    H177198   1.507   1.602  16.070  2.9128  0.4829 -0.9071
18569TIP3    H277199   1.528   1.481  15.982 -0.9867 -0.2663 -0.9805
18570TIP3   OH277200   3.341   1.802   4.952 -0.0771 -0.0686  0.0912
18570TIP3    H177201   3.336   1.891   4.985 -2.4990  0.9311 -2.5297
18570TIP3    H277202   3.373   1.812   4.862  0.4419 -1.9434  0.0236
18571TIP3   OH277203   6.681   6.198  17.068 -0.2580 -0.4703  0.1230
18571TIP3    H177204   6.688   6.120  17.123 -1.0046  0.5633  1.7640
18571TIP3    H277205   6.624   6.172  16.996 -2.3516 -0.8494  1.8309
18572TIP3   OH277206   6.534   4.465  13.608 -0.5326  0.3760 -0.1638
18572TIP3    H177207   6.577   4.380  13.612  0.5611  0.9008 -0.4733
18572TIP3    H277208   6.485   4.463  13.526 -0.8650 -0.1074  0.0397
18573TIP3   OH277209   4.193   3.883  11.570 -0.0844 -0.1682  0.2302
18573TIP3    H177210   4.220   3.904  11.481  1.0171  0.3331  0.6662
18573TIP3    H277211   4.206   3.964  11.619 -1.8540 -0.0747  0.6055
18574TIP3   OH277212   0.563   3.339  11.640 -0.7622  0.3544 -0.2807
18574TIP3    H177213   0.644   3.313  11.684 -1.5299 -0.8795  0.4663
18574TIP3    H277214   0.577   3.430  11.616  0.8193  0.1854 -0.1098
18575TIP3   OH277215   1.012   0.845   9.802  0.5248 -0.2489  0.8880
18575TIP3    H177216   0.983   0.768   9.753 -1.7963  0.6403  0.7153
18575TIP3    H277217   1.041   0.810   9.886 -0.6534 -1.3150  0.8803
18576TIP3   OH277218   2.915   5.107   3.396 -0.4446 -0.3501 -0.6217
18576TIP3    H177219   2.938   5.054   3.319 -2.1446 -0.1187 -1.3383
18576TIP3    H277220   2.828   5.076   3.421 -0.3154  0.2442  0.6341
18577TIP3   OH277221   3.498   5.357  11.305 -1.0199  0.1569  0.1732
18577TIP3    H177222   3.422   5.305  11.280 -0.1521 -0.7589 -0.6702
18577TIP3    H277223   3.572   5.298  11.294 -0.1930  0.9872  1.1176
18578TIP3   OH277224   1.616   5.168  16.145 -0.3161 -0.0294  0.1481
18578TIP3    H177225   1.704   5.165  16.107 -0.3357  2.3514 -0.1776
18578TIP3    H277226   1.613   5.092  16.204  1.7365 -0.4623 -0.2403
18579TIP3   OH277227   3.551   5.603   4.027  0.3258  0.1858 -0.5435
18579TIP3    H177228   3.514   5.581   3.941  1.0494 -0.0717 -0.7971
18579TIP3    H277229   3.510   5.686   4.051  1.2560  1.0376 -1.8307
18580TIP3   OH277230   6.344   5.930  10.474 -0.2749 -0.6712 -0.1946
18580TIP3    H177231   6.421   5.874  10.465  0.2425 -0.0600  0.3262
18580TIP3    H277232   6.280   5.875  10.519  1.3319  0.0517  3.3906
18581TIP3   OH277233   6.192   5.117  14.359 -0.4489  0.6179  0.5040
18581TIP3    H177234   6.253   5.118  14.286 -1.2560 -1.0191 -0.2384
18581TIP3    H277235   6.247   5.127  14.437  0.6149  0.5047 -0.2229
18582TIP3   OH277236   5.684   1.912  11.565 -0.1304  0.0457  0.5627
18582TIP3    H177237   5.712   1.930  11.655 -1.6412  2.6642  0.5969
18582TIP3    H277238   5.589   1.900  11.572 -0.0770 -1.2712 -0.5188
18583TIP3   OH277239   0.789   5.153  14.752  0.0679  0.8965 -0.1931
18583TIP3    H177240   0.776   5.241  14.788 -1.0817  0.4107  0.6515
18583TIP3    H277241   0.715   5.140  14.692 -1.0921 -0.3090  1.4048
18584TIP3   OH277242   3.951   3.769  16.543  0.1266  0.5580 -0.0060
18584TIP3    H177243   3.861   3.785  16.517  0.9748  3.5069 -1.4696
18584TIP3    H277244   3.979   3.696  16.489 -0.7431  1.0379 -1.1364
18585TIP3   OH277245   1.790   6.370   1.074  0.1327  0.1164  0.7284
18585TIP3    H177246   1.761   6.454   1.109 -1.1553  0.6876 -1.4937
18585TIP3    H277247   1.757   6.305   1.136  1.0946  1.1935  2.4451
18586TIP3   OH277248   3.579   3.994   6.073  0.1605 -0.0851  0.2062
18586TIP3    H177249   3.599   3.911   6.030 -0.6051  0.2880 -0.9066
18586TIP3    H277250   3.554   3.969   6.162 -2.1739 -1.3175 -0.6916
18587TIP3   OH277251   2.228   3.490  12.374  0.2296 -0.4220  0.2560
18587TIP3    H177252   2.309   3.502  12.325 -0.1852 -0.2517 -0.4066
18587TIP3    H277253   2.196   3.579  12.389 -0.3000 -0.5157 -0.2928
18588TIP3   OH277254   2.088   4.153   4.368  0.0329  0.2135 -0.1417
18588TIP3    H177255   2.013   4.204   4.338 -0.0221  0.4683  0.4119
18588TIP3    H277256   2.076   4.146   4.463  0.3356 -0.3544 -0.1399
18589TIP3   OH277257   0.873   0.590  14.762 -0.1497 -0.2760 -0.4188
18589TIP3    H177258   0.872   0.660  14.828  2.1150 -0.8252  0.2859
18589TIP3    H277259   0.880   0.510  14.814  0.3902 -0.8103 -1.3049
18590TIP3   OH277260   0.108   6.205   4.971  1.0551 -0.5494  0.1947
18590TIP3    H177261   0.188   6.256   4.987 -0.0261  1.0170  0.8686
18590TIP3    H277262   0.114   6.180   4.879  2.1148 -0.0928  0.1199
18591TIP3   OH277263   1.908   3.321  11.180 -0.1201 -0.0374 -0.3527
18591TIP3    H177264   1.931   3.254  11.245  1.1563  1.7178  1.1374
18591TIP3    H277265   1.992   3.360  11.157 -0.9240  2.0230 -0.0188
18592TIP3   OH277266   2.308   1.139   2.425 -0.5755  0.1477 -0.3448
18592TIP3    H177267   2.395   1.176   2.440 -0.7691  0.1285  0.9343
18592TIP3    H277268   2.269   1.133   2.512 -1.1108 -1.7003 -0.6657
18593TIP3   OH277269   3.636   0.886  11.663  0.1367 -0.3949  0.4359
18593TIP3    H177270   3.552   0.858  11.627  1.2053 -0.6467 -2.0105
18593TIP3    H277271   3.686   0.806  11.675  0.6821 -0.1177  0.0870
18594TIP3   OH277272   0.858   2.278   4.009 -0.6926  0.1365 -0.1902
18594TIP3    H177273   0.793   2.281   4.078 -1.1905 -0.2038 -0.6318
18594TIP3    H277274   0.885   2.186   4.005  2.3589  0.7592  2.2779
18595TIP3   OH277275   3.548   5.051   1.063  0.5702 -0.3701  0.4356
18595TIP3    H177276   3.509   5.136   1.043  0.2141 -0.5611  0.2988
18595TIP3    H277277   3.609   5.035   0.992 -0.8497 -1.1494 -0.6740
18596TIP3   OH277278   2.321   4.273  16.200  0.1353 -0.2400 -0.2794
18596TIP3    H177279   2.229   4.290  16.221  0.4413  0.0540  0.8999
18596TIP3    H277280   2.351   4.354  16.157  0.1150  0.0783  0.2952
18597TIP3   OH277281   6.522   1.238  14.430 -0.2179  0.1117  0.0873
18597TIP3    H177282   6.461   1.164  14.421 -0.4071  0.4218 -1.5625
18597TIP3    H277283   6.601   1.210  14.383  0.1952  0.4501  0.5773
18598TIP3   OH277284   5.739   6.162  14.820 -0.2976 -1.0587  0.0992
18598TIP3    H177285   5.663   6.144  14.875 -1.9985  2.9851 -0.5564
18598TIP3    H277286   5.704   6.213  14.746  3.0579  2.1826  0.4209
18599TIP3   OH277287   0.955   5.457  15.758 -0.5056 -0.2425 -0.1306
18599TIP3    H177288   1.025   5.423  15.813 -0.6606  0.2168  0.3678
18599TIP3    H277289   0.971   5.420  15.671 -0.5965 -1.4516  0.3582
18600TIP3   OH277290   0.854   4.878   4.610 -0.4294  0.0311  0.0249
18600TIP3    H177291   0.860   4.846   4.700  0.8743 -0.1461 -0.1094
18600TIP3    H277292   0.790   4.949   4.614  0.0888  0.4609  1.2351
18601TIP3   OH277293   3.702   5.753   2.049 -0.0863  0.4813  0.0266
18601TIP3    H177294   3.697   5.808   1.971  2.5521  0.5564 -0.1938
18601TIP3    H277295   3.779   5.785   2.096  0.2847 -1.6394  0.9777
18602TIP3   OH277296   2.071   2.966  15.255  0.8103  0.0382 -0.7079
18602TIP3    H177297   2.030   3.014  15.327 -0.1525 -1.2139 -0.3717
18602TIP3    H277298   2.006   2.966  15.185  1.2847  0.2509 -1.1599
18603TIP3   OH277299   0.825   2.003   4.262 -0.0332  0.6617 -0.5180
18603TIP3    H177300   0.863   2.091   4.256  1.5842  0.0599  0.3233
18603TIP3    H277301   0.741   2.010   4.216  0.7653  2.2416 -1.8405
18604TIP3   OH277302   1.314   2.423  17.091  0.1128  0.2260 -0.5040
18604TIP3    H177303   1.289   2.489  17.155 -0.9085 -0.5438 -0.0956
18604TIP3    H277304   1.360   2.473  17.023  1.0108  1.0884  0.6818
18605TIP3   OH277305   1.525   2.421  10.798  0.3443 -0.1897  0.3791
18605TIP3    H177306   1.609   2.388  10.831  0.1189  0.6615  1.9075
18605TIP3    H277307   1.519   2.387  10.709  2.5360  0.1181  0.0467
18606TIP3   OH277308   5.513   3.506  15.628  0.0545  0.5203 -0.2701
18606TIP3    H177309   5.440   3.457  15.591  0.6945  0.8859 -2.1338
18606TIP3    H277310   5.474   3.587  15.661 -0.4299  0.6270 -1.0755
18607TIP3   OH277311   1.618   1.776   5.783  0.2912  0.5311 -0.5342
18607TIP3    H177312   1.662   1.693   5.802 -0.4778  0.2516  0.1615
18607TIP3    H277313   1.633   1.829   5.862  2.1277  1.6935 -1.6026
18608TIP3   OH277314   1.894   0.069   5.056  0.2458 -0.3488  0.2637
18608TIP3    H177315   1.954   0.004   5.019  0.2600  0.1006 -0.5437
18608TIP3    H277316   1.825   0.017   5.097  0.8258 -0.8685  0.6003
18609TIP3   OH277317   0.935   1.397   4.226  0.0139  0.0742  0.4167
18609TIP3    H177318   0.938   1.338   4.151 -0.3954  1.2926 -0.5715
18609TIP3    H277319   0.942   1.338   4.302  0.5887 -1.1577 -0.5516
18610TIP3   OH277320   2.483   6.763  12.751  0.2092 -0.3048 -0.5966
18610TIP3    H177321   2.437   6.690  12.792  0.0543 -0.3892 -0.9205
18610TIP3    H277322   2.573   6.756  12.784  0.1899 -0.6268 -0.6122
18611TIP3   OH277323   2.000   6.745  14.826 -0.5307  0.4090 -0.0381
18611TIP3    H177324   2.054   6.694  14.766 -0.2570  0.0099  0.5413
18611TIP3    H277325   1.955   6.809  14.770 -1.1001 -0.6407 -0.8116
18612TIP3   OH277326   4.030   1.880   5.960 -0.1470  0.5136  0.0420
18612TIP3    H177327   4.042   1.973   5.979 -1.0677  0.0612  3.6184
18612TIP3    H277328   3.950   1.875   5.908  0.5549  1.7392 -1.2083
18613TIP3   OH277329   4.993   1.822   4.427 -0.1327 -0.0321  0.2341
18613TIP3    H177330   5.044   1.806   4.348  0.7132  0.7869  0.5990
18613TIP3    H277331   5.006   1.915   4.446 -2.5026  0.4426 -0.1576
18614TIP3   OH277332   4.763   2.713   4.536  0.0893 -0.2657  0.2213
18614TIP3    H177333   4.696   2.766   4.492  0.5220  0.4719  0.4426
18614TIP3    H277334   4.840   2.769   4.539  1.2144 -1.6421 -1.3899
18615TIP3   OH277335   0.979   5.647   2.078 -0.0501 -0.4759  0.6378
18615TIP3    H177336   1.029   5.662   2.159 -1.2429  3.2628  0.8687
18615TIP3    H277337   0.889   5.670   2.101 -0.6507 -0.5286 -1.4762
18616TIP3   OH277338   6.040   3.260  11.770 -0.1533 -0.0731 -1.0257
18616TIP3    H177339   6.020   3.353  11.765 -0.1335  0.1782  1.9438
18616TIP3    H277340   6.136   3.255  11.762  0.3929  0.7498  3.0784
18617TIP3   OH277341   0.175   0.297   1.580 -0.5930  0.6319  0.1170
18617TIP3    H177342   0.270   0.280   1.575 -0.5578  0.3554  1.5183
18617TIP3    H277343   0.167   0.391   1.560 -0.1725  0.3918 -1.3155
18618TIP3   OH277344   2.194   3.905  15.927  0.2140 -0.1773 -0.0713
18618TIP3    H177345   2.112   3.930  15.970  1.1733 -0.1994  1.8752
18618TIP3    H277346   2.166   3.856  15.850 -1.6342 -1.6743  1.4436
18619TIP3   OH277347   4.432   0.036  13.765 -0.0810 -0.3614  0.0081
18619TIP3    H177348   4.420   0.125  13.797  0.2693 -0.4108  0.2867
18619TIP3    H277349   4.455   0.047  13.673 -0.5415 -0.1905 -0.0862
18620TIP3   OH277350   5.525   0.739   4.505 -0.1266 -0.1763 -0.4234
18620TIP3    H177351   5.515   0.771   4.595 -0.3653  1.9296 -1.1509
18620TIP3    H277352   5.527   0.644   4.514  0.8614 -0.0063  1.8988
18621TIP3   OH277353   3.341   4.513   0.816  0.6865  0.1618 -0.8345
18621TIP3    H177354   3.321   4.559   0.734  1.9708  0.2592 -1.1151
18621TIP3    H277355   3.291   4.432   0.811 -0.2421  0.7312 -1.1285
18622TIP3   OH277356   2.193   3.416   5.388 -0.2149  0.2181  0.4375
18622TIP3    H177357   2.200   3.364   5.468 -1.4369  0.3608  0.6522
18622TIP3    H277358   2.111   3.464   5.398 -0.4857  0.0825 -0.9948
18623TIP3   OH277359   0.467   4.516  13.277  0.0192  0.2012 -0.3473
18623TIP3    H177360   0.469   4.592  13.336  1.3846 -0.5750  0.6485
18623TIP3    H277361   0.431   4.551  13.196 -2.2362  1.2304  1.0037
18624TIP3   OH277362   1.712   0.228   1.770  0.4868  0.0206  0.5485
18624TIP3    H177363   1.648   0.223   1.699  1.1046 -0.8478  0.0413
18624TIP3    H277364   1.678   0.297   1.827 -0.5702  0.0142 -0.0390
18625TIP3   OH277365   0.617   4.561  12.696 -0.1173  0.0405 -0.8430
18625TIP3    H177366   0.553   4.494  12.672  2.6455 -3.4272  0.5244
18625TIP3    H277367   0.669   4.574  12.617  0.1886 -0.5374 -0.7447
18626TIP3   OH277368   6.477   6.507   0.202 -0.3794  0.0945 -0.0071
18626TIP3    H177369   6.440   6.508   0.290  1.3660  0.3183  0.7652
18626TIP3    H277370   6.428   6.574   0.155 -2.4800 -1.1702  0.2580
18627TIP3   OH277371   3.591   2.950   1.893  1.0396 -0.0475  0.4671
18627TIP3    H177372   3.540   2.925   1.970  0.6076 -0.4680  0.0540
18627TIP3    H277373   3.672   2.900   1.901  0.0724 -1.8722 -0.4911
18628TIP3   OH277374   4.010   2.096   5.379 -0.1444  0.1211  0.8747
18628TIP3    H177375   3.994   2.136   5.465 -2.5278 -0.7393  0.9139
18628TIP3    H277376   3.932   2.042   5.364  0.9343 -0.9383 -1.1653
18629TIP3   OH277377   0.878   5.005  13.436  0.5697 -0.0106 -0.2528
18629TIP3    H177378   0.828   4.990  13.517 -1.1319 -0.7470 -1.3896
18629TIP3    H277379   0.819   5.056  13.381  1.2349 -0.5668 -1.5080
18630TIP3   OH277380   0.487   5.018  14.997 -0.2360 -0.0382  0.3801
18630TIP3    H177381   0.463   4.937  14.954  1.1954 -0.6751  0.7113
18630TIP3    H277382   0.431   5.084  14.957 -1.5540 -1.2047  0.2382
18631TIP3   OH277383   2.442   6.647   4.788 -0.4415  0.0622 -0.1038
18631TIP3    H177384   2.535   6.667   4.794 -0.1043 -0.8413 -1.8185
18631TIP3    H277385   2.404   6.723   4.743 -0.4623  0.1945  0.1319
18632TIP3   OH277386   2.364   0.421  11.905  0.2356 -0.1832  0.0608
18632TIP3    H177387   2.437   0.391  11.851 -1.6082 -0.8491 -2.2533
18632TIP3    H277388   2.385   0.512  11.925  2.2880 -0.7339  0.6169
18633TIP3   OH277389   4.825   0.610   1.054  0.3740 -0.1820  0.0280
18633TIP3    H177390   4.918   0.632   1.057 -0.2303  2.7263  0.2614
18633TIP3    H277391   4.782   0.679   1.105 -1.9381 -1.2796 -0.3126
18634TIP3   OH277392   3.432   4.160  10.263 -0.3316  0.0450  0.6690
18634TIP3    H177393   3.366   4.225  10.243  0.2923 -0.2213 -3.0856
18634TIP3    H277394   3.383   4.080  10.282 -1.0725  0.5666  0.9774
18635TIP3   OH277395   3.404   4.879   3.187  0.0962 -0.6005 -0.3691
18635TIP3    H177396   3.384   4.807   3.246  1.7933 -1.7399 -1.0912
18635TIP3    H277397   3.434   4.837   3.106 -1.0119  0.9192 -1.6361
18636TIP3   OH277398   5.389   1.654   5.738  0.7234  0.0540  0.7705
18636TIP3    H177399   5.391   1.560   5.721 -1.9812  0.1701 -0.8354
18636TIP3    H277400   5.298   1.672   5.764  0.3592  2.5612 -1.7256
18637TIP3   OH277401   4.239   3.621   2.101  0.0922 -0.4958  0.8953
18637TIP3    H177402   4.283   3.570   2.033 -1.9483 -0.9656 -0.1526
18637TIP3    H277403   4.179   3.559   2.142 -1.6489  0.7564  0.3356
18638TIP3   OH277404   4.240   0.244   1.684 -0.0803 -0.4322 -0.3611
18638TIP3    H177405   4.155   0.263   1.642  0.1197  1.3137 -0.0634
18638TIP3    H277406   4.275   0.330   1.706 -0.6745 -1.1372  4.4674
18639TIP3   OH277407   1.056   4.186   5.927 -0.4320  0.0382  0.0326
18639TIP3    H177408   1.033   4.100   5.892 -1.9179 -0.7936  2.7397
18639TIP3    H277409   0.985   4.206   5.988  1.0989  2.0987  1.2460
18640TIP3   OH277410   0.605   5.809   5.539  0.1604 -0.4793 -0.7189
18640TIP3    H177411   0.636   5.862   5.613 -0.0730 -0.5316 -0.5822
18640TIP3    H277412   0.520   5.775   5.568 -0.6563  0.7219 -1.5879
18641TIP3   OH277413   4.523   1.382  16.054  0.5738  0.1172 -0.6206
18641TIP3    H177414   4.618   1.391  16.064  0.5611 -0.8009  0.5194
18641TIP3    H277415   4.513   1.337  15.970  1.1450  0.3126 -0.8008
18642TIP3   OH277416   5.698   6.232  16.704 -0.9282 -0.0297  0.1322
18642TIP3    H177417   5.759   6.296  16.742 -0.2883 -1.5092  1.7468
18642TIP3    H277418   5.617   6.280  16.694  0.1957  1.7192 -1.1056
18643TIP3   OH277419   0.555   6.429  13.933 -0.0304  0.7251  0.1945
18643TIP3    H177420   0.518   6.473  13.856 -0.0637  0.3781  0.0130
18643TIP3    H277421   0.484   6.374  13.967  0.7774 -1.2195 -1.1115
18644TIP3   OH277422   0.781   0.935  15.695  0.2386  0.2852 -0.2267
18644TIP3    H177423   0.815   0.998  15.632 -0.2665 -0.2115 -1.0210
18644TIP3    H277424   0.692   0.915  15.664  0.4079 -0.8461 -0.0440
18645TIP3   OH277425   4.031   0.619  13.928  0.2914 -0.0578  0.8138
18645TIP3    H177426   4.044   0.610  14.023 -1.5153 -0.9361  1.0114
18645TIP3    H277427   3.937   0.610  13.916  0.5393 -0.3728 -1.1218
18646TIP3   OH277428   0.581   6.809  15.337  0.4950  0.3947  0.2281
18646TIP3    H177429   0.488   6.822  15.318  0.5555  0.2942 -0.1424
18646TIP3    H277430   0.625   6.883  15.295  1.0034 -1.6601 -3.1873
18647TIP3   OH277431   0.477   6.362   0.491 -0.2109 -1.0102 -0.1747
18647TIP3    H177432   0.474   6.288   0.552 -2.3625 -1.4845 -0.7737
18647TIP3    H277433   0.481   6.321   0.404 -2.8780 -0.5226 -0.5872
18648TIP3   OH277434   4.804   5.117  12.996 -0.3109 -0.5882 -0.2250
18648TIP3    H177435   4.727   5.152  12.951  0.8956  0.7634 -1.3381
18648TIP3    H277436   4.800   5.023  12.981 -0.9271 -0.3633 -1.6094
18649TIP3   OH277437   1.845   2.800  16.053  0.3157  0.5797 -0.2007
18649TIP3    H177438   1.906   2.784  15.981  0.0019 -1.1564 -0.1155
18649TIP3    H277439   1.864   2.731  16.117 -0.6293  0.9966  0.5588
18650TIP3   OH277440   2.046   0.273  16.558  0.6412  0.4761 -0.0325
18650TIP3    H177441   1.984   0.226  16.613  3.2894 -1.4966  1.5249
18650TIP3    H277442   1.992   0.311  16.488 -2.1358 -2.2136  0.4113
18651TIP3   OH277443   3.747   2.464  13.934  0.2116 -0.1568 -0.4901
18651TIP3    H177444   3.802   2.385  13.931 -0.3895 -0.5494 -1.2634
18651TIP3    H277445   3.735   2.489  13.843  0.6295  1.0132 -0.2454
18652TIP3   OH277446   4.456   6.137  11.769  0.3282  0.7077 -0.4345
18652TIP3    H177447   4.508   6.146  11.849 -1.4453  0.6363  0.7842
18652TIP3    H277448   4.385   6.201  11.779 -0.4465  0.0542 -1.5282
18653TIP3   OH277449   1.207   1.217   2.761  0.2172 -0.1953 -0.6577
18653TIP3    H177450   1.221   1.233   2.854 -1.3793 -2.3614  0.0304
18653TIP3    H277451   1.288   1.178   2.730  0.0139 -1.4964  0.3764
18654TIP3   OH277452   2.165   3.005  14.289 -0.6512 -0.3588  0.1850
18654TIP3    H177453   2.086   3.045  14.324  0.9770  1.0303  2.5200
18654TIP3    H277454   2.218   3.079  14.259  1.9133 -0.6167  3.4949
18655TIP3   OH277455   0.844   4.001   1.085  0.0987 -0.1385 -0.1006
18655TIP3    H177456   0.902   3.951   1.143 -0.3231 -1.7205 -0.9675
18655TIP3    H277457   0.850   4.091   1.117  0.4468 -0.8139  1.9170
18656TIP3   OH277458   5.251   6.423  12.210  0.0566 -0.1134  0.2466
18656TIP3    H177459   5.220   6.496  12.157  1.4738  0.6127  0.3470
18656TIP3    H277460   5.190   6.419  12.283 -0.3637  0.6363 -0.0491
18657TIP3   OH277461   2.368   6.634  13.084  0.0434  0.3077 -0.3307
18657TIP3    H177462   2.440   6.616  13.024 -0.1284 -0.7314 -0.2492
18657TIP3    H277463   2.352   6.550  13.128 -0.2142  0.9045  0.7506
18658TIP3   OH277464   2.773   1.387   1.593  0.3057  0.4670 -0.5235
18658TIP3    H177465   2.840   1.435   1.643  0.7605 -0.3784 -0.3089
18658TIP3    H277466   2.784   1.296   1.618  1.1892 -0.1479 -2.8530
18659TIP3   OH277467   5.103   5.358   1.803  1.0495 -0.0956  0.2991
18659TIP3    H177468   5.079   5.266   1.794 -0.4463  0.3526 -0.6448
18659TIP3    H277469   5.062   5.385   1.885  0.2303  0.0800 -0.1554
18660TIP3   OH277470   1.371   5.141   0.878 -0.4149  0.3631 -0.3734
18660TIP3    H177471   1.381   5.060   0.928 -3.2632  0.1197  0.0108
18660TIP3    H277472   1.431   5.203   0.920  0.3422 -0.9874  0.6229
18661TIP3   OH277473   1.386   1.770   1.051  0.0468  0.4383 -0.1622
18661TIP3    H177474   1.442   1.694   1.032 -1.7304 -0.6916 -1.1915
18661TIP3    H277475   1.390   1.780   1.146 -0.1276 -1.3252  0.0598
18662TIP3   OH277476   3.142   0.295   5.623  0.2004 -0.2253 -0.8915
18662TIP3    H177477   3.107   0.367   5.571  0.0896 -0.7735 -1.6018
18662TIP3    H277478   3.102   0.305   5.709 -0.3397  0.1684 -1.1810
18663TIP3   OH277479   3.445   1.543   3.461  0.0372 -0.1977  0.1025
18663TIP3    H177480   3.501   1.498   3.523  0.4781 -1.1246 -0.9357
18663TIP3    H277481   3.359   1.502   3.470 -0.7169  1.6063  2.1045
18664TIP3   OH277482   3.154   0.678  15.294 -0.6882 -1.0151 -0.3743
18664TIP3    H177483   3.200   0.644  15.217 -2.4793 -1.1286 -1.4777
18664TIP3    H277484   3.067   0.637  15.289 -0.8225 -1.0784  1.7815
18665TIP3   OH277485   2.792   0.726   3.584 -0.2342  0.1403 -0.2621
18665TIP3    H177486   2.816   0.660   3.519 -0.0786 -1.4766  1.3485
18665TIP3    H277487   2.697   0.735   3.575 -0.0766  0.7885 -1.4553
18666TIP3   OH277488   5.848   2.959   4.898  0.3902  0.2890  0.1940
18666TIP3    H177489   5.772   3.010   4.926  0.1945  1.2641 -1.9536
18666TIP3    H277490   5.811   2.880   4.858  0.5411  0.4380 -0.2382
18667TIP3   OH277491   1.086   5.779  12.130  0.4979 -0.3413 -0.1054
18667TIP3    H177492   1.118   5.703  12.081 -1.6574 -1.4681  0.1253
18667TIP3    H277493   1.164   5.832  12.145  2.0041 -2.2727 -0.6821
18668TIP3   OH277494   5.701   6.156  11.536 -0.1335  0.2907  0.0617
18668TIP3    H177495   5.731   6.215  11.606  0.2458  0.9678 -0.6552
18668TIP3    H277496   5.776   6.098  11.520 -0.6438 -0.6794  1.0438
18669TIP3   OH277497   2.883   1.560  14.750 -0.3565 -0.6200 -0.0012
18669TIP3    H177498   2.800   1.512  14.758 -0.9969  0.4876  0.3390
18669TIP3    H277499   2.896   1.599  14.837 -0.1647  0.2735 -0.4166
18670TIP3   OH277500   3.418   3.811   1.744  0.5212 -0.5646  0.1171
18670TIP3    H177501   3.488   3.771   1.692  0.0236  0.4545 -1.4185
18670TIP3    H277502   3.338   3.777   1.705  0.1360 -0.6139  0.9350
18671TIP3   OH277503   2.428   4.384   1.085 -0.3071  0.2025 -0.1661
18671TIP3    H177504   2.392   4.309   1.039 -1.9500  0.6907  0.2729
18671TIP3    H277505   2.506   4.408   1.034 -1.4723  0.1010 -2.0913
18672TIP3   OH277506   5.240   3.447  16.508 -0.0304  0.3748  0.0421
18672TIP3    H177507   5.158   3.485  16.540  0.8041  1.8997  0.4679
18672TIP3    H277508   5.307   3.512  16.531  1.4755 -1.3645  0.7379
18673TIP3   OH277509   5.174   6.612  15.106  0.0526 -0.2485  0.3489
18673TIP3    H177510   5.094   6.653  15.074 -0.0145 -0.5572  0.1171
18673TIP3    H277511   5.244   6.664  15.068 -0.0118 -1.1966 -1.1066
18674TIP3   OH277512   6.625   2.525  12.531  0.1436 -0.2561 -0.0750
18674TIP3    H177513   6.566   2.466  12.484  0.3496 -1.9401  1.6620
18674TIP3    H277514   6.684   2.558  12.464  0.3880 -2.5086 -1.0383
18675TIP3   OH277515   1.868   2.359   0.779 -0.6117 -0.3552  0.2837
18675TIP3    H177516   1.897   2.277   0.739  0.8212 -0.6288  1.8236
18675TIP3    H277517   1.892   2.352   0.871  0.8240  2.3275  0.2256
18676TIP3   OH277518   6.531   5.228  16.151  0.1609 -0.0976  0.2458
18676TIP3    H177519   6.512   5.142  16.114  2.2532 -0.3152 -0.4451
18676TIP3    H277520   6.451   5.252  16.197 -0.9432 -1.8091 -0.6691
18677TIP3   OH277521   4.442   4.007   0.603 -0.0046 -0.0099  0.1098
18677TIP3    H177522   4.384   4.032   0.531  0.2101 -1.0438 -0.4468
18677TIP3    H277523   4.510   3.954   0.561  2.9626  3.2764  0.2651
18678TIP3   OH277524   3.502   4.092  14.664 -0.4102 -0.2013  0.0247
18678TIP3    H177525   3.446   4.143  14.605  0.5078  0.7284 -0.0674
18678TIP3    H277526   3.573   4.152  14.688  1.9185 -2.0035 -1.7746
18679TIP3   OH277527   2.590   6.322   0.853  0.1021  0.0590 -0.7181
18679TIP3    H177528   2.651   6.315   0.779 -0.0328  2.0309 -1.0694
18679TIP3    H277529   2.534   6.245   0.845  1.2381 -0.7093 -1.6018
18680TIP3   OH277530   5.364   6.676  15.953 -0.4300 -0.0691  0.3744
18680TIP3    H177531   5.315   6.597  15.976 -0.0689 -0.8239 -1.2943
18680TIP3    H277532   5.297   6.745  15.947 -0.7882 -0.2968  1.5531
18681TIP3   OH277533   0.420   6.177  15.770  0.3519 -0.4550  0.2829
18681TIP3    H177534   0.514   6.159  15.772  0.5487  0.3711 -0.7745
18681TIP3    H277535   0.398   6.202  15.859  1.5829  1.4733  0.0885
18682TIP3   OH277536   3.026   6.715  13.036 -0.2366 -0.0997 -0.2210
18682TIP3    H177537   3.002   6.803  13.009 -0.1475 -0.0575 -0.1639
18682TIP3    H277538   3.069   6.726  13.121 -1.2134 -0.3089  0.3144
18683TIP3   OH277539   2.581   3.088  15.714  0.2884  0.2353 -0.0836
18683TIP3    H177540   2.647   3.107  15.781  1.6834  0.1475 -1.3939
18683TIP3    H277541   2.618   3.123  15.633 -1.1653 -0.0601 -0.8972
18684TIP3   OH277542   1.517   5.323  12.873 -0.3436  0.1559 -0.4166
18684TIP3    H177543   1.586   5.334  12.938 -2.0900  1.0927  1.3819
18684TIP3    H277544   1.488   5.412  12.852 -1.7117 -0.2291 -0.3025
18685TIP3   OH277545   0.371   0.237  11.216  0.1515 -0.1812 -0.0730
18685TIP3    H177546   0.441   0.189  11.262 -0.7531 -1.7363 -0.2355
18685TIP3    H277547   0.342   0.176  11.148 -2.4922 -0.3289  1.0541
18686TIP3   OH277548   3.582   1.387  11.312 -0.5992  0.1820 -0.1755
18686TIP3    H177549   3.515   1.442  11.353 -1.0055  0.5288 -1.2551
18686TIP3    H277550   3.665   1.422  11.343 -0.8990 -0.0619  0.9490
18687TIP3   OH277551   5.226   0.805   0.443 -0.2379  0.8118 -0.1226
18687TIP3    H177552   5.155   0.823   0.505 -0.2422  0.0626  0.1056
18687TIP3    H277553   5.189   0.742   0.382 -0.2426  1.5767 -0.9295
18688TIP3   OH277554   4.144   3.941   4.230  0.5934 -0.2562 -0.3418
18688TIP3    H177555   4.208   3.977   4.169  0.4736 -0.7130 -0.7448
18688TIP3    H277556   4.180   3.856   4.256  1.3414  0.5339  1.3488
18689TIP3   OH277557   1.330   5.994   2.166 -0.3841  0.2926 -0.0579
18689TIP3    H177558   1.287   6.014   2.249 -1.6663 -0.9843 -0.3630
18689TIP3    H277559   1.415   6.039   2.171 -1.4591  2.3556  0.8455
18690TIP3   OH277560   5.829   6.696  15.978  0.2610  0.2495 -0.0665
18690TIP3    H177561   5.846   6.602  15.975  0.2656  0.0734  2.7646
18690TIP3    H277562   5.862   6.724  16.064  0.7225  2.9506 -1.0239
18691TIP3   OH277563   2.723   5.805  16.917  0.1283  0.1478  0.3175
18691TIP3    H177564   2.711   5.743  16.845  2.1694 -0.3333  0.3563
18691TIP3    H277565   2.689   5.759  16.994  1.5225 -0.9192  0.3264
18692TIP3   OH277566   0.314   0.810   5.576 -0.2275 -0.2010  0.0069
18692TIP3    H177567   0.393   0.783   5.529  0.2637 -0.0153  0.6960
18692TIP3    H277568   0.295   0.736   5.634  1.2523  0.9138  2.0633
18693TIP3   OH277569   2.768   1.782   3.244 -0.0606  0.5610 -0.2047
18693TIP3    H177570   2.725   1.868   3.247 -1.3380  0.0321 -1.7591
18693TIP3    H277571   2.823   1.786   3.166 -0.8215 -0.3084 -0.8077
18694TIP3   OH277572   5.706   4.839   3.803 -0.0237  0.3139  0.4137
18694TIP3    H177573   5.794   4.877   3.812 -0.8500  2.7461 -0.7952
18694TIP3    H277574   5.679   4.819   3.892  1.5293  0.0619  0.8566
18695TIP3   OH277575   4.006   1.676   1.784 -0.1082 -0.3789 -0.2307
18695TIP3    H177576   4.007   1.597   1.838  0.9761 -0.1172  0.1529
18695TIP3    H277577   4.090   1.675   1.738  0.8125  1.5044  1.2358
18696TIP3   OH277578   6.099   1.024  14.411 -0.4491 -0.6827  0.3494
18696TIP3    H177579   6.101   1.119  14.421 -0.4062 -0.5648 -0.6573
18696TIP3    H277580   6.054   1.009  14.328  1.4830 -1.4312 -0.6446
18697TIP3   OH277581   1.717   2.963   3.233 -0.2342 -0.1292  0.1110
18697TIP3    H177582   1.750   2.995   3.317  2.1322  2.2740 -1.5526
18697TIP3    H277583   1.664   3.035   3.200 -0.4146 -0.6891 -0.8334
18698TIP3   OH277584   1.237   4.628   3.833 -0.4420 -0.2725 -0.2184
18698TIP3    H177585   1.308   4.579   3.874  0.6070  1.3022 -0.0633
18698TIP3    H277586   1.186   4.663   3.906  0.8091  1.6448 -0.1897
18699TIP3   OH277587   0.933   4.696   3.882  0.2796  0.6817  0.3418
18699TIP3    H177588   0.945   4.756   3.955  1.7326  0.9353 -0.0644
18699TIP3    H277589   0.888   4.748   3.815 -0.5803  0.6027  0.8455
18700TIP3   OH277590   3.462   0.737  13.909  0.4381  0.5721 -0.3728
18700TIP3    H177591   3.479   0.829  13.927  0.8944  0.7473 -1.6194
18700TIP3    H277592   3.422   0.736  13.823 -0.1475 -0.3543 -0.1044
18701TIP3   OH277593   5.453   1.468  15.906 -0.5489  0.2494 -0.6083
18701TIP3    H177594   5.549   1.470  15.904 -0.5439 -0.5423 -1.4296
18701TIP3    H277595   5.427   1.556  15.879 -0.0639  0.5951 -0.0047
18702TIP3   OH277596   5.111   1.755   5.884  0.3078 -0.3726  0.3968
18702TIP3    H177597   5.030   1.745   5.935 -0.2685 -2.0779 -0.7495
18702TIP3    H277598   5.181   1.758   5.949 -0.6759  1.9168  1.4607
18703TIP3   OH277599   3.792   4.225   6.237  0.5654 -0.5148 -0.1900
18703TIP3    H177600   3.886   4.210   6.231  0.7052  0.7816 -1.8691
18703TIP3    H277601   3.779   4.314   6.205 -1.3036 -0.8794 -0.5744
18704TIP3   OH277602   0.186   0.615  15.512 -0.3218 -0.7143 -0.3324
18704TIP3    H177603   0.189   0.707  15.537  0.5324 -0.6801 -0.5296
18704TIP3    H277604   0.251   0.573  15.568  0.7604 -0.8339 -1.6368
18705TIP3   OH277605   2.624   5.516   0.725 -0.0191 -0.2853 -0.4459
18705TIP3    H177606   2.636   5.478   0.638  0.7002  1.1195 -0.9931
18705TIP3    H277607   2.713   5.534   0.755 -0.3248  1.1342 -0.3124
18706TIP3   OH277608   1.352   3.635   1.674  0.7589  0.6822 -0.0136
18706TIP3    H177609   1.414   3.563   1.686 -0.0425  0.1834  1.2356
18706TIP3    H277610   1.323   3.626   1.583  1.9396  0.4864 -0.3951
18707TIP3   OH277611   3.838   2.199  11.671  0.0385 -0.1618  0.1237
18707TIP3    H177612   3.769   2.148  11.626 -1.2834  2.2607 -0.7734
18707TIP3    H277613   3.856   2.271  11.611  1.8062  0.4741  1.3735
18708TIP3   OH277614   2.177   0.364  16.286 -0.3254  0.3592 -0.3728
18708TIP3    H177615   2.216   0.325  16.365 -1.3114 -0.5694 -0.3174
18708TIP3    H277616   2.185   0.295  16.220 -3.2349 -0.5208  0.0528
18709TIP3   OH277617   4.784   3.171  15.113 -0.2767 -0.2214 -0.0327
18709TIP3    H177618   4.774   3.265  15.127  2.1348  0.0624  0.0888
18709TIP3    H277619   4.707   3.147  15.061 -2.0265  1.3849  1.6467
18710TIP3   OH277620   2.403   1.022   4.865 -0.1539 -0.1972 -0.3344
18710TIP3    H177621   2.317   1.036   4.824 -0.2005 -0.4711 -0.3362
18710TIP3    H277622   2.405   1.082   4.939  0.4079  1.1724 -1.4281
18711TIP3   OH277623   4.112   6.707  12.187  0.3196  0.0999 -0.3346
18711TIP3    H177624   4.097   6.614  12.170 -0.9781 -0.1018  1.5428
18711TIP3    H277625   4.025   6.747  12.175  0.5437  0.8057  0.3401
18712TIP3   OH277626   0.038   2.677   5.406  0.1841 -0.5052 -0.2262
18712TIP3    H177627   0.026   2.768   5.435  2.6825  0.0893 -0.8040
18712TIP3    H277628   0.036   2.626   5.486 -1.5053 -0.0050  0.0870
18713TIP3   OH277629   4.956   6.586  10.789 -0.2259 -0.3768 -0.2462
18713TIP3    H177630   4.934   6.534  10.712 -1.9588 -1.5243  0.9291
18713TIP3    H277631   4.902   6.664  10.782 -0.9865 -0.8557  0.1776
18714TIP3   OH277632   1.047   3.721  12.056 -0.4890  0.2185  0.3286
18714TIP3    H177633   0.967   3.713  12.108  0.1561  0.4156  1.3688
18714TIP3    H277634   1.094   3.796  12.094 -0.1029  0.5052 -0.6751
18715TIP3   OH277635   5.173   1.855   3.071 -0.2818  0.7102 -0.1085
18715TIP3    H177636   5.189   1.799   3.147 -0.3558  0.3951 -0.3230
18715TIP3    H277637   5.260   1.876   3.037 -0.1932  1.8036  0.7401
18716TIP3   OH277638   1.032   1.723  17.065  0.5534 -0.0302 -0.0637
18716TIP3    H177639   0.984   1.798  17.031 -0.6827 -1.3309 -1.3149
18716TIP3    H277640   1.028   1.732  17.160 -0.4031  0.9728 -0.1842
18717TIP3   OH277641   2.294   3.346  16.061 -0.6352  0.3485  0.1245
18717TIP3    H177642   2.374   3.318  16.106 -0.1174  0.7124 -0.5374
18717TIP3    H277643   2.231   3.362  16.131  0.1209  0.8345  0.7212
18718TIP3   OH277644   6.573   1.176  17.090 -0.7154 -0.0900 -0.1152
18718TIP3    H177645   6.605   1.267  17.088 -0.0611 -0.3091  0.0518
18718TIP3    H277646   6.492   1.178  17.041 -0.9679  0.6948  0.3091
18719TIP3   OH277647   2.287   1.211   4.385  0.1151  0.1501  0.4322
18719TIP3    H177648   2.267   1.195   4.293  3.7051  0.1676 -0.4712
18719TIP3    H277649   2.209   1.179   4.432 -1.8757  0.2504 -2.5462
18720TIP3   OH277650   2.467   4.112   1.708 -0.4516 -0.1842  0.0863
18720TIP3    H177651   2.397   4.176   1.723  0.2552  1.0256 -1.5367
18720TIP3    H277652   2.445   4.039   1.767 -1.7847  1.1294  1.3152
18721TIP3   OH277653   5.369   4.805  13.308 -0.1523 -0.7213  0.1400
18721TIP3    H177654   5.315   4.729  13.287 -0.6395 -0.3317 -0.0296
18721TIP3    H277655   5.444   4.797  13.249 -0.2519 -1.0189  0.0523
18722TIP3   OH277656   5.946   6.688  13.521  0.0585 -0.4458 -0.0897
18722TIP3    H177657   5.907   6.768  13.557 -0.0467 -0.8761  0.7693
18722TIP3    H277658   6.019   6.720  13.467 -0.3674  0.2625 -0.2672
18723TIP3   OH277659   2.779   1.088  13.973 -0.4000  0.1180 -0.0648
18723TIP3    H177660   2.809   1.175  13.997  0.7217 -0.1264 -0.4738
18723TIP3    H277661   2.800   1.034  14.050 -0.1462  0.0232 -0.1978
18724TIP3   OH277662   3.190   0.497   1.397  0.5859  0.4172  0.2695
18724TIP3    H177663   3.147   0.492   1.482 -0.3548  0.2542 -0.2005
18724TIP3    H277664   3.192   0.407   1.366 -1.9023  0.7678 -1.2085
18725TIP3   OH277665   1.073   5.462   0.849  0.0279  0.9403 -0.2436
18725TIP3    H177666   1.050   5.407   0.924  0.2979  1.4313  0.2086
18725TIP3    H277667   1.124   5.534   0.887 -0.5362  1.6433 -0.7841
18726TIP3   OH277668   6.540   1.226  10.038 -0.5616 -0.3886  0.0163
18726TIP3    H177669   6.607   1.204   9.973 -0.1093 -1.2982  0.7642
18726TIP3    H277670   6.561   1.315  10.065 -1.3370  0.3797 -1.7577
18727TIP3   OH277671   3.701   0.125   2.744 -0.1542 -0.6554 -0.0644
18727TIP3    H177672   3.608   0.114   2.722 -0.7133  0.8572  1.3010
18727TIP3    H277673   3.730   0.198   2.689 -0.2002 -0.1524  0.5648
18728TIP3   OH277674   0.756   0.896  14.220  0.0881 -0.2847  0.3378
18728TIP3    H177675   0.840   0.851  14.218  0.2329 -0.0298  0.6338
18728TIP3    H277676   0.776   0.983  14.256 -0.3997 -0.4339  0.9845
18729TIP3   OH277677   1.733   2.705   0.273  0.2202  0.2705 -0.2812
18729TIP3    H177678   1.750   2.702   0.178  0.0673  0.0233 -0.3005
18729TIP3    H277679   1.647   2.666   0.283  0.1256  0.5331 -0.0643
18730TIP3   OH277680   5.781   2.667   3.822 -0.6691 -0.3151 -0.4587
18730TIP3    H177681   5.763   2.737   3.760 -0.2153  0.6828  0.5184
18730TIP3    H277682   5.697   2.651   3.865 -0.7653 -0.3811 -0.6640
18731TIP3   OH277683   3.610   3.404   6.603  0.5008 -0.0300  0.7932
18731TIP3    H177684   3.637   3.335   6.542  0.3030 -0.6386  1.3710
18731TIP3    H277685   3.685   3.462   6.608 -0.1891  1.1804 -1.5729
18732TIP3   OH277686   5.928   3.844   1.560 -0.2275 -0.1361  0.2137
18732TIP3    H177687   5.864   3.915   1.564 -2.3035 -1.9786  2.4225
18732TIP3    H277688   5.896   3.788   1.489  0.3626  0.1646 -0.2987
18733TIP3   OH277689   1.193   0.511  15.580  0.0390  0.8007  0.1153
18733TIP3    H177690   1.185   0.445  15.649 -3.0051 -1.1172 -1.8539
18733TIP3    H277691   1.120   0.572  15.596 -0.7235  0.3230 -1.3150
18734TIP3   OH277692   3.019   5.462  13.016  0.0897 -0.0701  0.1543
18734TIP3    H177693   3.021   5.374  12.977  0.4941  0.4176 -0.9372
18734TIP3    H277694   2.938   5.463  13.068 -1.2269 -0.2414 -1.8156
18735TIP3   OH277695   4.127   3.407   3.313  0.1625  0.1665 -0.6893
18735TIP3    H177696   4.038   3.417   3.280 -0.4915 -0.8710  0.6882
18735TIP3    H277697   4.140   3.481   3.371 -0.0050  0.0253 -0.4703
18736TIP3   OH277698   0.609   2.732   3.347 -0.1259  0.3026  0.3406
18736TIP3    H177699   0.624   2.688   3.431  0.1681 -2.1825 -0.9426
18736TIP3    H277700   0.514   2.743   3.343 -0.3734 -1.6926  0.0249
18737TIP3   OH277701   6.342   6.212   4.547  0.1500  0.1195 -0.4484
18737TIP3    H177702   6.322   6.283   4.608 -0.5729  1.6406 -2.3422
18737TIP3    H277703   6.257   6.187   4.511  0.7077  0.6663 -2.2560
18738TIP3   OH277704   4.978   5.285  15.644 -0.0590  0.2063  0.0284
18738TIP3    H177705   4.916   5.349  15.608  0.0808  1.0806  1.3005
18738TIP3    H277706   5.001   5.230  15.569 -3.3270 -0.9702 -0.2758
18739TIP3   OH277707   2.711   1.305  14.863  0.5298  0.1024 -0.3837
18739TIP3    H177708   2.706   1.349  14.948  0.2435  0.8438 -0.7781
18739TIP3    H277709   2.805   1.296  14.846  0.6569 -2.0737  1.0187
18740TIP3   OH277710   2.841   3.631   2.720  0.2764  0.3659 -0.3075
18740TIP3    H177711   2.862   3.724   2.709  2.3174 -0.0187 -0.1517
18740TIP3    H277712   2.802   3.625   2.807  0.7782  0.9943 -0.0319
18741TIP3   OH277713   1.390   2.906  10.778  0.3208  0.5992  0.6226
18741TIP3    H177714   1.374   2.835  10.841 -0.2643  0.1648 -0.0078
18741TIP3    H277715   1.484   2.923  10.786  0.3695  0.1212  1.1716
18742TIP3   OH277716   6.210   5.609   2.368 -0.5012 -0.3207 -0.1479
18742TIP3    H177717   6.182   5.556   2.442  0.4799 -1.2480 -0.4141
18742TIP3    H277718   6.306   5.605   2.369 -0.4285  0.6209 -0.7799
18743TIP3   OH277719   3.948   0.114   4.122  0.0268 -0.0572  0.7850
18743TIP3    H177720   3.996   0.051   4.069 -1.1670  0.6067 -1.1789
18743TIP3    H277721   3.856   0.087   4.114 -0.2851  0.7050  1.6321
18744TIP3   OH277722   4.267   6.498   1.330 -0.9010 -0.4588  0.1396
18744TIP3    H177723   4.330   6.503   1.402 -1.3481  2.4006  0.4563
18744TIP3    H277724   4.320   6.510   1.251 -0.9037  1.5710  0.3848
18745TIP3   OH277725   1.878   6.053  11.611  0.0855 -0.7445 -0.8993
18745TIP3    H177726   1.808   5.996  11.645  0.4667 -1.6583 -1.6000
18745TIP3    H277727   1.874   6.042  11.516  2.2393 -2.1394 -0.8967
18746TIP3   OH277728   2.096   4.487  15.829 -0.0447  0.4404 -0.5037
18746TIP3    H177729   2.095   4.391  15.822 -1.8619  0.2952  0.9109
18746TIP3    H277730   2.075   4.517  15.741 -1.8491 -0.5821 -0.4793
18747TIP3   OH277731   3.348   6.018   3.811  0.4022  0.0966  0.6571
18747TIP3    H177732   3.363   6.005   3.717  0.3842 -0.1483  0.6869
18747TIP3    H277733   3.433   6.041   3.846  0.3609  0.4277  0.5394
18748TIP3   OH277734   5.995   4.929   3.834  0.5220  0.5731  0.1948
18748TIP3    H177735   6.086   4.923   3.863  0.9026  0.5336 -0.9375
18748TIP3    H277736   5.952   4.985   3.898  0.8669 -0.9283  1.8154
18749TIP3   OH277737   0.197   4.113   5.784 -0.1182  0.0780  0.2209
18749TIP3    H177738   0.120   4.168   5.767  0.3995  0.8169  0.2329
18749TIP3    H277739   0.197   4.100   5.879  0.1631  0.6676  0.3049
18750TIP3   OH277740   5.642   1.943  12.111  0.5150 -0.1572  0.0007
18750TIP3    H177741   5.676   1.981  12.030  0.0563  0.4765  0.1000
18750TIP3    H277742   5.690   1.987  12.181  0.7483 -0.5394  0.0840
18751TIP3   OH277743   2.605   6.384  14.576 -0.6921  0.2122 -0.4283
18751TIP3    H177744   2.586   6.354  14.488 -2.0924  2.6394 -1.0540
18751TIP3    H277745   2.535   6.347  14.630 -1.6965  1.2479 -0.9637
18752TIP3   OH277746   5.548   0.942  15.813  0.2408 -0.0880 -0.1672
18752TIP3    H177747   5.469   0.996  15.812 -0.3673 -0.9468 -1.3858
18752TIP3    H277748   5.620   1.004  15.809 -0.4227  0.6670 -0.5650
18753TIP3   OH277749   3.179   6.404  12.572  0.7383  0.2504 -0.1773
18753TIP3    H177750   3.253   6.355  12.608  2.9703  2.4851 -1.4043
18753TIP3    H277751   3.200   6.413  12.479 -1.2174  0.7849 -0.5950
18754TIP3   OH277752   2.136   3.817  15.124 -0.0526  0.2222 -0.5289
18754TIP3    H177753   2.179   3.743  15.082 -1.1759 -0.8729  0.2019
18754TIP3    H277754   2.050   3.821  15.084 -1.2212 -0.9531  1.6806
18755TIP3   OH277755   2.416   0.097  17.098  0.0413  0.3103 -0.0916
18755TIP3    H177756   2.425   0.186  17.130 -0.5601  0.2970  0.1278
18755TIP3    H277757   2.506   0.068  17.081  0.3866  0.3314  1.5421
18756TIP3   OH277758   3.025   6.097  10.713 -0.5591  0.6644  0.3345
18756TIP3    H177759   3.113   6.129  10.694  0.2040 -2.6364 -3.0014
18756TIP3    H277760   2.970   6.175  10.712  1.9518  2.5408 -0.3203
18757TIP3   OH277761   4.410   0.957   4.733 -0.2065  0.4935 -0.2112
18757TIP3    H177762   4.389   0.928   4.822  0.3339 -0.0779 -0.2629
18757TIP3    H277763   4.424   1.052   4.742 -3.0405  0.9888 -0.2385
18758TIP3   OH277764   4.457   0.794   2.685 -0.5345 -0.4254  0.4734
18758TIP3    H177765   4.489   0.708   2.714 -1.5011 -0.6064  1.0533
18758TIP3    H277766   4.521   0.856   2.718  1.9828 -1.0802 -2.6514
18759TIP3   OH277767   2.664   4.379  15.403  0.5245 -0.2154  0.2786
18759TIP3    H177768   2.745   4.334  15.427  1.1950  0.0668 -1.3261
18759TIP3    H277769   2.618   4.317  15.347  1.9410  1.2890 -2.8436
18760TIP3   OH277770   3.222   0.993  10.539 -0.1052  0.3195 -0.2849
18760TIP3    H177771   3.242   1.011  10.447  0.4100 -0.0661 -0.2478
18760TIP3    H277772   3.274   0.916  10.561 -1.0035 -0.2051  0.0451
18761TIP3   OH277773   1.073   0.717  12.671  0.6315 -0.0380  0.2459
18761TIP3    H177774   0.993   0.758  12.638  0.4677 -2.0143 -2.0212
18761TIP3    H277775   1.135   0.722  12.599  2.4403  0.9780  1.7875
18762TIP3   OH277776   2.594   2.812  15.762  0.3232  0.2780 -0.1783
18762TIP3    H177777   2.591   2.908  15.755  1.3138  0.1860 -2.7551
18762TIP3    H277778   2.531   2.792  15.832  0.2184  2.7915  0.5674
18763TIP3   OH277779   2.419   2.781  16.598  0.1662  0.4688  0.6600
18763TIP3    H177780   2.420   2.877  16.597 -1.2483  0.5407  2.2422
18763TIP3    H277781   2.338   2.757  16.553  1.0034 -0.0568 -0.6322
18764TIP3   OH277782   5.413   2.039  10.356  0.1769 -0.0277  0.6048
18764TIP3    H177783   5.478   2.098  10.395  0.7089  0.6774 -1.2436
18764TIP3    H277784   5.345   2.097  10.323  1.2246 -0.2549 -2.2169
18765TIP3   OH277785   1.502   3.340  14.503 -0.2821 -0.4856 -0.2826
18765TIP3    H177786   1.563   3.352  14.430  0.1915  0.4572  0.2494
18765TIP3    H277787   1.470   3.428  14.522 -0.9758 -0.8253  0.1627
18766TIP3   OH277788   6.161   4.092  11.689 -0.6081  0.7400 -0.0612
18766TIP3    H177789   6.180   4.186  11.687 -1.0218  0.8186 -0.2574
18766TIP3    H277790   6.123   4.073  11.604 -1.1476  0.5212  0.2260
18767TIP3   OH277791   5.037   6.397   0.643  0.0981 -0.3380 -0.2501
18767TIP3    H177792   5.078   6.317   0.674  2.3156  0.9086  0.2337
18767TIP3    H277793   5.084   6.420   0.563 -0.5310  0.4519 -0.4178
18768TIP3   OH277794   4.816   1.131   6.439 -0.0992 -0.1353 -0.4992
18768TIP3    H177795   4.731   1.088   6.428 -0.0056 -0.1197 -1.2949
18768TIP3    H277796   4.794   1.224   6.452 -0.1163  0.6454 -4.7858
18769TIP3   OH277797   0.846   4.737   5.777 -0.4889  0.6862 -0.2270
18769TIP3    H177798   0.922   4.680   5.772 -1.5579 -0.9753  1.1870
18769TIP3    H277799   0.850   4.776   5.864  0.2848  2.9619 -1.2063
18770TIP3   OH277800   5.899   3.318   3.472 -0.3154  0.0190 -0.0667
18770TIP3    H177801   5.896   3.386   3.540  0.2971 -0.7040  0.7046
18770TIP3    H277802   5.993   3.298   3.463 -0.5681 -1.7169  0.7469
18771TIP3   OH277803   5.757   2.969  12.479  0.0522  0.3596  0.6462
18771TIP3    H177804   5.703   3.036  12.520  0.3285  1.2031 -0.3241
18771TIP3    H277805   5.831   2.957  12.539 -1.6169 -1.5326  2.5025
18772TIP3   OH277806   3.463   5.983  13.856 -0.4805  0.5377 -0.4789
18772TIP3    H177807   3.431   6.044  13.923  0.8711 -0.0035  0.6993
18772TIP3    H277808   3.557   6.001  13.851  0.1448 -2.0013  0.5413
18773TIP3   OH277809   3.132   4.519   0.077 -0.0770 -0.1452  0.1482
18773TIP3    H177810   3.079   4.522  -0.003 -1.1317 -0.4437  0.8088
18773TIP3    H277811   3.127   4.609   0.111  0.0537 -0.1111  0.0774
18774TIP3   OH277812   4.145   3.429   2.723  0.0299 -0.6122 -0.8230
18774TIP3    H177813   4.128   3.505   2.667  1.3172 -0.5863 -1.2159
18774TIP3    H277814   4.117   3.354   2.671  1.0355 -0.5735 -1.4465
18775TIP3   OH277815   3.318   2.811   0.620  0.1780  0.4725  0.1199
18775TIP3    H177816   3.302   2.904   0.638 -0.6706  1.0452 -2.9509
18775TIP3    H277817   3.234   2.769   0.638  0.8430  0.0385  2.5126
18776TIP3   OH277818   6.280   1.072  13.546 -0.1187 -0.0550  0.3414
18776TIP3    H177819   6.336   0.996  13.562  0.6872  0.3068 -0.6645
18776TIP3    H277820   6.244   1.057  13.458 -0.5569  0.3681  0.4465
18777TIP3   OH277821   0.592   1.675  11.027  0.4969  0.4769 -0.6855
18777TIP3    H177822   0.616   1.585  11.003  1.9238  0.8117 -0.6082
18777TIP3    H277823   0.499   1.681  11.005  0.8155 -0.4117 -2.5145
18778TIP3   OH277824   5.500   1.308  15.648  0.7998  0.1789  0.2683
18778TIP3    H177825   5.458   1.257  15.578  0.3909  0.8069  0.0505
18778TIP3    H277826   5.593   1.309  15.624  0.5935  0.8172 -0.5435
18779TIP3   OH277827   0.481   1.008   4.448 -0.6755 -0.4733 -0.6047
18779TIP3    H177828   0.470   0.940   4.514 -0.1421  0.0868  0.0851
18779TIP3    H277829   0.422   1.078   4.475 -1.2868 -0.6856 -1.3560
18780TIP3   OH277830   5.463   1.991   3.947  0.2375  0.4457 -0.3117
18780TIP3    H177831   5.462   2.042   3.865  1.1519  0.3913 -0.3705
18780TIP3    H277832   5.465   1.900   3.918  1.2732  0.4402 -0.2456
18781TIP3   OH277833   3.752   3.690   2.775 -0.1913 -0.1298  0.0591
18781TIP3    H177834   3.712   3.751   2.713  0.9423  0.7175  0.1343
18781TIP3    H277835   3.824   3.739   2.814  1.1932 -1.7409 -0.3764
18782TIP3   OH277836   1.665   4.426  12.973 -0.4116 -0.8534  0.1264
18782TIP3    H177837   1.660   4.374  12.894  0.5425  1.7482 -1.7995
18782TIP3    H277838   1.574   4.450  12.992 -0.5865 -0.8913 -0.6406
18783TIP3   OH277839   5.372   5.694  13.536 -0.1921  0.0753 -0.0971
18783TIP3    H177840   5.342   5.782  13.512 -0.6051  0.2203  0.9052
18783TIP3    H277841   5.468   5.701  13.536 -0.2000  0.3031 -0.7965
18784TIP3   OH277842   6.669   4.170  16.277 -0.2575  0.3812 -0.1665
18784TIP3    H177843   6.748   4.198  16.324 -0.2571 -0.2628  0.2328
18784TIP3    H277844   6.701   4.113  16.207 -0.3374  0.4343 -0.2465
18785TIP3   OH277845   2.816   1.470   1.251  0.0639 -0.3339  0.0713
18785TIP3    H177846   2.766   1.391   1.230 -2.2550  0.4655  2.1511
18785TIP3    H277847   2.757   1.523   1.304  2.7421  1.2217  1.7741
18786TIP3   OH277848   5.815   5.571   2.592  0.0710  0.0090  0.1887
18786TIP3    H177849   5.845   5.572   2.501  0.8523 -1.2842  0.4086
18786TIP3    H277850   5.809   5.663   2.616  1.7945  0.3575 -0.5591
18787TIP3   OH277851   0.268   1.219   2.878  0.1598 -0.2225  0.1412
18787TIP3    H177852   0.276   1.123   2.877 -0.0655 -0.2548  0.9980
18787TIP3    H277853   0.226   1.239   2.961  1.7981  0.7549  0.7711
18788TIP3   OH277854   6.390   3.745  12.109 -0.3796  0.1724 -0.1415
18788TIP3    H177855   6.428   3.788  12.032 -2.1901  1.8833 -0.1606
18788TIP3    H277856   6.403   3.809  12.180  2.9315 -2.0896  1.5850
18789TIP3   OH277857   6.248   0.997  12.764  0.0620  0.4460  0.4682
18789TIP3    H177858   6.274   1.070  12.707  0.7398  0.9097  1.3549
18789TIP3    H277859   6.160   1.021  12.795 -0.2145  0.3020 -0.1786
18790TIP3   OH277860   3.722   0.644   0.338 -0.1232  0.3190  0.2107
18790TIP3    H177861   3.801   0.661   0.286 -1.0849 -0.0726 -1.4759
18790TIP3    H277862   3.739   0.561   0.382  0.0811 -0.2221 -0.8541
18791TIP3   OH277863   1.276   3.412  13.904 -0.1781  0.2665 -0.3390
18791TIP3    H177864   1.319   3.343  13.854  0.0633 -0.4257  0.7954
18791TIP3    H277865   1.185   3.383  13.912 -0.2393  0.4249 -0.4536
18792TIP3   OH277866   1.250   5.571  12.328  0.6239  0.4098 -0.6390
18792TIP3    H177867   1.259   5.658  12.366 -0.5074 -0.0796  0.8599
18792TIP3    H277868   1.335   5.530  12.342  0.2909  0.3044  1.3252
18793TIP3   OH277869   3.256   3.847   4.043 -0.5395  0.0164  0.4133
18793TIP3    H177870   3.274   3.909   3.973 -0.7624  0.3225  0.6256
18793TIP3    H277871   3.322   3.778   4.031 -0.2015  0.3617  0.2628
18794TIP3   OH277872   1.352   5.594   0.904 -0.2308 -0.1754  0.3034
18794TIP3    H177873   1.381   5.579   0.814  1.2527  0.8832  0.5600
18794TIP3    H277874   1.412   5.662   0.937  1.2013 -2.5709  3.0593
18795TIP3   OH277875   6.378   5.921  14.547  0.3316 -0.4549 -0.3114
18795TIP3    H177876   6.358   6.010  14.574 -0.2370 -1.0955  1.5846
18795TIP3    H277877   6.309   5.899  14.484 -0.5220 -0.0971  0.4674
18796TIP3   OH277878   0.311   0.945  12.053 -0.8351  0.1855 -0.0474
18796TIP3    H177879   0.242   0.937  12.120 -0.3131  0.8521  0.5897
18796TIP3    H277880   0.308   1.037  12.027  0.9314  0.6575  1.2499
18797TIP3   OH277881   5.193   6.305   2.027 -0.4551  0.0529 -0.3470
18797TIP3    H177882   5.109   6.327   1.986 -1.0548 -1.1587  0.2068
18797TIP3    H277883   5.210   6.215   2.000 -0.6263 -0.6071  1.6339
18798TIP3   OH277884   4.789   4.264  13.189  0.5043  0.2983 -0.6467
18798TIP3    H177885   4.779   4.187  13.133 -0.2178  1.6940 -2.5381
18798TIP3    H277886   4.719   4.255  13.254 -0.4690  0.0227 -1.6941
18799TIP3   OH277887   5.493   4.064   2.181  0.5357  0.3814  0.4565
18799TIP3    H177888   5.570   4.106   2.219  0.4160  1.1956 -0.1781
18799TIP3    H277889   5.462   4.005   2.249 -0.4432  2.7377  2.1731
18800TIP3   OH277890   4.249   4.567  15.725  0.1367  0.0913 -0.4968
18800TIP3    H177891   4.328   4.622  15.725  1.5432 -1.8121 -0.0524
18800TIP3    H277892   4.275   4.489  15.676 -0.7901 -1.4685  1.3490
18801TIP3   OH277893   5.022   5.510  15.398  0.1039 -0.4396  0.4806
18801TIP3    H177894   5.017   5.562  15.317  0.7497  1.2859  1.4948
18801TIP3    H277895   4.936   5.521  15.439  0.6738  1.0400  1.3621
18802TIP3   OH277896   1.498   6.434  14.034  0.0703 -0.6701 -0.1663
18802TIP3    H177897   1.416   6.461  14.076 -0.1605 -0.4070 -0.7756
18802TIP3    H277898   1.495   6.339  14.035 -0.7036 -0.6751 -1.0304
18803TIP3   OH277899   2.832   5.689   4.298 -0.3125 -0.2401  0.1617
18803TIP3    H177900   2.758   5.636   4.326 -0.5342 -0.6940 -1.2135
18803TIP3    H277901   2.830   5.685   4.203  0.0806  1.6817  0.0218
18804TIP3   OH277902   0.444   1.892  16.654 -0.2609  0.1130 -0.6173
18804TIP3    H177903   0.491   1.973  16.636 -0.8803  0.3921 -1.0074
18804TIP3    H277904   0.448   1.844  16.571  0.9214 -0.6960 -0.1288
18805TIP3   OH277905   1.510   6.696  11.789 -0.2912  0.0266 -0.3580
18805TIP3    H177906   1.595   6.740  11.789  0.4407 -1.2032  1.9830
18805TIP3    H277907   1.459   6.743  11.855 -1.4902  0.7582 -1.7485
18806TIP3   OH277908   6.048   4.954  14.947  0.1733 -0.0137 -0.3221
18806TIP3    H177909   6.011   4.866  14.941  0.0272 -0.0759  1.1654
18806TIP3    H277910   6.054   4.984  14.856  0.5873 -1.6931 -0.8799
18807TIP3   OH277911   4.132   3.056  10.506 -0.7817 -0.3618  0.6958
18807TIP3    H177912   4.159   2.992  10.572  1.3067 -1.1002 -0.7974
18807TIP3    H277913   4.094   3.004  10.436  1.7516 -0.1825 -0.9362
18808TIP3   OH277914   1.887   6.653   0.231  0.2593  0.1011 -0.2298
18808TIP3    H177915   1.956   6.616   0.287  0.4636 -1.7829 -1.6130
18808TIP3    H277916   1.807   6.609   0.261 -0.0586  0.9518  0.1946
18809TIP3   OH277917   4.911   0.979   5.234  0.3614 -0.3748 -0.6024
18809TIP3    H177918   4.872   1.059   5.199  1.4611  1.0245  1.1929
18809TIP3    H277919   4.849   0.948   5.300  0.8361  0.1516  0.1101
18810TIP3   OH277920   0.557   5.272   1.149  0.0976  0.3093 -0.1919
18810TIP3    H177921   0.477   5.259   1.200 -0.0542  0.5487 -0.3667
18810TIP3    H277922   0.623   5.218   1.193 -0.0636  0.4130  0.1819
18811TIP3   OH277923   0.147   3.060  15.758  0.4167  0.3165  0.3927
18811TIP3    H177924   0.166   2.971  15.788  0.8985  0.2660 -0.0526
18811TIP3    H277925   0.203   3.072  15.681 -2.2399 -0.2981 -1.7769
18812TIP3   OH277926   3.158   1.579  14.239  0.6376 -0.0245 -0.5840
18812TIP3    H177927   3.209   1.608  14.163  2.4230  0.3053  0.6796
18812TIP3    H277928   3.136   1.488  14.219 -0.4896  0.5697 -2.2632
18813TIP3   OH277929   6.402   6.589   1.917 -0.4201  0.2733 -0.3028
18813TIP3    H177930   6.341   6.644   1.966  0.1226  0.0510  0.6446
18813TIP3    H277931   6.378   6.499   1.941  0.4460  0.1913  0.3106
18814TIP3   OH277932   4.365   1.262   1.429 -0.0567  0.1060 -0.4712
18814TIP3    H177933   4.373   1.277   1.335 -0.2560  1.1673 -0.3385
18814TIP3    H277934   4.320   1.341   1.462 -2.2846 -1.3194  0.1581
18815TIP3   OH277935   2.441   0.981  15.206  0.4994  0.0832 -0.1980
18815TIP3    H177936   2.481   1.044  15.267 -0.2593 -0.1152  0.5173
18815TIP3    H277937   2.495   0.902  15.216  1.4049  0.5757 -1.0394
18816TIP3   OH277938   3.035   0.464   2.644  0.7775  0.0126 -0.8076
18816TIP3    H177939   3.067   0.409   2.715  1.7248  0.8179 -0.5871
18816TIP3    H277940   3.061   0.553   2.668 -1.9546  0.8235 -0.4364
18817TIP3   OH277941   4.400   4.239  13.185 -0.1529 -0.3714 -0.0884
18817TIP3    H177942   4.425   4.327  13.156  1.9626 -1.5612 -2.2404
18817TIP3    H277943   4.313   4.225  13.146 -0.3334  0.6047 -0.0708
18818TIP3   OH277944   1.721   4.480  16.169  0.0529  0.1076 -0.3615
18818TIP3    H177945   1.747   4.562  16.126  0.6380 -1.0067 -2.2654
18818TIP3    H277946   1.642   4.503  16.217 -0.8563  1.4435 -2.3268
18819TIP3   OH277947   0.744   0.857   3.141  0.5804 -0.0466 -0.5747
18819TIP3    H177948   0.794   0.782   3.171 -0.4052 -0.3864  0.2976
18819TIP3    H277949   0.737   0.914   3.218 -1.0017 -0.3749 -0.4428
18820TIP3   OH277950   3.338   1.529  15.494  0.1530  0.5100 -0.5462
18820TIP3    H177951   3.425   1.530  15.453 -0.2411 -0.3968 -1.4251
18820TIP3    H277952   3.285   1.585  15.437 -0.3956 -0.7549 -1.3269
18821TIP3   OH277953   3.679   0.179   3.882 -0.4141  0.2403 -0.3151
18821TIP3    H177954   3.738   0.232   3.828  0.1514  0.1683  0.2157
18821TIP3    H277955   3.618   0.241   3.920 -0.7378  0.3068 -0.9334
18822TIP3   OH277956   0.182   2.810  12.661  0.2238  0.0948  0.0810
18822TIP3    H177957   0.115   2.864  12.620  0.8565 -0.2095 -1.4285
18822TIP3    H277958   0.263   2.862  12.655  0.1905  0.3622  1.6653
18823TIP3   OH277959   4.847   6.463  15.015 -0.0955  0.0156 -0.1478
18823TIP3    H177960   4.893   6.486  14.934 -1.2610  0.2839 -0.7423
18823TIP3    H277961   4.801   6.543  15.040 -1.0540 -0.5356 -0.1168
18824TIP3   OH277962   2.012   5.991   0.499 -0.9111  0.4633 -0.5700
18824TIP3    H177963   1.978   5.976   0.587  0.8510 -1.9808 -0.1982
18824TIP3    H277964   1.975   5.920   0.447  2.5560 -1.7342 -0.3622
18825TIP3   OH277965   4.154   4.370  13.457  1.0194 -0.3613  0.1026
18825TIP3    H177966   4.235   4.351  13.504  0.6156  0.6923  1.2534
18825TIP3    H277967   4.130   4.286  13.416  1.3641 -1.3120  1.7794
18826TIP3   OH277968   1.768   1.691   4.370  0.0136 -0.0230  0.3652
18826TIP3    H177969   1.693   1.675   4.427 -1.1136 -0.5934 -1.1995
18826TIP3    H277970   1.823   1.753   4.419  0.8184 -2.8846  3.5035
18827TIP3   OH277971   2.377   3.618   5.442  0.1097  0.4288  0.3267
18827TIP3    H177972   2.322   3.574   5.377  1.8337 -0.3920 -0.6583
18827TIP3    H277973   2.381   3.556   5.515  0.1902  0.2325  0.1585
18828TIP3   OH277974   5.901   3.915  11.148  0.2203  0.0284  0.0302
18828TIP3    H177975   5.973   3.978  11.150 -0.4276  0.7522  0.5518
18828TIP3    H277976   5.828   3.959  11.191 -1.2146  0.1399 -2.3432
18829TIP3   OH277977   6.292   2.964   5.019  0.0803 -0.4754  0.0339
18829TIP3    H177978   6.305   2.904   5.092  0.6057  0.4307  0.7025
18829TIP3    H277979   6.218   3.018   5.045  0.8790  0.4978  0.3510
18830TIP3   OH277980   2.632   6.275   4.859 -0.0341 -0.0535 -0.2764
18830TIP3    H177981   2.649   6.321   4.941  2.1095 -0.3071 -0.5114
18830TIP3    H277982   2.715   6.233   4.838 -0.5899 -0.1477 -2.4975
18831TIP3   OH277983   0.634   5.988   0.200  0.4433  0.6208 -0.0294
18831TIP3    H177984   0.714   6.014   0.245  0.5556  1.2207 -0.5564
18831TIP3    H277985   0.632   5.892   0.207  0.9215  0.6411  0.4544
18832TIP3   OH277986   4.655   5.339   3.647  0.4230 -0.4384  0.0547
18832TIP3    H177987   4.650   5.248   3.676  0.3579 -0.5930 -0.4365
18832TIP3    H277988   4.631   5.337   3.555 -0.3839  0.1901  0.2370
18833TIP3   OH277989   3.432   5.104  16.502 -0.1299 -0.1408  0.0064
18833TIP3    H177990   3.447   5.192  16.467 -0.1169  0.5620  1.6938
18833TIP3    H277991   3.519   5.075  16.531  0.3792 -1.7930 -2.7616
18834TIP3   OH277992   1.786   4.963   0.709  1.1814 -0.1869 -0.2089
18834TIP3    H177993   1.732   4.977   0.631  0.8142  1.2559  0.2795
18834TIP3    H277994   1.875   4.977   0.679  0.9610  1.4296 -0.1582
18835TIP3   OH277995   5.953   3.881  15.477  0.0316  0.2203 -0.5304
18835TIP3    H177996   5.875   3.911  15.525  1.0299  2.6148 -0.2332
18835TIP3    H277997   5.918   3.832  15.402 -1.8620  2.2064 -1.0573
18836TIP3   OH277998   1.103   4.791   3.636  0.0396  0.3966 -0.5388
18836TIP3    H177999   1.154   4.747   3.703 -0.4419 -0.5323 -0.7677
18836TIP3    H278000   1.014   4.758   3.648  0.1521 -0.6495 -2.3349
18837TIP3   OH278001   6.694   3.411  13.804  0.0251 -0.2616  0.2409
18837TIP3    H178002   6.653   3.326  13.823 -0.8249 -0.0756 -0.6780
18837TIP3    H278003   6.788   3.394  13.810 -0.1500 -0.8119  1.9212
18838TIP3   OH278004   1.251   4.598  13.568 -0.2934  0.1309  0.0392
18838TIP3    H178005   1.298   4.580  13.486 -0.7464 -1.2817  0.0671
18838TIP3    H278006   1.180   4.656  13.542  1.3781  2.2798 -0.0156
18839TIP3   OH278007   6.141   4.973   0.494  0.1513  0.1561 -0.4630
18839TIP3    H178008   6.139   4.964   0.589  1.9120 -0.3235 -0.4524
18839TIP3    H278009   6.059   5.020   0.473  0.7363  2.2168  1.4759
18840TIP3   OH278010   0.774   0.661   4.083 -0.5610  0.1166 -0.5445
18840TIP3    H178011   0.775   0.747   4.041 -1.1510  0.2906 -0.2236
18840TIP3    H278012   0.704   0.613   4.038 -1.3873  0.4000  0.3909
18841TIP3   OH278013   3.659   0.945  13.095  0.1263 -0.1432 -0.1516
18841TIP3    H178014   3.584   0.895  13.063 -0.6468  1.2440 -0.5543
18841TIP3    H278015   3.628   0.987  13.175  0.3497  0.7553 -0.5309
18842TIP3   OH278016   4.285   5.395   4.141 -0.1270 -0.0370 -0.2931
18842TIP3    H178017   4.346   5.353   4.081  1.4987 -0.0204  1.2567
18842TIP3    H278018   4.207   5.410   4.089  0.2475 -2.3684 -1.6776
18843TIP3   OH278019   2.598   4.038  13.634 -0.0162  0.1455  0.5083
18843TIP3    H178020   2.573   3.998  13.717  0.3902  1.2950  1.2177
18843TIP3    H278021   2.640   4.120  13.659  1.3745 -0.1268 -0.7742
18844TIP3   OH278022   3.122   6.387  13.121 -0.2519  0.0371  0.6017
18844TIP3    H178023   3.185   6.363  13.052 -0.9350 -0.7917  0.2437
18844TIP3    H278024   3.140   6.326  13.192 -0.9245 -0.4903  0.3282
18845TIP3   OH278025   5.677   4.181   4.050  0.1731 -0.3766  0.0529
18845TIP3    H178026   5.700   4.105   3.996  1.7719  0.6207 -0.7349
18845TIP3    H278027   5.726   4.169   4.131  0.8826  0.0646 -0.2964
18846TIP3   OH278028   5.248   4.491  12.994 -0.1939 -0.4778 -0.1661
18846TIP3    H178029   5.246   4.398  12.975  2.5653 -0.8213  0.7518
18846TIP3    H278030   5.266   4.496  13.088  1.4527  0.9178 -0.4967
18847TIP3   OH278031   3.348   4.655   0.317  0.2376 -0.6271 -0.1694
18847TIP3    H178032   3.313   4.646   0.406  1.0712 -3.2845  0.0035
18847TIP3    H278033   3.287   4.713   0.272 -0.3343  0.6074  2.0591
18848TIP3   OH278034   0.754   0.048   3.010  0.4178  0.1818  0.7113
18848TIP3    H178035   0.767   0.084   3.098 -0.5589  1.6927  0.2728
18848TIP3    H278036   0.816   0.095   2.955  1.4584 -1.1943  0.6689
18849TIP3   OH278037   3.922   3.459   4.761 -0.2575 -0.0142  0.0536
18849TIP3    H178038   3.921   3.415   4.846  2.8593 -2.9733 -1.2040
18849TIP3    H278039   3.840   3.431   4.719  0.8643 -3.6912 -0.0620
18850TIP3   OH278040   6.525   5.843   5.848  0.1852 -0.2643 -0.4454
18850TIP3    H178041   6.580   5.878   5.779  1.3139 -1.8635 -0.4127
18850TIP3    H278042   6.521   5.749   5.831  1.6003 -0.9446  2.3584
18851TIP3   OH278043   1.958   6.202   2.223 -0.2414  0.0778 -0.2660
18851TIP3    H178044   1.906   6.184   2.302  1.2616 -1.0110  0.5217
18851TIP3    H278045   2.024   6.265   2.252  0.0649 -0.0100 -0.7698
18852TIP3   OH278046   4.095   6.648   1.112 -0.5569  0.4172  0.1268
18852TIP3    H178047   4.183   6.637   1.148 -0.7798 -0.0046  0.5485
18852TIP3    H278048   4.068   6.560   1.086 -1.1994  0.3979  0.8206
18853TIP3   OH278049   2.815   3.787  11.219  0.2385 -0.3119 -0.4034
18853TIP3    H178050   2.874   3.828  11.157  1.3024 -2.7711 -1.1500
18853TIP3    H278051   2.734   3.772  11.170 -0.1791  0.8937 -0.1046
18854TIP3   OH278052   2.853   5.897   1.482 -0.5931  0.2600 -0.1051
18854TIP3    H178053   2.945   5.919   1.467  0.3361 -2.4449  1.1035
18854TIP3    H278054   2.829   5.842   1.408 -1.3283  1.0700 -0.4893
18855TIP3   OH278055   3.434   5.557   3.794 -0.0864 -0.1741  0.0037
18855TIP3    H178056   3.429   5.468   3.761 -2.2342 -0.7961  1.7688
18855TIP3    H278057   3.356   5.601   3.759 -0.2269  0.3353  0.9102
18856TIP3   OH278058   4.779   2.721   0.125  0.5175  0.5040 -0.0059
18856TIP3    H178059   4.809   2.663   0.194 -0.9182 -1.8104 -1.2010
18856TIP3    H278060   4.809   2.808   0.152  0.8841 -0.4362  2.9571
18857TIP3   OH278061   4.832   5.607  16.189  0.1313 -0.1480  0.2928
18857TIP3    H178062   4.782   5.554  16.251  0.1011 -1.7592 -1.0327
18857TIP3    H278063   4.768   5.631  16.122  0.5225  0.1736  0.0339
18858TIP3   OH278064   4.020   0.423   4.579 -0.0806  0.4080  0.6641
18858TIP3    H178065   4.006   0.340   4.535  3.3607 -0.3391  0.7156
18858TIP3    H278066   4.066   0.400   4.660  0.4601  2.3005  0.9512
18859TIP3   OH278067   1.863   2.740  11.462 -0.1384 -0.0040  0.3883
18859TIP3    H178068   1.910   2.769  11.384 -0.0432  1.9475  1.1015
18859TIP3    H278069   1.770   2.750  11.438 -0.1460  2.7980  1.1509
18860TIP3   OH278070   3.355   0.359  12.604 -0.3354  0.6274 -0.2000
18860TIP3    H178071   3.378   0.425  12.539 -0.4515 -0.1473 -1.0430
18860TIP3    H278072   3.274   0.391  12.643  0.2631  1.6025  0.3047
18861TIP3   OH278073   3.046   4.163  11.499 -0.5412  0.2466 -0.1637
18861TIP3    H178074   3.061   4.084  11.446  0.1316 -0.0813  0.4929
18861TIP3    H278075   3.123   4.168  11.556 -1.3743  0.4366  0.9654
18862TIP3   OH278076   5.427   2.462   5.228 -0.0023  0.3614 -0.1112
18862TIP3    H178077   5.475   2.468   5.145  1.2747  2.3942  0.6906
18862TIP3    H278078   5.343   2.504   5.209  0.3600  1.0059 -0.3504
18863TIP3   OH278079   0.212   1.579   2.317  0.2361  0.5614  0.4221
18863TIP3    H178080   0.266   1.648   2.354  2.1869 -1.3998  1.4287
18863TIP3    H278081   0.261   1.498   2.332 -1.1422 -0.9157 -2.1831
18864TIP3   OH278082   3.876   6.580  10.615 -0.3749  0.0524 -0.2917
18864TIP3    H178083   3.855   6.673  10.608 -2.0340 -0.2886 -0.3244
18864TIP3    H278084   3.817   6.547  10.682 -1.3668 -1.3713 -1.7727
18865TIP3   OH278085   4.385   2.336  15.572  0.1996 -0.5456 -0.3714
18865TIP3    H178086   4.432   2.267  15.526  2.6764  1.7293 -1.5042
18865TIP3    H278087   4.451   2.377  15.628 -1.7926 -0.6585  2.2529
18866TIP3   OH278088   5.584   2.991  15.843  0.8847  0.2221  0.3141
18866TIP3    H178089   5.565   2.917  15.785  1.1845 -0.5396  1.1699
18866TIP3    H278090   5.572   2.957  15.931  0.6043  1.3202  0.7247
18867TIP3   OH278091   4.839   5.294   0.151  0.3066 -0.1575  0.0601
18867TIP3    H178092   4.866   5.210   0.114 -1.3048 -0.8835  0.4265
18867TIP3    H278093   4.872   5.359   0.090  2.8072 -0.9115  0.4787
18868TIP3   OH278094   3.931   4.412  11.659  0.3134  0.0607  0.1585
18868TIP3    H178095   3.993   4.476  11.693 -1.8580  1.4843  1.7245
18868TIP3    H278096   3.929   4.343  11.725 -1.0661  0.9489  1.1122
18869TIP3   OH278097   3.961   0.192   0.538 -0.3853 -0.2717  0.0586
18869TIP3    H178098   3.961   0.153   0.625 -0.2732 -0.3658  0.0149
18869TIP3    H278099   4.050   0.223   0.525 -0.6177  0.5771  0.3553
18870TIP3   OH278100   4.160   1.689   0.059  0.1431  0.1069  0.0544
18870TIP3    H178101   4.201   1.607   0.032  0.6813 -0.1936  1.6671
18870TIP3    H278102   4.203   1.756   0.005  1.8763 -0.3481  0.8067
18871TIP3   OH278103   4.339   4.605  12.453  0.1636  0.5917 -0.2720
18871TIP3    H178104   4.283   4.660  12.508  3.0632  0.8049  2.8524
18871TIP3    H278105   4.324   4.516  12.486  1.7007  0.6837  0.7891
18872TIP3   OH278106   5.372   2.538  15.196 -0.4815  0.6324  0.3718
18872TIP3    H178107   5.409   2.614  15.240 -0.1174  0.6135  0.1074
18872TIP3    H278108   5.283   2.564  15.174 -0.2791  1.0857  0.0520
18873TIP3   OH278109   6.533   3.100   6.072 -0.7571  0.6000 -0.2519
18873TIP3    H178110   6.595   3.035   6.039 -1.9712 -1.0998  0.6987
18873TIP3    H278111   6.583   3.150   6.136  0.1173  0.4528 -0.7886
18874TIP3   OH278112   3.903   6.020   2.314 -0.0709  0.2065 -0.1930
18874TIP3    H178113   3.882   5.947   2.373 -1.4912  0.2433 -0.6085
18874TIP3    H278114   3.828   6.079   2.322  1.5256  2.2054  0.9527
18875TIP3   OH278115   3.342   3.561  12.797 -0.2824  0.1778 -0.0374
18875TIP3    H178116   3.366   3.610  12.875  0.2459 -2.5992  1.6736
18875TIP3    H278117   3.409   3.493  12.789 -0.6718 -0.0032 -2.5790
18876TIP3   OH278118   4.031   2.007   6.650 -0.2964 -0.0446 -0.2737
18876TIP3    H178119   3.989   1.984   6.567 -0.7870  1.2505 -0.4067
18876TIP3    H278120   4.066   1.925   6.683  1.8397 -0.2663 -2.8084
18877TIP3   OH278121   4.813   5.867   5.519 -0.1659 -0.2743  0.4638
18877TIP3    H178122   4.753   5.902   5.585 -1.6542 -0.6927 -0.6132
18877TIP3    H278123   4.808   5.929   5.446  0.5543 -0.4326  0.2664
18878TIP3   OH278124   2.826   6.667  11.018 -0.4762  0.0157  0.4820
18878TIP3    H178125   2.820   6.580  10.978 -1.5513 -0.4032  1.5219
18878TIP3    H278126   2.904   6.705  10.978  0.4042 -1.6703  0.4900
18879TIP3   OH278127   2.580   0.028  12.160 -0.5736 -0.1331 -0.0816
18879TIP3    H178128   2.564  -0.063  12.134  0.9456  0.0306 -1.8470
18879TIP3    H278129   2.504   0.075  12.127  0.1010 -0.3426 -2.0778
18880TIP3   OH278130   1.036   4.315   4.292 -0.2718  0.6869  0.1526
18880TIP3    H178131   1.006   4.285   4.377 -1.5713  0.3338 -0.4130
18880TIP3    H278132   1.130   4.297   4.292 -0.4841 -0.5383  1.0014
18881TIP3   OH278133   2.461   1.315   5.202  0.1618 -0.5833  0.1955
18881TIP3    H178134   2.499   1.387   5.251  1.8891 -0.1844 -1.6053
18881TIP3    H278135   2.367   1.320   5.221  0.2416  2.0067  0.2864
18882TIP3   OH278136   4.676   1.313   5.462  0.2492  0.1327 -0.7200
18882TIP3    H178137   4.697   1.253   5.534  1.2001  1.1985 -0.0828
18882TIP3    H278138   4.723   1.277   5.386  0.6016 -0.0798 -0.4048
18883TIP3   OH278139   2.366   1.087  12.052 -0.2717 -0.4679 -0.1607
18883TIP3    H178140   2.332   1.151  12.113  1.4167  0.0940  0.2466
18883TIP3    H278141   2.298   1.020  12.046 -2.8603  2.0952 -1.8739
18884TIP3   OH278142   0.433   1.556   3.538  0.2944  0.1010 -0.0889
18884TIP3    H178143   0.427   1.635   3.592  0.2496 -0.4872  0.8033
18884TIP3    H278144   0.435   1.588   3.448 -0.7877  1.0601  0.2047
18885TIP3   OH278145   3.516   1.111  13.282  0.0238  0.0581 -0.0985
18885TIP3    H178146   3.436   1.119  13.231 -0.0434 -0.4434 -0.0750
18885TIP3    H278147   3.489   1.125  13.373 -0.1936 -0.9677  0.0059
18886TIP3   OH278148   4.066   6.213  11.902 -0.8470  0.1521  0.6055
18886TIP3    H178149   3.986   6.190  11.856 -0.2243  0.1685 -0.5312
18886TIP3    H278150   4.129   6.234  11.833  0.3245 -0.4416  1.4445
18887TIP3   OH278151   4.189   1.956  17.135  0.3327 -0.0456  0.3930
18887TIP3    H178152   4.264   2.009  17.109 -1.5657  3.5485  1.6267
18887TIP3    H278153   4.129   1.961  17.060 -1.1135  2.2620  1.6047
18888TIP3   OH278154   5.035   2.555   2.757 -0.1485 -0.3968  0.4014
18888TIP3    H178155   4.996   2.491   2.816 -0.2861 -1.3214 -0.6678
18888TIP3    H278156   4.967   2.574   2.693  0.1557  0.2473  0.2617
18889TIP3   OH278157   3.838   1.507   3.473  0.1953 -0.5957 -0.0650
18889TIP3    H178158   3.763   1.447   3.468  0.3804 -0.7681 -1.1690
18889TIP3    H278159   3.861   1.509   3.566 -0.6053 -1.2471  0.1666
18890TIP3   OH278160   2.604   3.166  14.228  0.5782  0.5063  0.0530
18890TIP3    H178161   2.559   3.155  14.145  0.7896 -0.3299  0.0401
18890TIP3    H278162   2.538   3.206  14.286  0.4029  1.0027 -0.4751
18891TIP3   OH278163   0.027   1.175   2.022 -0.2526  0.0275  0.4882
18891TIP3    H178164  -0.032   1.215   1.958  0.5751  0.6750  0.1165
18891TIP3    H278165   0.012   1.225   2.103  1.6226  1.9748 -0.2648
18892TIP3   OH278166   5.932   4.447  16.161 -0.7993 -0.3336  0.3615
18892TIP3    H178167   5.903   4.400  16.083 -0.9181  0.1346  0.1218
18892TIP3    H278168   5.875   4.416  16.231 -1.5131  0.1722  0.0077
18893TIP3   OH278169   3.211   5.691   2.881 -0.2148  0.3290  0.2355
18893TIP3    H178170   3.180   5.702   2.971 -1.7779  1.4491 -0.3934
18893TIP3    H278171   3.307   5.687   2.889 -0.3537 -3.4314  2.2895
18894TIP3   OH278172   6.574   2.935  12.963  0.0332  0.0926  0.1798
18894TIP3    H178173   6.577   2.953  12.869  0.3711 -1.4732 -0.1375
18894TIP3    H278174   6.646   2.874  12.978  1.4512  2.0104  1.8844
18895TIP3   OH278175   0.407   6.286  13.678 -0.5441  0.4118 -0.1938
18895TIP3    H178176   0.387   6.273  13.585 -0.3413  0.6578 -0.2730
18895TIP3    H278177   0.443   6.375  13.682 -1.8166  0.9119  0.3348
18896TIP3   OH278178   6.394   2.848   6.080 -0.2969 -0.8284  0.5387
18896TIP3    H178179   6.488   2.861   6.065 -0.2801 -2.6880 -1.4886
18896TIP3    H278180   6.373   2.908   6.151  1.9271  1.3839 -0.5105
18897TIP3   OH278181   1.010   5.202  16.527  0.1072  0.9409 -0.5006
18897TIP3    H178182   1.046   5.115  16.544  0.6159  1.0433 -1.0412
18897TIP3    H278183   1.084   5.262  16.540 -0.5260  1.4342  1.1226
18898TIP3   OH278184   6.365   3.931  15.287 -0.6172 -0.4794 -0.0049
18898TIP3    H178185   6.376   3.991  15.212 -0.7554 -0.0852  0.2866
18898TIP3    H278186   6.424   3.858  15.268  0.2404  0.1760  0.0657
18899TIP3   OH278187   0.551   0.037  13.488 -0.4178  0.1011 -0.1525
18899TIP3    H178188   0.618  -0.031  13.492  0.0379  0.5816  0.6472
18899TIP3    H278189   0.555   0.080  13.574  0.4428  2.2212 -1.1802
18900TIP3   OH278190   1.757   4.217  16.118  0.7453  0.0917  0.5451
18900TIP3    H178191   1.665   4.197  16.134  1.1286 -1.9657  0.4098
18900TIP3    H278192   1.764   4.311  16.135 -0.8538 -0.1462  3.1242
18901TIP3   OH278193   4.738   3.247  14.281  0.6728 -0.0082  0.8454
18901TIP3    H178194   4.712   3.221  14.369  2.9860 -0.7483  1.3944
18901TIP3    H278195   4.706   3.336  14.272  0.1578 -0.0076  2.3404
18902TIP3   OH278196   2.573   0.708   4.354 -0.1855  0.1037  0.1428
18902TIP3    H178197   2.635   0.750   4.414 -0.4759  1.5638 -0.5253
18902TIP3    H278198   2.512   0.661   4.411  0.4017  0.2524  0.9090
18903TIP3   OH278199   0.339   0.990   1.095 -0.2020 -0.3354  0.2384
18903TIP3    H178200   0.340   0.911   1.148 -0.4639  0.3167  1.2304
18903TIP3    H278201   0.297   1.056   1.150  1.8145  1.0568  0.2460
18904TIP3   OH278202   6.652   4.679  12.267 -0.1690 -0.4567 -0.6253
18904TIP3    H178203   6.621   4.754  12.216 -3.2449  1.1342  3.0805
18904TIP3    H278204   6.600   4.605  12.233  0.7235 -0.3650 -2.3103
18905TIP3   OH278205   3.010   3.810   3.477  0.0166  0.7933 -0.1277
18905TIP3    H178206   2.948   3.879   3.453 -1.1334  0.3568  1.4430
18905TIP3    H278207   3.063   3.797   3.398  0.9295  4.1088 -0.1992
18906TIP3   OH278208   3.808   6.785  12.932  0.0333 -0.1557 -0.3195
18906TIP3    H178209   3.842   6.805  12.845 -0.1041  0.3125 -0.2712
18906TIP3    H278210   3.814   6.869  12.979  1.5319 -0.7264  0.5956
18907TIP3   OH278211   4.623   2.237  16.692  0.5324 -0.1367 -0.0386
18907TIP3    H178212   4.590   2.320  16.727  0.9183  0.9240 -2.0129
18907TIP3    H278213   4.614   2.246  16.597 -0.9585 -3.0532 -0.2834
18908TIP3   OH278214   0.906   6.200  16.764  0.1231 -0.3682  0.1207
18908TIP3    H178215   0.832   6.145  16.790 -0.6271 -0.1334 -1.4047
18908TIP3    H278216   0.904   6.273  16.826 -1.3529 -0.0283 -0.2876
18909TIP3   OH278217   5.178   4.922   3.229  0.0585 -0.3715 -0.2676
18909TIP3    H178218   5.245   4.862   3.197  1.3981  0.9483 -0.0659
18909TIP3    H278219   5.222   4.973   3.297 -0.5736  1.7277 -1.3276
18910TIP3   OH278220   3.415   3.246   0.698 -0.0795  0.4954  0.5355
18910TIP3    H178221   3.379   3.302   0.629 -0.9968  0.1728  0.7445
18910TIP3    H278222   3.504   3.279   0.711 -0.1679  1.0729 -0.2444
18911TIP3   OH278223   3.136   5.436   2.828 -0.4814 -0.0057 -0.1305
18911TIP3    H178224   3.058   5.440   2.772 -1.4393  0.0910  1.1596
18911TIP3    H278225   3.177   5.521   2.818 -1.1614  0.3480  0.0197
18912TIP3   OH278226   1.078   4.953  16.165  0.2001  0.1630  0.0827
18912TIP3    H178227   1.055   4.869  16.205  0.2074 -0.3544 -0.9574
18912TIP3    H278228   1.127   4.928  16.086 -0.4649  1.1278 -0.6508
18913TIP3   OH278229   6.612   4.125   5.437 -0.1659 -0.7026  0.5270
18913TIP3    H178230   6.523   4.132   5.471  0.6039 -0.3979  2.5933
18913TIP3    H278231   6.658   4.070   5.500  1.1099 -0.9506 -0.5593
18914TIP3   OH278232   5.835   1.748  16.016  0.0315 -0.5190  0.8290
18914TIP3    H178233   5.821   1.781  15.928 -0.8303 -3.0141 -0.0535
18914TIP3    H278234   5.775   1.798  16.071  1.0626  1.5295  0.1820
18915TIP3   OH278235   1.203   1.987   5.039 -0.4792 -0.0844 -0.6091
18915TIP3    H178236   1.209   1.992   4.944  1.0774  1.1873 -0.4847
18915TIP3    H278237   1.274   1.929   5.065  0.3224  1.0654 -0.1362
18916TIP3   OH278238   6.043   5.054  10.920 -0.0577 -0.3300  0.3720
18916TIP3    H178239   6.039   5.071  11.014 -0.1456 -2.4123  0.7894
18916TIP3    H278240   6.014   4.964  10.911  2.4789 -1.0905 -1.3674
18917TIP3   OH278241   3.552   0.566  10.559 -0.1525  0.1012 -0.1290
18917TIP3    H178242   3.622   0.576  10.623  0.5932  1.7699 -1.1303
18917TIP3    H278243   3.573   0.487  10.510 -0.2540 -0.6917  1.0791
18918TIP3   OH278244   0.221   0.166  15.915 -0.9959 -0.0986  0.1899
18918TIP3    H178245   0.302   0.218  15.908 -0.5936 -0.1112  3.3898
18918TIP3    H278246   0.248   0.078  15.889 -0.0606 -0.0087  0.7876
18919TIP3   OH278247   0.091   1.448  14.141 -0.2700 -0.1595 -0.0894
18919TIP3    H178248   0.021   1.488  14.193 -1.6334 -1.5306 -0.7765
18919TIP3    H278249   0.049   1.426  14.058  1.2034 -0.2972 -0.8223
18920TIP3   OH278250   1.631   5.064  12.795 -0.0190  0.3148  0.1880
18920TIP3    H178251   1.721   5.057  12.824  0.4373  0.2252 -1.1697
18920TIP3    H278252   1.620   5.156  12.773 -0.4997  0.4732  1.0365
18921TIP3   OH278253   2.420   0.723   5.450 -0.5456 -0.3299  0.1417
18921TIP3    H178254   2.437   0.807   5.406 -0.1965 -1.6658 -2.4454
18921TIP3    H278255   2.427   0.744   5.543  0.7968  2.2449 -0.4315
18922TIP3   OH278256   0.517   6.314  16.137  0.1531  0.1390  0.0897
18922TIP3    H178257   0.530   6.406  16.159 -0.0409 -0.0964  1.2741
18922TIP3    H278258   0.449   6.314  16.069  1.0695  0.9294 -0.8581
18923TIP3   OH278259   3.376   2.622   4.680 -0.1293 -0.3293 -0.3778
18923TIP3    H178260   3.443   2.672   4.727 -1.6181 -1.4890  3.3292
18923TIP3    H278261   3.424   2.552   4.636  1.3435  0.6290 -0.3459
18924TIP3   OH278262   5.961   3.084   5.360  0.3086  0.1326  0.4123
18924TIP3    H178263   5.929   3.170   5.333  1.4946  0.2222 -0.7750
18924TIP3    H278264   5.952   3.029   5.282 -0.0464 -0.7299  1.0359
18925TIP3   OH278265   4.556   1.237   5.181 -0.1356 -0.1368  0.1982
18925TIP3    H178266   4.555   1.164   5.243  0.1400  0.2984  0.7315
18925TIP3    H278267   4.649   1.261   5.175 -0.2485  0.2916  0.1757
18926TIP3   OH278268   0.326   5.514  11.117 -0.4636 -0.5251  0.3193
18926TIP3    H178269   0.238   5.509  11.153 -0.8880 -0.3129 -0.6638
18926TIP3    H278270   0.383   5.517  11.194 -1.2687 -1.2853  0.9690
18927TIP3   OH278271   6.656   3.656  16.061 -0.0906 -0.0098 -0.1290
18927TIP3    H178272   6.634   3.695  15.976 -0.8997  0.2097  0.1771
18927TIP3    H278273   6.750   3.670  16.069  0.0636 -0.3272 -1.1401
18928TIP3   OH278274   0.035   6.291   1.288  0.6944  0.1532  0.4795
18928TIP3    H178275   0.023   6.378   1.252  1.6403  0.0349 -0.1546
18928TIP3    H278276   0.085   6.305   1.369 -1.2009  0.3924  1.6826
18929TIP3   OH278277   0.200   2.409   5.001 -0.4621 -0.4868 -0.5597
18929TIP3    H178278   0.266   2.343   4.981  0.5362  0.5088 -0.6108
18929TIP3    H278279   0.229   2.448   5.084 -1.1830 -0.2856 -0.3931
18930TIP3   OH278280   1.184   5.151  17.009 -0.4625 -0.5826 -0.3164
18930TIP3    H178281   1.267   5.141  16.962 -1.5211 -1.3344 -2.1626
18930TIP3    H278282   1.168   5.064  17.046 -0.7958 -0.6634 -0.6452
18931TIP3   OH278283   5.013   3.733   1.259 -0.9685  0.0650 -0.0480
18931TIP3    H178284   5.002   3.674   1.334 -0.4791  0.5251  0.3875
18931TIP3    H278285   5.006   3.675   1.183  1.4522 -0.9374  0.3817
18932TIP3   OH278286   0.044   5.773  11.182  0.3256  0.2291 -0.0711
18932TIP3    H178287   0.030   5.791  11.089 -0.1864 -1.6187 -0.4012
18932TIP3    H278288   0.008   5.685  11.195  1.6150 -0.1124  1.5721
18933TIP3   OH278289   0.212   3.929  15.348  0.0563 -0.1340  0.2384
18933TIP3    H178290   0.127   3.925  15.304  0.7044  0.0496 -1.1063
18933TIP3    H278291   0.271   3.879  15.291  0.6311 -1.2514  1.7377
18934TIP3   OH278292   1.880   4.765  11.493 -0.4162  0.5379 -0.3987
18934TIP3    H178293   1.840   4.719  11.567  1.5721 -1.7791 -0.6575
18934TIP3    H278294   1.876   4.702  11.421  1.4934  1.1316 -1.0733
18935TIP3   OH278295   6.294   4.945   0.870  0.2305 -0.5867  0.1152
18935TIP3    H178296   6.221   4.896   0.906  0.0587 -0.8732 -0.6000
18935TIP3    H278297   6.354   4.878   0.837 -0.8195 -0.3720 -2.4956
18936TIP3   OH278298   4.313   4.547  11.979 -0.3714  0.0103  0.3825
18936TIP3    H178299   4.372   4.482  12.017 -0.8019 -1.4579 -1.3296
18936TIP3    H278300   4.363   4.628  11.979  1.4820 -1.0618 -0.5184
18937TIP3   OH278301   4.564   5.908   1.171  0.3048  0.2638 -0.8046
18937TIP3    H178302   4.548   5.843   1.240  0.8093 -2.4639 -3.0517
18937TIP3    H278303   4.659   5.911   1.163  0.2331 -0.4374 -2.1809
18938TIP3   OH278304   2.060   4.800  16.588  0.1121  0.5474  0.1417
18938TIP3    H178305   1.987   4.816  16.649  0.1614 -0.6687  0.5510
18938TIP3    H278306   2.138   4.800  16.644  0.4886  2.1343 -0.3380
18939TIP3   OH278307   3.532   1.319   6.125  0.6315  0.3956  0.4502
18939TIP3    H178308   3.566   1.321   6.215 -0.8779  1.7209  1.0468
18939TIP3    H278309   3.571   1.395   6.083  1.1956 -0.1244  0.0210
18940TIP3   OH278310   5.945   1.681   6.101 -0.2149 -0.3216  0.3388
18940TIP3    H178311   5.926   1.756   6.158 -2.0970 -0.2187 -0.3678
18940TIP3    H278312   5.865   1.667   6.051  0.9385 -1.2258 -1.3783
18941TIP3   OH278313   0.842   4.356  10.151 -0.1526 -0.1035 -0.3458
18941TIP3    H178314   0.823   4.417  10.079  1.5827 -0.4287 -1.1363
18941TIP3    H278315   0.795   4.276  10.129 -0.9335  0.3338 -0.2771
18942TIP3   OH278316   3.849   3.180   2.408  0.6634 -0.1497  0.7368
18942TIP3    H178317   3.890   3.129   2.339  0.0311  0.3280 -0.0109
18942TIP3    H278318   3.832   3.265   2.368 -1.5131 -0.4924  0.8302
18943TIP3   OH278319   5.901   2.928   4.358 -0.2192  0.6470 -0.1668
18943TIP3    H178320   5.824   2.925   4.301 -1.4800 -2.1239  1.4417
18943TIP3    H278321   5.867   2.960   4.442  0.2696 -0.7769  0.6141
18944TIP3   OH278322   1.850   4.520   5.080  0.3604 -0.2510 -0.2911
18944TIP3    H178323   1.945   4.525   5.087  0.2819  0.9517  0.0623
18944TIP3    H278324   1.831   4.547   4.990  0.3259  0.0776 -0.1885
18945TIP3   OH278325   2.859   4.325  13.492 -0.2066 -0.3779  0.4258
18945TIP3    H178326   2.917   4.249  13.478 -1.1614 -1.3540  1.4961
18945TIP3    H278327   2.903   4.397  13.447  1.7195 -1.1284  0.9888
18946TIP3   OH278328   2.540   0.581  11.123  0.0982 -0.3939  0.3584
18946TIP3    H178329   2.463   0.637  11.113  0.0828 -0.5053 -0.1468
18946TIP3    H278330   2.577   0.606  11.208 -0.0538  0.2005  0.2507
18947TIP3   OH278331   5.409   0.527   0.285  0.0874 -0.2889  0.5495
18947TIP3    H178332   5.400   0.432   0.291  0.2717 -0.2682  1.2250
18947TIP3    H278333   5.414   0.557   0.375 -1.4852  0.5175  0.3970
18948TIP3   OH278334   4.265   2.875  10.702  0.0261  0.4401 -0.3365
18948TIP3    H178335   4.267   2.786  10.667 -0.7777  0.5835 -0.7802
18948TIP3    H278336   4.354   2.908  10.689 -0.1616  0.3677 -1.9525
18949TIP3   OH278337   5.450   2.518   2.321  0.4642  0.3292 -0.1467
18949TIP3    H178338   5.379   2.521   2.257 -0.8357 -0.4755  1.1647
18949TIP3    H278339   5.467   2.424   2.333  0.9586  0.4784  0.3643
18950TIP3   OH278340   6.365   3.916  13.742  0.1415  0.0854  0.7286
18950TIP3    H178341   6.394   3.868  13.664  0.0188 -0.7791  1.2010
18950TIP3    H278342   6.446   3.949  13.782  0.3079 -0.5262  0.9032
18951TIP3   OH278343   5.698   4.241  12.180 -0.6585 -0.1514  0.8810
18951TIP3    H178344   5.621   4.296  12.168 -0.9818 -1.1281 -3.1565
18951TIP3    H278345   5.771   4.303  12.184 -1.1767  0.8020 -1.8263
18952TIP3   OH278346   6.376   2.302   1.587 -0.5230  0.0880 -0.6754
18952TIP3    H178347   6.417   2.275   1.505 -1.2032 -0.4917 -0.8371
18952TIP3    H278348   6.332   2.384   1.566 -0.6859 -0.0531 -0.8893
18953TIP3   OH278349   4.882   6.293  16.514  0.5892 -0.1502  0.0924
18953TIP3    H178350   4.890   6.384  16.486  0.3237  0.5289  2.0435
18953TIP3    H278351   4.909   6.241  16.438  1.9487  1.5728 -0.6587
18954TIP3   OH278352   0.224   2.608  13.052  0.0105  0.2029 -0.3238
18954TIP3    H178353   0.156   2.588  12.987 -0.8340 -0.9147  0.8604
18954TIP3    H278354   0.306   2.595  13.005 -0.5652  1.3416 -1.7151
18955TIP3   OH278355   3.533   1.644  16.544  0.3247  0.3087 -0.1615
18955TIP3    H178356   3.513   1.571  16.486  1.2436 -0.6226  0.6574
18955TIP3    H278357   3.626   1.663  16.528  0.1142  1.2782 -0.3270
18956TIP3   OH278358   5.633   5.548  14.628  0.1831  0.6526  0.0650
18956TIP3    H178359   5.591   5.470  14.592  1.1144  1.1096 -2.1503
18956TIP3    H278360   5.563   5.595  14.672 -0.3911 -1.4331  1.5262
18957TIP3   OH278361   0.185   3.212   1.727 -0.4533 -0.0180 -0.3696
18957TIP3    H178362   0.265   3.258   1.704 -1.6195  1.1928 -2.2930
18957TIP3    H278363   0.131   3.215   1.648 -1.4599 -2.9296  0.0759
18958TIP3   OH278364   0.284   0.069   2.142 -0.2038  0.5010  0.0541
18958TIP3    H178365   0.337   0.139   2.181 -1.5006  0.5444  1.8443
18958TIP3    H278366   0.260   0.013   2.216 -1.8344 -0.0489 -0.8455
18959TIP3   OH278367   3.425   4.364   4.379  0.7093 -0.1296  0.0689
18959TIP3    H178368   3.407   4.421   4.304 -2.7977 -0.4296  0.5511
18959TIP3    H278369   3.461   4.424   4.445 -0.8787  1.1951 -0.1832
18960TIP3   OH278370   0.135   1.399  15.795 -0.8305 -0.2208  0.3451
18960TIP3    H178371   0.092   1.371  15.875 -0.2664 -1.2758  0.3008
18960TIP3    H278372   0.179   1.480  15.818  0.3449 -1.1461  1.4713
18961TIP3   OH278373   3.880   5.356   4.331  0.0731  0.3257  0.0354
18961TIP3    H178374   3.802   5.374   4.383 -0.3876 -0.7029 -0.2663
18961TIP3    H278375   3.952   5.366   4.393 -0.5501 -2.4206  1.3950
18962TIP3   OH278376   0.320   6.700   4.025  0.5298  0.0145 -0.2545
18962TIP3    H178377   0.406   6.698   4.067  0.4679 -0.1140 -0.1320
18962TIP3    H278378   0.300   6.608   4.007  1.6348  0.1911 -2.7925
18963TIP3   OH278379   3.320   3.607   0.542  0.1765  0.3356  0.8132
18963TIP3    H178380   3.279   3.693   0.532 -1.0286 -0.2872  0.2288
18963TIP3    H278381   3.253   3.553   0.584 -0.1096 -1.0522 -1.2924
18964TIP3   OH278382   6.298   4.164   2.881 -0.2604  0.0688  0.2791
18964TIP3    H178383   6.248   4.144   2.960 -0.3707  0.3975  0.2919
18964TIP3    H278384   6.271   4.096   2.819  0.0937 -0.4094  0.6328
18965TIP3   OH278385   6.833   2.549   3.584 -0.1018 -0.0284  0.6379
18965TIP3    H178386   6.874   2.540   3.498  0.0378  1.2969  0.5418
18965TIP3    H278387   6.899   2.592   3.638 -0.2818 -0.6226  1.3461
18966TIP3   OH278388   1.102   6.774   0.861  0.0683 -0.5083  0.0490
18966TIP3    H178389   1.120   6.691   0.907  0.7114 -1.0395 -1.1321
18966TIP3    H278390   1.171   6.781   0.796 -1.2273 -0.1397 -1.3403
18967TIP3   OH278391   2.460   0.767  16.353  0.7314 -0.3153 -0.7282
18967TIP3    H178392   2.553   0.749  16.346  0.2519 -2.4040 -3.3236
18967TIP3    H278393   2.424   0.743  16.267 -2.3317 -0.5548  0.4837
18968TIP3   OH278394   2.178   0.195   4.882  0.6442  0.1907  0.3652
18968TIP3    H178395   2.179   0.281   4.840  1.4857  0.6314  1.2565
18968TIP3    H278396   2.242   0.144   4.833 -0.1717 -0.0963 -0.4485
18969TIP3   OH278397   6.630   4.331  16.557 -0.2328  0.1885  0.3457
18969TIP3    H178398   6.585   4.318  16.640  0.5215  0.4189  0.8022
18969TIP3    H278399   6.718   4.359  16.581  0.3717 -0.8616 -0.4975
18970TIP3   OH278400   0.034   0.053   5.698 -1.0096  0.2434 -0.4250
18970TIP3    H178401   0.101  -0.015   5.708 -0.1666  0.6667 -2.5202
18970TIP3    H278402   0.015   0.053   5.604 -0.4953  3.3031 -0.6420
18971TIP3   OH278403   6.215   1.069  11.624  0.2583 -0.0025 -0.3179
18971TIP3    H178404   6.216   1.106  11.713  0.9829  0.9186 -0.6898
18971TIP3    H278405   6.176   0.982  11.635 -0.6476  0.5107  0.7341
18972TIP3   OH278406   2.060   2.272   5.579  0.1276 -0.2540 -0.0891
18972TIP3    H178407   2.122   2.279   5.651 -1.7662  1.1233  1.5104
18972TIP3    H278408   1.982   2.318   5.609 -1.0763 -0.3852 -2.6939
18973TIP3   OH278409   0.072   2.173   5.194  0.4858 -0.1682 -0.5861
18973TIP3    H178410   0.157   2.181   5.237  0.3520  1.3564 -0.5548
18973TIP3    H278411   0.026   2.106   5.245  0.0580  2.0514  2.2314
18974TIP3   OH278412   0.331   0.343  13.486  0.3130 -0.5664 -0.3173
18974TIP3    H178413   0.311   0.339  13.393  0.7808 -0.3995 -0.4267
18974TIP3    H278414   0.400   0.409  13.494 -0.8177  0.5727  0.3447
18975TIP3   OH278415   3.308   6.121  12.254  0.4890 -0.0494  0.1219
18975TIP3    H178416   3.266   6.167  12.182  0.8274 -0.2373 -0.1976
18975TIP3    H278417   3.394   6.094  12.220  0.5912 -0.2732  0.5395
18976TIP3   OH278418   5.314   1.135   5.114 -0.4076 -0.2173  0.4673
18976TIP3    H178419   5.337   1.227   5.102 -0.4745 -0.3309 -0.5942
18976TIP3    H278420   5.377   1.103   5.179  0.5822  0.2083 -0.2528
18977TIP3   OH278421   4.147   0.564   3.345  0.3059  0.0255 -0.2462
18977TIP3    H178422   4.217   0.524   3.292  1.1010  1.2778 -0.1809
18977TIP3    H278423   4.093   0.610   3.281  0.0130 -0.2456 -0.1967
18978TIP3   OH278424   1.948   0.752  11.839  0.3502 -0.4943 -0.0341
18978TIP3    H178425   2.037   0.773  11.809 -0.2707  0.3883 -1.3766
18978TIP3    H278426   1.941   0.793  11.925  1.6509 -1.6680  0.6707
18979TIP3   OH278427   2.517   5.234   4.757 -0.0203 -0.5566  0.4395
18979TIP3    H178428   2.571   5.221   4.835 -3.0014  0.4161  2.8815
18979TIP3    H278429   2.490   5.146   4.731 -0.0671 -0.8225  1.3603
18980TIP3   OH278430   0.064   4.847  14.845  0.1509 -0.5098  0.1780
18980TIP3    H178431   0.091   4.759  14.873 -0.2749 -1.2248 -1.4912
18980TIP3    H278432  -0.031   4.844  14.848  0.1302 -0.2084 -0.1958
18981TIP3   OH278433   0.820   3.412  16.100  0.5177 -0.3995  0.5698
18981TIP3    H178434   0.868   3.466  16.163  0.4425 -0.6055  0.8060
18981TIP3    H278435   0.882   3.401  16.027 -0.1834  1.6730 -0.4078
18982TIP3   OH278436   0.095   0.984   0.478  0.8944 -0.2548 -0.8145
18982TIP3    H178437   0.021   0.975   0.418 -0.8779 -0.0169  1.2016
18982TIP3    H278438   0.112   0.895   0.508  0.7306 -0.1977 -0.5395
18983TIP3   OH278439   6.405   0.009   2.570 -0.3329  0.4254 -0.1320
18983TIP3    H178440   6.402  -0.047   2.647  2.4528  2.8341  1.9904
18983TIP3    H278441   6.470  -0.032   2.513 -1.0838 -0.4339 -0.3837
18984TIP3   OH278442   6.293   3.185   1.207  0.1610  0.3652 -0.6571
18984TIP3    H178443   6.296   3.102   1.160  1.0216  1.1453 -2.0529
18984TIP3    H278444   6.384   3.203   1.230 -0.1253  0.5167  0.3878
18985TIP3   OH278445   3.700   0.821  12.182  0.4272  0.1603  0.1672
18985TIP3    H178446   3.659   0.864  12.108 -0.1614  0.7105  0.7940
18985TIP3    H278447   3.627   0.786  12.233  0.8451 -0.5853  0.2635
18986TIP3   OH278448   2.571   1.436   4.638 -0.0463 -0.1359  0.1749
18986TIP3    H178449   2.521   1.493   4.579 -1.1373 -1.1446  0.1078
18986TIP3    H278450   2.650   1.414   4.588  0.3480  1.2153  0.1654
18987TIP3   OH278451   6.150   6.568  12.702 -0.0034 -0.2018 -0.1802
18987TIP3    H178452   6.211   6.637  12.729 -0.7012  0.6691 -0.7489
18987TIP3    H278453   6.136   6.585  12.609  0.6580 -1.7967 -0.6069
18988TIP3   OH278454   2.339   0.598  16.537  0.1135 -0.7442 -0.1815
18988TIP3    H178455   2.285   0.659  16.586  0.0944 -0.9316  0.0328
18988TIP3    H278456   2.364   0.646  16.458  0.0669 -0.4735 -0.0337
18989TIP3   OH278457   2.467   0.465   0.707  0.1391 -0.2239 -0.0084
18989TIP3    H178458   2.478   0.377   0.670 -1.1569  0.3054 -1.8408
18989TIP3    H278459   2.408   0.509   0.645 -0.3066  1.5110  1.5631
18990TIP3   OH278460   0.609   4.783  14.716  0.0803 -0.3423 -0.0900
18990TIP3    H178461   0.571   4.773  14.803 -2.6413  0.1308 -1.1045
18990TIP3    H278462   0.620   4.694  14.684 -0.2150 -0.4919  0.2214
18991TIP3   OH278463   1.489   3.678  16.666 -0.6494  1.0737 -0.3455
18991TIP3    H178464   1.575   3.715  16.685 -0.1489  1.6908 -3.3486
18991TIP3    H278465   1.501   3.584  16.680  0.4025  1.1966 -0.3137
18992TIP3   OH278466   4.630   1.853  11.742 -0.1481 -0.5948  0.0443
18992TIP3    H178467   4.538   1.850  11.717 -0.0725  1.4283 -0.6926
18992TIP3    H278468   4.672   1.901  11.671  1.3402 -0.7564  0.7736
18993TIP3   OH278469   1.305   3.200  11.387  0.0041  0.1701 -0.3943
18993TIP3    H178470   1.240   3.235  11.448  0.7509  1.8136 -0.4893
18993TIP3    H278471   1.319   3.271  11.323  0.9419 -0.6351 -1.1188
18994TIP3   OH278472   5.885   5.899   1.615 -0.3295  0.1010 -0.4750
18994TIP3    H178473   5.815   5.962   1.631 -0.6187 -0.3152 -0.0592
18994TIP3    H278474   5.963   5.953   1.600 -0.7990  0.5659 -1.2475
18995TIP3   OH278475   6.425   5.847  13.110  0.0180  0.0764  0.0691
18995TIP3    H178476   6.350   5.802  13.149 -1.2957  3.3154  1.5902
18995TIP3    H278477   6.460   5.901  13.180  1.0321  1.9426 -1.7767
18996TIP3   OH278478   3.679   1.053   5.309 -0.1609  0.7825  0.2001
18996TIP3    H178479   3.701   1.028   5.219 -1.1648  2.0059 -0.4105
18996TIP3    H278480   3.606   1.115   5.300 -0.2546  0.9561  1.8554
18997TIP3   OH278481   3.866   3.743   4.806 -0.5604 -0.3079 -0.0796
18997TIP3    H178482   3.911   3.773   4.727 -1.1573 -2.9157 -1.5361
18997TIP3    H278483   3.851   3.650   4.790 -2.0536 -0.5820  2.5030
18998TIP3   OH278484   6.124   4.210   0.998  0.2160 -0.5535  0.0659
18998TIP3    H178485   6.129   4.255   0.914  0.4220 -0.6200  0.0419
18998TIP3    H278486   6.031   4.209   1.020  0.2978  0.7575  0.5419
18999TIP3   OH278487   2.098   2.255   4.057  0.0526 -0.0860 -0.4745
18999TIP3    H178488   2.097   2.290   4.146  0.7726 -1.5721  0.1596
18999TIP3    H278489   2.021   2.199   4.052  0.1765 -0.2440 -0.6727
19000TIP3   OH278490   6.595   1.327  12.268  0.2310  0.3256 -0.4869
19000TIP3    H178491   6.603   1.246  12.319  0.3006 -0.3897 -1.5961
19000TIP3    H278492   6.685   1.347  12.241  0.3316  1.2490  0.4628
19001TIP3   OH278493   4.631   1.712  16.060  0.5871  0.0470 -0.0791
19001TIP3    H178494   4.661   1.644  15.999 -0.0440 -1.5012  1.2808
19001TIP3    H278495   4.552   1.747  16.020 -0.5250 -1.8194  0.3856
19002TIP3   OH278496   1.295   2.370  14.058 -0.1971 -0.4965  0.3092
19002TIP3    H178497   1.344   2.361  13.977  1.2602 -0.7518  1.1889
19002TIP3    H278498   1.328   2.451  14.097 -2.6900  1.0471 -0.5044
19003TIP3   OH278499   0.698   6.451   1.157 -0.2239  0.2690 -0.2193
19003TIP3    H178500   0.734   6.530   1.116 -0.3538 -0.6050 -2.1288
19003TIP3    H278501   0.756   6.380   1.128  1.3762 -0.1271  3.4411
19004TIP3   OH278502   4.970   3.412   2.480  0.2883  0.4870 -0.1492
19004TIP3    H178503   4.906   3.358   2.434 -1.6361  2.6919 -0.1991
19004TIP3    H278504   5.032   3.439   2.411 -0.9291  1.4263 -0.9089
19005TIP3   OH278505   3.802   0.495   3.082  0.0246  0.5053  0.1556
19005TIP3    H178506   3.771   0.548   3.155 -1.5315 -0.0250 -0.0921
19005TIP3    H278507   3.859   0.430   3.123 -0.1537  0.7346  0.7829
19006TIP3   OH278508   0.696   5.712  11.177  0.2144  0.0005 -0.0605
19006TIP3    H178509   0.689   5.622  11.146 -0.2885  0.3396 -0.9852
19006TIP3    H278510   0.754   5.755  11.113  1.7804 -0.0411  1.2766
19007TIP3   OH278511   4.086   1.081   5.046 -0.1041  0.1492  0.3596
19007TIP3    H178512   4.139   1.139   5.100  0.4912  1.9283 -1.9674
19007TIP3    H278513   4.006   1.131   5.028 -0.7742 -0.8475  0.4675
19008TIP3   OH278514   0.584   4.069  10.378  0.4913  0.3424 -0.1079
19008TIP3    H178515   0.560   3.979  10.403  0.4054  0.1557 -0.8386
19008TIP3    H278516   0.654   4.058  10.314  0.3091  0.7869 -0.3894
19009TIP3   OH278517   3.849   5.837   4.767  0.8373  0.1315 -0.1791
19009TIP3    H178518   3.804   5.754   4.784  1.2273 -0.0094  0.1777
19009TIP3    H278519   3.802   5.901   4.820 -0.0602  0.3234 -1.1805
19010TIP3   OH278520   3.329   4.169   0.964  0.0521  0.3133  0.2895
19010TIP3    H178521   3.244   4.177   1.007  0.0205 -1.0470  0.5089
19010TIP3    H278522   3.313   4.200   0.875 -0.5152  0.6847  0.5123
19011TIP3   OH278523   6.069   0.285   0.368 -0.2114 -0.1414  0.4059
19011TIP3    H178524   6.118   0.318   0.292  0.1468 -1.0126  0.2554
19011TIP3    H278525   6.111   0.328   0.443 -0.7440  0.9398  0.1117
19012TIP3   OH278526   1.575   3.017  16.381 -0.4900  0.0431 -0.6048
19012TIP3    H178527   1.605   3.061  16.461 -2.0200 -1.0447  0.6322
19012TIP3    H278528   1.652   3.012  16.326  0.1660  2.6063 -0.0419
19013TIP3   OH278529   5.468   4.048  11.807  0.0559 -0.7196  0.0622
19013TIP3    H178530   5.503   4.137  11.798  1.1995 -1.1675 -0.1960
19013TIP3    H278531   5.543   3.997  11.839 -0.9456 -1.3411  1.4815
19014TIP3   OH278532   0.456   4.170   1.570 -0.6531 -0.5129 -0.1599
19014TIP3    H178533   0.425   4.111   1.639  0.3779  0.6035  1.3059
19014TIP3    H278534   0.538   4.131   1.540 -1.6529 -1.6152 -1.6314
19015TIP3   OH278535   2.052   6.113  12.246 -0.5401  0.1102 -0.2447
19015TIP3    H178536   2.039   6.022  12.220  1.8285 -1.0691  2.1506
19015TIP3    H278537   2.142   6.133  12.221 -0.1561  0.8562  1.5170
19016TIP3   OH278538   0.405   0.111   3.944 -0.2685  0.7201 -0.2749
19016TIP3    H178539   0.447   0.151   4.020 -1.1897  0.7038  0.2593
19016TIP3    H278540   0.378   0.024   3.973 -1.7544  1.1726 -0.1953
19017TIP3   OH278541   5.626   2.809   3.646  0.7341 -0.0476 -0.2232
19017TIP3    H178542   5.532   2.818   3.664  1.0355  0.8594  1.0581
19017TIP3    H278543   5.651   2.893   3.607  1.3760  0.5015  1.2927
19018TIP3   OH278544   2.657   0.625  15.561 -0.2980  0.0112  0.0634
19018TIP3    H178545   2.720   0.608  15.631  2.0706  0.4458 -1.7815
19018TIP3    H278546   2.643   0.539  15.520 -1.9565 -0.3055  1.2244
19019TIP3   OH278547   4.594   5.475  10.937 -0.7199 -0.1881  0.1804
19019TIP3    H178548   4.680   5.497  10.901 -1.4087  1.5808 -0.4478
19019TIP3    H278549   4.609   5.470  11.032 -0.1076  1.0487  0.1646
19020TIP3   OH278550   5.674   6.030   0.338  0.1490  0.0995  0.2649
19020TIP3    H178551   5.674   6.032   0.242  0.5267  0.5247  0.2694
19020TIP3    H278552   5.595   5.980   0.361 -2.0338  3.0327 -0.2170
19021TIP3   OH278553   1.322   5.406   3.232  0.4076  0.6746 -0.8201
19021TIP3    H178554   1.247   5.375   3.181  0.7049  1.1873 -1.5823
19021TIP3    H278555   1.339   5.494   3.198  1.1446  0.6861 -0.4240
19022TIP3   OH278556   1.126   4.519   5.388 -0.0963 -0.0303  0.1421
19022TIP3    H178557   1.195   4.548   5.328 -0.5832  1.2722  0.1819
19022TIP3    H278558   1.056   4.583   5.376 -0.6850 -0.4482  1.2381
19023TIP3   OH278559   1.881   2.287   4.758  0.0315 -0.0374 -0.0740
19023TIP3    H178560   1.926   2.372   4.760 -0.6476  0.4658 -2.7060
19023TIP3    H278561   1.949   2.224   4.779  0.9153  1.0395  0.4099
19024TIP3   OH278562   2.139   3.328   0.370  1.1124 -0.0914  0.6272
19024TIP3    H178563   2.205   3.397   0.370  0.1194  0.9019  0.9763
19024TIP3    H278564   2.100   3.332   0.457  1.3003 -1.3745  0.7828
19025TIP3   OH278565   0.575   4.751  10.822  0.1575  0.0134  0.5252
19025TIP3    H178566   0.543   4.690  10.889 -2.4220 -1.2351 -1.6202
19025TIP3    H278567   0.663   4.719  10.802 -0.1759 -1.4811  1.2279
19026TIP3   OH278568   6.244   1.438   6.279 -0.2141 -0.4641 -0.3722
19026TIP3    H178569   6.150   1.423   6.289 -0.3700  0.1735 -0.7990
19026TIP3    H278570   6.284   1.353   6.298 -0.9989 -1.2727 -2.1496
19027TIP3   OH278571   5.901   5.896  14.544  0.3600 -0.0798 -0.2876
19027TIP3    H178572   5.950   5.894  14.627  0.4685 -0.5581 -0.3639
19027TIP3    H278573   5.859   5.982  14.544  0.9443  0.2119 -0.0696
19028TIP3   OH278574   0.437   2.381   5.888  0.4192 -0.3211 -0.1905
19028TIP3    H178575   0.487   2.345   5.815 -1.9171 -1.4081 -1.3783
19028TIP3    H278576   0.370   2.315   5.907 -0.8496  1.2033  0.9943
19029TIP3   OH278577   5.834   6.233  11.199 -0.2449 -0.0980  0.2107
19029TIP3    H178578   5.927   6.215  11.186  0.1062  1.2471  0.6466
19029TIP3    H278579   5.831   6.326  11.222 -1.7858  0.1047 -0.6661
19030TIP3   OH278580   5.004   5.502  13.153  0.3266 -0.0145  0.4841
19030TIP3    H178581   5.027   5.589  13.121  2.6623 -1.0454 -0.8791
19030TIP3    H278582   4.990   5.514  13.247 -2.9256  2.3962 -0.1279
19031TIP3   OH278583   2.672   4.491  11.246 -0.8174 -0.2894 -0.3913
19031TIP3    H178584   2.638   4.464  11.332 -0.5815 -0.7008 -0.4271
19031TIP3    H278585   2.614   4.563  11.220  0.3985  1.3259  1.0982
19032TIP3   OH278586   3.401   1.769  11.657  0.0041 -0.0631 -0.2054
19032TIP3    H178587   3.467   1.792  11.723 -0.4339 -0.8036  0.5099
19032TIP3    H278588   3.416   1.831  11.586 -0.1854  1.4373  1.0205
19033TIP3   OH278589   2.661   0.199  15.122 -0.3359 -0.1629 -0.1519
19033TIP3    H178590   2.721   0.225  15.053  0.4232 -1.6455 -0.0907
19033TIP3    H278591   2.603   0.275  15.134  1.6501  1.4029 -0.0484
19034TIP3   OH278592   1.238   6.840  11.792 -0.3313  0.3077  0.5250
19034TIP3    H178593   1.206   6.926  11.818 -0.0456  0.1864  1.3227
19034TIP3    H278594   1.167   6.780  11.816 -1.4023  0.4942 -1.8684
19035TIP3   OH278595   0.654   1.512   4.054 -0.1779  0.0996 -0.5939
19035TIP3    H178596   0.645   1.557   3.970  1.9200 -0.4664 -1.1696
19035TIP3    H278597   0.635   1.420   4.034  0.2583 -0.0256 -0.4362
19036TIP3   OH278598   1.299   1.561   0.039  0.0018  0.0979  0.0688
19036TIP3    H178599   1.274   1.557  -0.053  0.5912  0.3299 -0.1061
19036TIP3    H278600   1.325   1.653   0.053  3.5843 -0.6681 -0.5470
19037TIP3   OH278601   2.416   5.469  10.444  1.0742  0.3538 -0.1748
19037TIP3    H178602   2.427   5.400  10.378 -0.7758 -0.4221  0.2720
19037TIP3    H278603   2.503   5.508  10.453  1.7942 -0.8363 -1.6270
19038TIP3   OH278604   4.551   6.026   2.597  0.2736  0.0333  0.1682
19038TIP3    H178605   4.562   6.112   2.557  1.4410 -0.0692  0.2516
19038TIP3    H278606   4.615   6.023   2.668 -0.9876 -0.2207  1.3441
19039TIP3   OH278607   5.181   6.229  14.286 -0.8672  0.3579 -0.0242
19039TIP3    H178608   5.274   6.220  14.306 -1.0045 -0.8022  0.1787
19039TIP3    H278609   5.179   6.283  14.206 -0.1413  1.9010  0.9516
19040TIP3   OH278610   5.997   6.650  14.222  0.2469 -0.0912  0.4197
19040TIP3    H178611   5.963   6.678  14.307  1.1071  1.2305  0.3550
19040TIP3    H278612   5.957   6.710  14.159  3.8171  2.7078  0.4988
19041TIP3   OH278613   4.336   5.900  13.965 -0.1330  0.3344 -0.0636
19041TIP3    H178614   4.406   5.835  13.963  1.5143  1.9634  1.4152
19041TIP3    H278615   4.270   5.863  14.024  0.5480 -0.2272  0.3595
19042TIP3   OH278616   1.291   5.407  17.029  0.0995 -0.8250 -0.1820
19042TIP3    H178617   1.296   5.445  16.942 -0.5451  1.5332  0.7403
19042TIP3    H278618   1.236   5.330  17.019  0.5692 -0.9770 -1.9444
19043TIP3   OH278619   3.196   4.657   0.559  0.3170  0.3807 -0.3758
19043TIP3    H178620   3.175   4.727   0.620  0.4013  1.3444 -1.4252
19043TIP3    H278621   3.111   4.623   0.531  0.2762  0.1207  0.0501
19044TIP3   OH278622   6.405   1.714   3.543 -0.3132  0.0961 -0.2408
19044TIP3    H178623   6.404   1.619   3.551 -2.3225  0.1345  0.5357
19044TIP3    H278624   6.313   1.739   3.536  0.1617  1.9892 -0.3661
19045TIP3   OH278625   5.072   5.385  13.414  0.5298  0.1367 -0.6587
19045TIP3    H178626   5.164   5.391  13.388  0.8673 -1.6928  0.0116
19045TIP3    H278627   5.070   5.315  13.479 -1.2826  0.4629 -0.3262
19046TIP3   OH278628   1.184   1.583   1.945 -0.1630 -0.1100 -0.1652
19046TIP3    H178629   1.223   1.669   1.961 -1.5712  0.4321  0.5828
19046TIP3    H278630   1.257   1.527   1.921  1.0251  0.8946  0.9592
19047TIP3   OH278631   4.697   6.700  12.305  0.1640  0.3519  0.0003
19047TIP3    H178632   4.608   6.707  12.272  0.2099  1.4840  0.0806
19047TIP3    H278633   4.690   6.645  12.383 -0.4054  0.1618 -0.1818
19048TIP3   OH278634   5.445   6.308   4.341 -0.3159  0.1801  0.1035
19048TIP3    H178635   5.451   6.216   4.369  1.8544  0.4211  0.6578
19048TIP3    H278636   5.462   6.358   4.421  0.7234  0.9938 -0.5951
19049TIP3   OH278637   0.472   3.912  11.692  0.2261 -0.7852 -0.3207
19049TIP3    H178638   0.450   3.819  11.690 -1.5699 -0.3961 -0.1699
19049TIP3    H278639   0.405   3.952  11.746  1.2463  0.5605  0.0160
19050TIP3   OH278640   2.976   6.383   0.347 -0.0102  0.1018  0.1657
19050TIP3    H178641   2.944   6.323   0.279 -0.1942  1.8458 -1.3782
19050TIP3    H278642   3.071   6.371   0.346 -0.0752 -0.4674  0.1964
19051TIP3   OH278643   5.194   0.222  14.253  0.4913  0.1975  0.1661
19051TIP3    H178644   5.266   0.179  14.300 -0.7708 -1.3139  0.8106
19051TIP3    H278645   5.128   0.153  14.242 -0.1207  1.0582 -2.0321
19052TIP3   OH278646   3.212   4.632   4.090  0.4390  0.1326 -0.3149
19052TIP3    H178647   3.183   4.592   4.172 -0.4388 -0.0211 -0.6869
19052TIP3    H278648   3.307   4.644   4.101  0.1063  1.7487  1.4195
19053TIP3   OH278649   0.260   4.093  13.677 -0.8176  0.5277  0.0084
19053TIP3    H178650   0.190   4.035  13.709  0.6150 -0.1269  2.1597
19053TIP3    H278651   0.324   4.033  13.637 -0.4239  0.8686  0.1239
19054TIP3   OH278652   3.477   2.800   1.172  0.6377 -0.2251 -0.2370
19054TIP3    H178653   3.459   2.804   1.078 -0.6933  0.2732  0.0118
19054TIP3    H278654   3.548   2.737   1.181 -0.3171 -1.5182 -1.4279
19055TIP3   OH278655   1.632   2.689  10.909  0.4051  0.6123 -0.2500
19055TIP3    H178656   1.664   2.684  10.999 -2.6632  0.6467  0.9671
19055TIP3    H278657   1.592   2.603  10.894  1.4305  0.3770 -1.8752
19056TIP3   OH278658   5.300   2.461   0.183 -0.5178 -0.1409 -0.7618
19056TIP3    H178659   5.385   2.501   0.166 -0.4614  0.2455  0.3117
19056TIP3    H278660   5.246   2.485   0.107  0.1644  0.1000 -1.1753
19057TIP3   OH278661   1.632   0.065   4.433 -0.2639  0.3655 -0.1311
19057TIP3    H178662   1.599   0.154   4.447 -1.7247  0.7422 -4.5602
19057TIP3    H278663   1.633   0.054   4.338  0.0033 -4.3513  0.1763
19058TIP3   OH278664   4.332   2.271   2.414 -0.7513 -0.2290 -1.1168
19058TIP3    H178665   4.248   2.226   2.410 -0.2573 -1.1383 -1.4531
19058TIP3    H278666   4.381   2.237   2.340 -0.8733  1.9473 -2.2783
19059TIP3   OH278667   6.153   0.357  15.813 -0.4897  0.3246 -0.7984
19059TIP3    H178668   6.129   0.379  15.722 -1.3758 -0.7369 -0.8477
19059TIP3    H278669   6.069   0.360  15.860 -0.0271  0.9040  0.0082
19060TIP3   OH278670   5.782   4.840   0.438  0.0654  0.2408  0.0968
19060TIP3    H178671   5.789   4.744   0.436  0.8085  0.2488  1.1860
19060TIP3    H278672   5.696   4.856   0.475  0.4806 -0.0449  1.2476
19061TIP3   OH278673   3.370   2.810   5.445 -0.0612  0.6983  0.9852
19061TIP3    H178674   3.360   2.805   5.350  1.1576  1.4894  0.7930
19061TIP3    H278675   3.323   2.890   5.470 -0.1396  0.6457  1.0048
19062TIP3   OH278676   5.206   1.550  15.203  0.0093  0.2345  0.3497
19062TIP3    H178677   5.269   1.550  15.131 -0.7807 -0.5216 -0.3664
19062TIP3    H278678   5.151   1.627  15.187 -1.1896 -0.8199 -0.8139
19063TIP3   OH278679   2.004   2.003   0.398  0.3241  0.3124  0.2454
19063TIP3    H178680   2.083   1.963   0.436 -0.2802 -0.5741  0.5985
19063TIP3    H278681   2.030   2.027   0.309  0.1624 -2.6880 -0.6965
19064TIP3   OH278682   3.623   1.085   5.037  0.7470  0.3178 -0.3255
19064TIP3    H178683   3.621   0.990   5.047  1.2742  0.2329 -0.9320
19064TIP3    H278684   3.540   1.115   5.073 -0.1073 -0.5112 -1.5296
19065TIP3   OH278685   3.344   4.491   6.263 -0.2936 -0.5334 -0.1352
19065TIP3    H178686   3.407   4.541   6.211 -1.9295  0.9053 -0.8490
19065TIP3    H278687   3.389   4.410   6.284  1.5707  0.1911 -1.1090
19066TIP3   OH278688   5.388   0.612   3.273  0.6281 -0.2912 -0.0476
19066TIP3    H178689   5.323   0.547   3.302  0.6198  0.2609  1.2406
19066TIP3    H278690   5.345   0.657   3.200 -0.7650  0.5292  1.2095
19067TIP3   OH278691   0.439   0.395  13.848  0.4221 -0.7042  0.3068
19067TIP3    H178692   0.493   0.437  13.781  0.3017 -0.0091  0.6410
19067TIP3    H278693   0.350   0.401  13.815  0.1528  1.0915  1.2382
19068TIP3   OH278694   1.956   4.141   3.383 -0.2672 -0.0354  0.3912
19068TIP3    H178695   2.005   4.081   3.326 -0.3152 -1.2047  1.5186
19068TIP3    H278696   1.973   4.228   3.347  0.6529 -0.6314 -0.6897
19069TIP3   OH278697   2.892   0.936   4.891 -0.2242  0.2654  0.0514
19069TIP3    H178698   2.806   0.914   4.856  0.2840 -0.4378 -0.8058
19069TIP3    H278699   2.928   0.851   4.919  0.5686  0.4160 -0.4964
19070TIP3   OH278700   5.527   0.370   6.323 -0.3293 -0.3561  0.2751
19070TIP3    H178701   5.594   0.322   6.371 -0.6174 -0.0496  0.9955
19070TIP3    H278702   5.568   0.392   6.240  0.8952  0.8995  1.1874
19071TIP3   OH278703   6.616   3.337  11.041  0.1697  0.8246 -0.2503
19071TIP3    H178704   6.667   3.285  10.979  1.7595  1.2983  0.5840
19071TIP3    H278705   6.650   3.426  11.032  1.5998  0.6562  2.3257
19072TIP3   OH278706   4.433   1.310   3.477  0.1098  0.5118  0.3184
19072TIP3    H178707   4.418   1.289   3.569 -0.0772 -3.2874 -0.3970
19072TIP3    H278708   4.346   1.331   3.442 -0.1563 -0.1276  0.5895
19073TIP3   OH278709   4.469   4.421   1.948  0.1965  0.1258  0.2009
19073TIP3    H178710   4.536   4.425   2.016  1.2920  1.7165 -0.8940
19073TIP3    H278711   4.485   4.338   1.904  2.1915  0.8909 -0.6785
19074TIP3   OH278712   4.355   3.892  10.932  0.2836  0.8933 -0.2195
19074TIP3    H178713   4.366   3.888  11.027 -0.0664  0.4817 -0.1927
19074TIP3    H278714   4.440   3.922  10.899  0.8909 -0.3914  0.1217
19075TIP3   OH278715   4.924   6.136  12.823  0.3886  0.4142  0.1468
19075TIP3    H178716   4.924   6.183  12.907  0.3888 -1.4077  1.2217
19075TIP3    H278717   4.843   6.164  12.780  1.1996  2.6404 -0.0228
19076TIP3   OH278718   3.200   5.755  16.946 -0.4002  0.1321 -0.2959
19076TIP3    H178719   3.289   5.764  16.980 -0.3432 -0.9018 -0.1458
19076TIP3    H278720   3.147   5.811  17.002  0.2126  1.0818 -0.6402
19077TIP3   OH278721   0.102   0.599   0.875  0.8129  0.3675 -0.0307
19077TIP3    H178722   0.165   0.655   0.830 -0.0063  1.2682 -0.0916
19077TIP3    H278723   0.146   0.514   0.883  2.5140  1.3016  1.0285
19078TIP3   OH278724   5.234   3.374   4.523  0.0934 -0.8010 -0.3448
19078TIP3    H178725   5.194   3.352   4.607 -0.4611 -1.1235 -0.6853
19078TIP3    H278726   5.314   3.421   4.546 -0.8367  0.5150  0.3530
19079TIP3   OH278727   0.021   4.950  16.804  0.3920 -0.1291  0.3990
19079TIP3    H178728   0.018   5.013  16.732  1.6298 -3.3246 -2.8200
19079TIP3    H278729   0.113   4.922  16.807 -0.1430 -1.9781  1.3742
19080TIP3   OH278730   6.062   0.861  13.707 -0.1250  0.2796  0.0184
19080TIP3    H178731   6.030   0.947  13.678 -1.2057 -0.2377 -0.3999
19080TIP3    H278732   6.097   0.820  13.628 -0.8484 -0.1751 -0.0845
19081TIP3   OH278733   3.107   1.835   0.096  0.3483  0.1152  0.5312
19081TIP3    H178734   3.149   1.789   0.169  2.0706  1.5383  0.4871
19081TIP3    H278735   3.179   1.865   0.041 -0.8694 -2.0771 -2.6162
19082TIP3   OH278736   6.621   3.597  12.420 -0.0441 -0.0723 -0.3401
19082TIP3    H178737   6.549   3.652  12.449 -1.4846 -1.6696 -0.7465
19082TIP3    H278738   6.612   3.516  12.471  1.7571 -0.1408 -0.0554
19083TIP3   OH278739   0.812   1.622   3.373 -0.3373  0.3277  0.5905
19083TIP3    H178740   0.784   1.683   3.441  2.0762 -0.4420  2.3962
19083TIP3    H278741   0.818   1.537   3.418 -0.0494 -0.5093 -0.9529
19084TIP3   OH278742   2.821   5.359   3.388 -0.6020 -0.3923 -0.1756
19084TIP3    H178743   2.825   5.385   3.480  0.3713  0.6745 -0.4961
19084TIP3    H278744   2.871   5.277   3.385 -2.3236 -1.5154  0.5636
19085TIP3   OH278745   6.471   1.464  11.899 -0.1817  0.0136 -0.0846
19085TIP3    H178746   6.402   1.464  11.832  0.3133  0.2624 -0.6122
19085TIP3    H278747   6.435   1.414  11.972 -0.4989 -0.7981 -0.7853
19086TIP3   OH278748   1.550   6.421  14.665 -0.0813  0.3538  0.4552
19086TIP3    H178749   1.629   6.379  14.699  0.7690  0.9678 -0.7150
19086TIP3    H278750   1.539   6.499  14.719 -0.0121  0.1580  0.7545
19087TIP3   OH278751   5.769   2.571  12.935 -0.0624  0.3498  0.4157
19087TIP3    H178752   5.858   2.600  12.953  0.4121 -0.6329 -0.2607
19087TIP3    H278753   5.777   2.477  12.917 -1.1868  0.3034  0.0461
19088TIP3   OH278754   2.850   2.180   0.368 -0.1814 -0.2168 -0.2186
19088TIP3    H178755   2.895   2.118   0.309  0.4398  1.2282 -1.3267
19088TIP3    H278756   2.794   2.232   0.310  0.1443  0.9832  0.5142
19089TIP3   OH278757   4.766   3.692  14.907 -0.3529  0.1173  0.1218
19089TIP3    H178758   4.846   3.733  14.874  1.4023 -1.0479  2.6221
19089TIP3    H278759   4.713   3.766  14.937 -0.2917  0.9042 -1.5676
19090TIP3   OH278760   2.951   6.188   4.963 -0.0950  0.2027 -0.0399
19090TIP3    H178761   3.020   6.126   4.937  0.0666  1.1318 -2.0326
19090TIP3    H278762   2.882   6.133   5.001  1.0551 -0.9098  0.5139
19091TIP3   OH278763   4.562   4.114  14.341  0.2727  1.0387  0.0585
19091TIP3    H178764   4.489   4.065  14.302  1.0181  1.3185 -1.7710
19091TIP3    H278765   4.534   4.205  14.338  0.1636  1.0231  0.5739
19092TIP3   OH278766   5.305   6.715   3.766 -0.5433  0.1677  0.5774
19092TIP3    H178767   5.317   6.738   3.858  1.6583  0.8952  0.1723
19092TIP3    H278768   5.289   6.798   3.722 -2.6351 -0.2755  0.3713
19093TIP3   OH278769   0.962   4.470   4.612 -0.2241 -0.2043  0.2976
19093TIP3    H178770   0.962   4.522   4.693  0.4520  1.2647 -0.6179
19093TIP3    H278771   0.941   4.532   4.543  1.1717 -1.0086 -0.9157
19094TIP3   OH278772   3.860   0.429   4.229  0.2068 -0.0529  0.1080
19094TIP3    H178773   3.897   0.407   4.144 -0.9718  1.4074 -0.8455
19094TIP3    H278774   3.768   0.402   4.223 -0.8727  3.2981 -0.5218
19095TIP3   OH278775   5.374   4.226  14.935  0.2751 -0.6099 -0.7253
19095TIP3    H178776   5.408   4.164  14.871  0.1110 -0.5323 -0.8869
19095TIP3    H278777   5.357   4.173  15.013  0.9167 -0.6247 -0.5854
19096TIP3   OH278778   3.948   2.218   3.130 -0.3005  0.3123  0.9320
19096TIP3    H178779   3.923   2.310   3.126 -0.8023  0.2444  2.0188
19096TIP3    H278780   3.969   2.203   3.222  1.7721 -0.1675  0.4250
19097TIP3   OH278781   0.464   6.816   0.293  0.7011 -0.3028 -0.0370
19097TIP3    H178782   0.441   6.783   0.380  0.0873  0.8991  0.2791
19097TIP3    H278783   0.429   6.750   0.233  1.1003 -1.1336  0.6059
19098TIP3   OH278784   5.551   6.671   2.247 -0.9395 -0.0745 -0.0502
19098TIP3    H178785   5.596   6.756   2.241  0.5604 -0.7904  0.6376
19098TIP3    H278786   5.515   6.658   2.159  0.3938  0.4347 -0.7063
19099TIP3   OH278787   4.169   2.890   1.550 -0.0619  0.4951 -0.0734
19099TIP3    H178788   4.174   2.797   1.526  1.3294  0.5709 -0.1927
19099TIP3    H278789   4.159   2.889   1.645 -1.3955  0.2217 -0.2065
19100TIP3   OH278790   5.514   5.147  15.172 -0.6470  0.3070  0.5885
19100TIP3    H178791   5.599   5.192  15.172 -0.8990  0.8832  2.5617
19100TIP3    H278792   5.489   5.145  15.264 -2.0575 -1.2559  0.2108
19101TIP3   OH278793   1.055   6.045   1.721  0.5390 -0.1818  0.0005
19101TIP3    H178794   0.993   5.975   1.743  0.4126 -0.6231 -1.6375
19101TIP3    H278795   1.080   6.082   1.806 -2.3816  0.3821  0.7505
19102TIP3   OH278796   4.754   3.343   1.540  0.2775 -0.7413  0.3539
19102TIP3    H178797   4.796   3.340   1.627  0.8905  1.2254  0.1641
19102TIP3    H278798   4.670   3.299   1.553  0.0107  0.2012  2.1742
19103TIP3   OH278799   5.450   2.206   0.198  0.1117  0.2960 -0.0217
19103TIP3    H178800   5.430   2.120   0.160 -0.2820  0.2325  0.3168
19103TIP3    H278801   5.372   2.259   0.179  0.2006  0.4666  0.0879
19104TIP3   OH278802   3.939   5.475  16.555 -0.4317  0.5270  0.2915
19104TIP3    H178803   3.935   5.539  16.626 -0.3300  0.8805 -0.0198
19104TIP3    H278804   3.905   5.394  16.594  1.0215  0.3138  1.1675
19105TIP3   OH278805   1.289   3.943  13.821 -0.3508  0.1432 -0.0153
19105TIP3    H178806   1.352   3.990  13.876  1.0345 -0.8148 -0.7202
19105TIP3    H278807   1.320   3.958  13.731 -1.4446  0.0707 -0.4243
19106TIP3   OH278808   0.861   3.120  11.567  0.0378 -0.3210  0.2263
19106TIP3    H178809   0.784   3.070  11.594  0.5087 -0.6776  0.9241
19106TIP3    H278810   0.835   3.158  11.483 -0.6893 -0.9171  0.1603
19107TIP3   OH278811   4.836   6.570  15.455 -0.0725  0.3877  0.1529
19107TIP3    H178812   4.905   6.540  15.396 -0.4790  0.5086 -0.3844
19107TIP3    H278813   4.824   6.663  15.433  0.1906  0.5980  0.8392
19108TIP3   OH278814   4.862   4.503   4.313 -0.2712  0.1911  0.3432
19108TIP3    H178815   4.804   4.431   4.288 -0.1335 -0.2257  1.2203
19108TIP3    H278816   4.811   4.582   4.294  0.4608  0.0220 -3.0102
19109TIP3   OH278817   6.522   0.395   5.262 -0.6207  0.4759 -0.7680
19109TIP3    H178818   6.606   0.427   5.228  0.2567 -0.2991  0.5654
19109TIP3    H278819   6.494   0.464   5.322 -0.7623  0.5769 -0.9503
19110TIP3   OH278820   5.269   0.370   6.076  0.2383  0.6906  0.5440
19110TIP3    H178821   5.331   0.298   6.084 -1.1530 -1.0401 -2.4812
19110TIP3    H278822   5.314   0.435   6.021  0.3794  0.7415  0.7184
19111TIP3   OH278823   4.702   2.372   2.839 -0.0282 -0.2280 -0.4509
19111TIP3    H178824   4.693   2.467   2.838 -0.7205 -0.2845 -2.1694
19111TIP3    H278825   4.757   2.355   2.916  0.0882  1.5417 -0.0851
19112TIP3   OH278826   6.822   1.941   3.414  0.4161 -0.0334 -0.3907
19112TIP3    H178827   6.783   1.916   3.498 -2.0302  0.2205 -1.3876
19112TIP3    H278828   6.861   2.027   3.431 -2.6299  1.4213 -0.1567
19113TIP3   OH278829   4.391   2.136   3.546  0.6314  0.2595 -0.1956
19113TIP3    H178830   4.398   2.228   3.521 -2.7498  0.4444 -1.0127
19113TIP3    H278831   4.352   2.138   3.634  0.1521 -0.3413 -0.3839
19114TIP3   OH278832   6.365   5.316  14.498  0.0442  0.6656  0.1945
19114TIP3    H178833   6.346   5.410  14.507 -0.3663  0.6058 -0.0344
19114TIP3    H278834   6.352   5.280  14.586  0.4763  0.8712  0.3440
19115TIP3   OH278835   0.305   0.186   0.171 -1.1080  0.2310  0.2499
19115TIP3    H178836   0.362   0.139   0.233 -2.1849 -2.5763 -0.7146
19115TIP3    H278837   0.356   0.192   0.091 -0.8373  1.1149  0.4767
19116TIP3   OH278838   2.092   0.690  11.522  0.1563 -0.0889  0.4859
19116TIP3    H178839   2.086   0.740  11.441  0.1584  0.0248  0.5565
19116TIP3    H278840   2.184   0.664  11.527  0.5062  1.2241  1.2449
19117TIP3   OH278841   2.152   0.043   1.476 -0.0233  0.4289 -0.9402
19117TIP3    H178842   2.128   0.025   1.385 -0.4122  1.8475 -1.1479
19117TIP3    H278843   2.222   0.108   1.469 -1.0983  1.6998 -0.2172
19118TIP3   OH278844   5.185   2.726   1.009  0.3825 -0.1709 -0.3804
19118TIP3    H178845   5.255   2.788   0.990  2.0265 -2.3118 -1.7076
19118TIP3    H278846   5.180   2.724   1.105  2.2520 -0.0669 -0.2519
19119TIP3   OH278847   4.245   4.286   1.672  0.0551 -0.4237 -0.1476
19119TIP3    H178848   4.316   4.288   1.608 -0.9301  0.3866 -1.2571
19119TIP3    H278849   4.265   4.357   1.734  1.6172 -1.9396  1.1782
19120TIP3   OH278850   4.075   6.651   2.246  0.9984 -0.2984 -0.2025
19120TIP3    H178851   4.069   6.693   2.332  2.1940 -1.5233  0.5290
19120TIP3    H278852   3.985   6.647   2.214  0.6011  0.6599  0.7482
19121TIP3   OH278853   4.314   6.590   4.191 -0.0998  0.1884  0.4340
19121TIP3    H178854   4.358   6.553   4.267  0.7619  1.7859  0.7698
19121TIP3    H278855   4.378   6.584   4.121 -0.7663 -0.9616 -0.0962
19122TIP3   OH278856   5.354   5.293  10.415  0.0532  0.0586  0.5874
19122TIP3    H178857   5.272   5.267  10.372 -0.1377 -0.5449  1.2870
19122TIP3    H278858   5.359   5.388  10.402  0.5128 -0.1976 -1.6252
19123TIP3   OH278859   4.357   0.958  16.587 -0.0496 -0.4323  0.0713
19123TIP3    H178860   4.397   0.891  16.641  0.2475 -0.5644 -0.3054
19123TIP3    H278861   4.297   1.004  16.645  1.6650  0.7016  1.0521
19124TIP3   OH278862   4.915   6.543   5.393 -0.1097 -0.5349  0.2074
19124TIP3    H178863   5.002   6.503   5.389  0.5100  0.8376 -1.0683
19124TIP3    H278864   4.900   6.576   5.305 -1.7416 -0.3148  0.5324
19125TIP3   OH278865   5.049   2.433   1.242 -0.5523 -0.6392 -0.3884
19125TIP3    H178866   5.033   2.453   1.334 -0.8610 -0.8512 -0.3913
19125TIP3    H278867   5.018   2.343   1.232 -0.3033 -0.6975 -0.6464
19126TIP3   OH278868   1.108   3.137  14.948 -0.1408 -0.2588  0.5728
19126TIP3    H178869   1.185   3.162  14.999 -1.4324  1.9173  1.6051
19126TIP3    H278870   1.098   3.207  14.884 -0.8366 -0.8880 -0.0199
19127TIP3   OH278871   1.942   2.819   0.458  0.1566  0.5568 -0.1851
19127TIP3    H178872   1.959   2.742   0.512  0.8952  0.9841  0.2060
19127TIP3    H278873   1.876   2.790   0.394 -0.1617 -0.1617  0.4630
19128TIP3   OH278874   4.522   2.749   5.243 -0.0593 -0.1549  0.2464
19128TIP3    H178875   4.521   2.699   5.324 -0.1847 -1.2401 -0.4146
19128TIP3    H278876   4.452   2.712   5.189 -0.1846  0.7532 -0.2495
19129TIP3   OH278877   2.501   1.746  14.073 -0.4564 -0.2057  0.4849
19129TIP3    H178878   2.422   1.745  14.020 -0.1925 -1.6368  0.0821
19129TIP3    H278879   2.547   1.826  14.045 -1.6465  0.5616  0.6189
19130TIP3   OH278880   2.248   1.599   3.460 -0.6459  0.2374  0.1706
19130TIP3    H178881   2.303   1.521   3.459  0.0244  0.6598  1.5364
19130TIP3    H278882   2.197   1.592   3.540 -1.4620  0.6281 -0.2954
19131TIP3   OH278883   1.239   2.600  12.489  0.4513 -0.1008 -0.1445
19131TIP3    H178884   1.309   2.633  12.432 -1.7958  1.9102 -1.9730
19131TIP3    H278885   1.234   2.664  12.559  1.6779 -1.3317  1.1303
19132TIP3   OH278886   3.672   6.305   4.823  0.0066 -0.3491  0.0836
19132TIP3    H178887   3.687   6.325   4.731 -2.7817 -0.1719 -0.4347
19132TIP3    H278888   3.604   6.367   4.850 -0.2338 -1.3205  1.8518
19133TIP3   OH278889   2.599   4.676   0.798 -0.6614 -0.1615  0.6857
19133TIP3    H178890   2.505   4.696   0.797 -0.6299 -0.0263  0.1464
19133TIP3    H278891   2.630   4.704   0.712  0.0269  0.5276  1.1444
19134TIP3   OH278892   0.426   1.642   0.040  0.3091  0.4406  0.3327
19134TIP3    H178893   0.368   1.566   0.043 -1.3235  1.6158 -0.3892
19134TIP3    H278894   0.512   1.606   0.018 -0.3762 -1.2135  0.2671
19135TIP3   OH278895   4.475   5.538  11.778  0.0691 -0.2252  0.1230
19135TIP3    H178896   4.547   5.557  11.718  1.1553 -1.8459  0.8627
19135TIP3    H278897   4.396   5.548  11.724  0.8132  1.3204 -0.7650
19136TIP3   OH278898   4.262   6.681  16.240  0.4782 -0.1476 -0.5132
19136TIP3    H178899   4.216   6.734  16.305  0.6577 -0.8217  0.1820
19136TIP3    H278900   4.196   6.617  16.210  0.5369 -0.1560 -0.6266
19137TIP3   OH278901   3.699   6.809   5.613 -0.0299 -0.2977  0.2081
19137TIP3    H178902   3.767   6.869   5.580  0.2866  0.4561  2.1007
19137TIP3    H278903   3.639   6.798   5.539  0.2684  1.8499 -0.4221
19138TIP3   OH278904   4.334   5.543   5.300 -0.4685 -0.0491 -0.2357
19138TIP3    H178905   4.337   5.637   5.285 -0.3795 -0.3603 -2.6337
19138TIP3    H278906   4.422   5.513   5.281  0.3439 -0.3638  3.3549
19139TIP3   OH278907   4.440   1.858  15.342 -0.1575 -0.3385  0.4953
19139TIP3    H178908   4.471   1.877  15.431 -2.0108  0.9251  0.9253
19139TIP3    H278909   4.364   1.915  15.330  0.7497  0.4432 -2.3560
19140TIP3   OH278910   1.284   6.790   1.428 -0.3995 -0.2555  0.3936
19140TIP3    H178911   1.341   6.759   1.357  1.9891  0.3893  1.9075
19140TIP3    H278912   1.272   6.713   1.484  1.9292  0.3552  1.8628
19141TIP3   OH278913   3.382   2.340   3.609 -0.2160 -0.2932 -0.2320
19141TIP3    H178914   3.332   2.280   3.666 -0.0033  0.9429  1.3433
19141TIP3    H278915   3.332   2.342   3.528  0.5946 -3.7627 -0.9911
19142TIP3   OH278916   0.195   2.611   0.242  0.2014 -0.5184 -0.0913
19142TIP3    H178917   0.233   2.608   0.330 -0.1945 -0.1061  0.1018
19142TIP3    H278918   0.188   2.520   0.215  0.0714 -0.6625  0.4212
19143TIP3   OH278919   5.656   2.643   2.486  0.1963 -0.4903 -0.4668
19143TIP3    H178920   5.588   2.585   2.452 -1.0564  0.2092  0.7421
19143TIP3    H278921   5.619   2.731   2.479  1.1098 -0.0603 -0.1082
19144TIP3   OH278922   1.650   2.251  11.798 -0.2052  0.1644  0.3803
19144TIP3    H178923   1.722   2.295  11.843 -1.2186  1.3684  0.8831
19144TIP3    H278924   1.640   2.299  11.716 -0.1494 -0.2899  0.1018
19145TIP3   OH278925   2.566   6.519  12.925 -0.2039  0.3546 -0.1744
19145TIP3    H178926   2.545   6.445  12.868  0.4034  0.2816 -0.3108
19145TIP3    H278927   2.649   6.496  12.966  1.0701  1.7865 -1.7588
19146TIP3   OH278928   1.762   0.651  14.514  0.1845  0.2980  0.2180
19146TIP3    H178929   1.826   0.683  14.577  1.0816 -1.5095  0.2959
19146TIP3    H278930   1.800   0.672  14.429  1.1054 -1.0237  0.2559
19147TIP3   OH278931   4.808   3.924   1.308 -0.5321 -0.3492  0.1611
19147TIP3    H178932   4.883   3.865   1.302 -0.9143 -0.9099  0.7603
19147TIP3    H278933   4.836   4.003   1.262  0.5399 -0.4322  0.6356
19148TIP3   OH278934   0.107   1.978   0.001  0.3150 -0.5840  0.1225
19148TIP3    H178935   0.041   2.033   0.043 -0.7646 -2.3397  0.8416
19148TIP3    H278936   0.137   2.030  -0.074  0.1149  1.3833  1.3162
19149TIP3   OH278937   3.507   4.443  15.986  0.1484  0.4925  0.1037
19149TIP3    H178938   3.424   4.418  16.029  0.1741 -1.0920 -0.6912
19149TIP3    H278939   3.560   4.479  16.057 -0.9686  0.9122  0.7647
19150TIP3   OH278940   0.249   4.813   4.036 -0.9859 -0.2766  0.0887
19150TIP3    H178941   0.330   4.776   4.073 -0.5163  1.6955  1.1388
19150TIP3    H278942   0.181   4.787   4.097 -1.0960 -1.5227 -0.5350
19151TIP3   OH278943   5.813   1.908  15.127 -0.3172  0.1352 -0.2537
19151TIP3    H178944   5.900   1.869  15.123 -0.3570  0.0648 -0.4329
19151TIP3    H278945   5.771   1.863  15.200 -0.0516  0.4850  0.1202
19152TIP3   OH278946   3.611   4.828  16.503 -0.0367 -0.0027  0.0107
19152TIP3    H178947   3.612   4.825  16.407  1.7284 -0.9622  0.0261
19152TIP3    H278948   3.693   4.787  16.529 -0.0401  1.1003  1.9338
19153TIP3   OH278949   1.171   6.796  15.863  0.0196  0.1635 -0.0445
19153TIP3    H178950   1.156   6.845  15.782 -0.6734 -0.7249 -0.4699
19153TIP3    H278951   1.097   6.819  15.919 -0.3193 -0.3898 -0.2528
19154TIP3   OH278952   6.826   3.704   3.389  0.4815 -0.2864 -0.3913
19154TIP3    H178953   6.785   3.789   3.404 -2.1890 -1.1967 -1.9187
19154TIP3    H278954   6.835   3.666   3.477  1.7604  1.5178  0.3193
19155TIP3   OH278955   3.584   5.772   4.394 -0.5236  0.3785 -0.3799
19155TIP3    H178956   3.507   5.719   4.373 -0.5330  0.4497 -0.5282
19155TIP3    H278957   3.560   5.861   4.367 -0.9411  0.6794  0.9292
19156TIP3   OH278958   3.752   1.342  16.101 -0.3259  0.7323 -0.4333
19156TIP3    H178959   3.750   1.437  16.088 -2.5421  0.6099 -1.6108
19156TIP3    H278960   3.723   1.329  16.191 -0.0479  1.1680 -0.2786
19157TIP3   OH278961   2.191   3.586  13.900 -0.9208  0.0699 -0.0538
19157TIP3    H178962   2.196   3.680  13.913  0.9225 -0.0769  0.5717
19157TIP3    H278963   2.270   3.563  13.852  0.1615 -1.4875  2.2604
19158TIP3   OH278964   1.738   1.337   4.136  0.4015 -0.0504 -0.9393
19158TIP3    H178965   1.823   1.352   4.178 -1.3016  0.4129  2.6678
19158TIP3    H278966   1.709   1.425   4.110 -0.1470  0.1726  0.3781
19159TIP3   OH278967   3.489   0.713  13.331 -0.0468  0.4156  0.4948
19159TIP3    H178968   3.460   0.668  13.410 -0.3339 -1.0594 -0.4257
19159TIP3    H278969   3.428   0.685  13.263  0.0287  1.8725 -0.2252
19160TIP3   OH278970   3.603   2.183   4.576 -0.4529 -0.7251  0.3722
19160TIP3    H178971   3.600   2.274   4.608  0.5128 -0.5617  0.0191
19160TIP3    H278972   3.624   2.131   4.653 -0.4375 -0.5907  0.4592
19161TIP3   OH278973   5.378   6.252   2.270 -0.5145  0.1443 -0.1595
19161TIP3    H178974   5.342   6.266   2.183 -0.8931 -0.2214 -0.0643
19161TIP3    H278975   5.328   6.310   2.327  1.2395  2.1191 -0.4996
19162TIP3   OH278976   6.807   5.894   3.170 -0.6303  0.3129 -0.1920
19162TIP3    H178977   6.871   5.905   3.241 -1.9363 -0.0021  1.0831
19162TIP3    H278978   6.734   5.847   3.211 -1.9115  1.1360 -1.4671
19163TIP3   OH278979   0.934   6.288  15.337  0.0860 -0.5780 -0.2434
19163TIP3    H178980   0.951   6.353  15.268 -2.6500 -0.7099 -1.1850
19163TIP3    H278981   0.964   6.331  15.417  1.7016  0.3251 -1.2574
19164TIP3   OH278982   4.841   6.835   6.341  0.2849 -0.4113 -0.2152
19164TIP3    H178983   4.852   6.749   6.300  2.9935  0.8711 -2.5800
19164TIP3    H278984   4.931   6.863   6.361 -0.6048  1.4631  1.4939
19165TIP3   OH278985   6.593   0.632   5.450  0.0327  0.4923 -0.2367
19165TIP3    H178986   6.585   0.654   5.543 -1.6117  0.4837 -0.3402
19165TIP3    H278987   6.614   0.715   5.408 -0.5778  0.7809  0.0042
19166TIP3   OH278988   1.544   6.392   4.142  0.3173  0.1157 -0.4064
19166TIP3    H178989   1.488   6.411   4.217  1.8079 -2.5254  1.5732
19166TIP3    H278990   1.610   6.460   4.143  1.4319 -0.8829  1.9968
19167TIP3   OH278991   6.387   0.397   3.574 -0.0616 -0.2308 -0.1236
19167TIP3    H178992   6.306   0.403   3.625 -0.0952 -0.9243 -0.0935
19167TIP3    H278993   6.391   0.481   3.528 -1.1946 -0.4797 -0.7158
19168TIP3   OH278994   6.670   6.640   3.605 -0.3636  0.5491  0.5392
19168TIP3    H178995   6.617   6.578   3.555 -1.2137  1.0388  0.8270
19168TIP3    H278996   6.624   6.651   3.688  0.8805 -0.0200  1.3345
19169TIP3   OH278997   6.722   5.992  12.100 -0.5245  0.4003 -0.0194
19169TIP3    H178998   6.742   5.921  12.162 -0.5190 -0.5380 -1.0634
19169TIP3    H278999   6.765   6.069  12.138 -0.0182 -0.2750  0.8418
19170TIP3   OH279000   5.275   2.452  12.972 -0.4579  0.0418  0.3320
19170TIP3    H179001   5.293   2.362  12.999  1.4390  0.5827  1.0744
19170TIP3    H279002   5.358   2.498  12.986 -1.1322  1.7208 -0.8457
19171TIP3   OH279003   0.684   4.506   0.622 -0.2909  0.1730 -0.3139
19171TIP3    H179004   0.778   4.487   0.632 -0.4361 -1.3204 -1.4188
19171TIP3    H279005   0.644   4.468   0.701 -0.0350  0.2568 -0.1410
19172TIP3   OH279006   4.468   5.237   3.923  0.0288 -0.3044  0.0617
19172TIP3    H179007   4.428   5.152   3.942 -0.3249 -0.0578  0.4287
19172TIP3    H279008   4.535   5.248   3.990 -1.0261  0.4361  1.0202
19173TIP3   OH279009   1.813   5.183   2.311 -0.1625  0.1522  0.8067
19173TIP3    H179010   1.724   5.151   2.295 -0.3429  2.0812 -3.1366
19173TIP3    H279011   1.868   5.105   2.305 -1.2769 -0.6057 -0.0720
19174TIP3   OH279012   0.037   2.550  14.263  0.3540 -0.1256  0.3017
19174TIP3    H179013  -0.049   2.567  14.223 -0.2818 -1.5822  1.0047
19174TIP3    H279014   0.023   2.563  14.357  1.2795  1.0352  0.2991
19175TIP3   OH279015   2.935   4.817  15.828 -0.0470  0.5790 -0.4442
19175TIP3    H179016   2.862   4.870  15.796  0.4794  1.1218 -0.7610
19175TIP3    H279017   2.899   4.770  15.902 -1.1547 -0.3120 -1.4979
19176TIP3   OH279018   3.351   4.299  11.194 -0.4569  0.2963 -0.2647
19176TIP3    H179019   3.350   4.241  11.117 -1.3654  0.5529 -0.4671
19176TIP3    H279020   3.406   4.254  11.258 -1.7888 -1.2124 -0.1177
19177TIP3   OH279021   3.035   5.504  15.489  0.5128 -0.0103  0.3844
19177TIP3    H179022   3.064   5.495  15.398  0.5600 -3.4703  0.6198
19177TIP3    H279023   2.941   5.519  15.483  0.6821  0.9135 -0.2077
19178TIP3   OH279024   2.542   1.931  16.414  0.3128 -0.4207 -0.4928
19178TIP3    H179025   2.574   1.849  16.452 -2.4257 -1.1816  0.4618
19178TIP3    H279026   2.454   1.910  16.383  0.6693  1.4413 -3.0651
19179TIP3   OH279027   2.233   2.478  16.560 -0.1594  0.0382  0.2652
19179TIP3    H179028   2.283   2.518  16.489 -1.4349 -0.2390 -0.8183
19179TIP3    H279029   2.155   2.534  16.569 -0.2416 -0.1958  1.1423
19180TIP3   OH279030   4.583   4.908   2.699 -0.2014 -0.3129  0.1805
19180TIP3    H179031   4.604   4.968   2.627 -0.4286  0.6058  0.8668
19180TIP3    H279032   4.496   4.874   2.676 -0.3993  0.1947  0.1496
19181TIP3   OH279033   1.250   1.388  14.346 -0.7356  0.3337 -0.0920
19181TIP3    H179034   1.169   1.431  14.319 -1.6676 -1.8265 -1.0177
19181TIP3    H279035   1.222   1.321  14.409  0.3835 -0.1658 -0.0983
19182TIP3   OH279036   5.058   6.345   1.128  0.0822 -0.0639  0.1046
19182TIP3    H179037   5.063   6.251   1.110  0.2920  0.0308 -0.3735
19182TIP3    H279038   4.966   6.368   1.116 -0.1232 -0.3642  1.0742
19183TIP3   OH279039   6.396   2.423  15.230  0.1136  0.8760  0.3827
19183TIP3    H179040   6.421   2.510  15.199  1.6686 -0.4963 -2.6311
19183TIP3    H279041   6.305   2.412  15.204  0.1253  1.3604  0.1415
19184TIP3   OH279042   5.362   0.383  12.983  0.0082 -0.0937 -0.9465
19184TIP3    H179043   5.271   0.412  12.993 -1.4584 -4.1746 -0.2458
19184TIP3    H279044   5.368   0.355  12.892  0.4656 -0.0636 -0.9252
19185TIP3   OH279045   6.800   5.586  15.980 -0.1631 -0.2739 -0.2421
19185TIP3    H179046   6.863   5.537  15.927  0.1435 -1.0815  0.8112
19185TIP3    H279047   6.716   5.546  15.959  0.0092 -0.8674  0.1589
19186TIP3   OH279048   0.660   1.986   3.824 -0.1666 -0.3734  0.0060
19186TIP3    H179049   0.729   2.005   3.761 -0.2438  0.4865  0.1702
19186TIP3    H279050   0.701   1.928   3.888  0.2584 -0.2588 -0.1604
19187TIP3   OH279051   2.235   1.046   1.259  0.7087 -0.4956  0.0384
19187TIP3    H179052   2.194   1.084   1.181  0.8755 -0.4943 -0.0503
19187TIP3    H279053   2.277   0.966   1.226  1.4588 -0.0823 -0.0343
19188TIP3   OH279054   0.335   2.135  12.682  0.3916  0.1452  0.1485
19188TIP3    H179055   0.328   2.205  12.747 -0.2849  0.4533 -0.2433
19188TIP3    H279056   0.262   2.151  12.622  0.4415 -0.6948 -0.1454
19189TIP3   OH279057   4.879   5.823  16.900  0.3276  0.0156 -0.2164
19189TIP3    H179058   4.877   5.821  16.805 -0.1544  0.7260 -0.2297
19189TIP3    H279059   4.787   5.831  16.926 -0.1001 -4.3913  0.4757
19190TIP3   OH279060   1.375   3.186  16.787 -0.0315  0.2344  0.0472
19190TIP3    H179061   1.387   3.123  16.716 -0.2140  0.9372 -0.6194
19190TIP3    H279062   1.361   3.270  16.743 -0.0123  0.7072  0.9161
19191TIP3   OH279063   2.027   2.103   0.652 -0.6686 -0.1758  0.7455
19191TIP3    H179064   2.087   2.178   0.656 -0.6794 -0.0957 -0.2414
19191TIP3    H279065   2.013   2.089   0.558 -2.7294  0.2191  0.9652
19192TIP3   OH279066   4.522   6.086  15.864 -0.3815 -0.3656  0.6358
19192TIP3    H179067   4.572   6.024  15.918  0.5157  0.1975  0.4667
19192TIP3    H279068   4.518   6.166  15.917 -1.7824 -0.6293  0.9753
19193TIP3   OH279069   6.275   1.876  13.089 -0.0914 -0.0341 -0.1417
19193TIP3    H179070   6.259   1.846  12.999 -3.2847 -0.2888  0.3926
19193TIP3    H279071   6.263   1.971  13.085 -0.2733 -0.0498  0.0091
19194TIP3   OH279072   0.759   2.972   0.153  0.1178  0.1600  0.1016
19194TIP3    H179073   0.766   3.065   0.134 -1.5188  0.0663 -1.1566
19194TIP3    H279074   0.758   2.930   0.067  0.4674 -0.9988  0.6428
19195TIP3   OH279075   3.087   4.333   3.997  0.0245 -0.1231  0.2237
19195TIP3    H179076   3.143   4.284   4.057 -0.6174 -0.3063  0.6760
19195TIP3    H279077   3.059   4.269   3.932  1.1856  0.1960 -0.6361
19196TIP3   OH279078   4.030   3.190  16.240  0.0051  0.3436  0.1293
19196TIP3    H179079   4.066   3.255  16.179  0.6135  1.0899  1.2401
19196TIP3    H279080   4.106   3.144  16.274 -0.3541 -0.2960  0.0737
19197TIP3   OH279081   4.208   6.301   1.761 -0.6181  0.2728  0.2363
19197TIP3    H179082   4.152   6.252   1.821  0.7267 -1.1967  0.3291
19197TIP3    H279083   4.284   6.326   1.813  0.0100  0.0214 -0.5445
19198TIP3   OH279084   6.364   3.815   3.485  0.5485  0.4387 -0.1056
19198TIP3    H179085   6.401   3.740   3.532  0.6547  0.6211  0.1087
19198TIP3    H279086   6.272   3.793   3.472  0.4045  0.5790  0.6064
19199TIP3   OH279087   5.350   2.574  13.294  0.2479  0.4155  0.3779
19199TIP3    H179088   5.441   2.543  13.292  0.6038  1.4455 -1.6099
19199TIP3    H279089   5.355   2.665  13.266 -1.4404  0.3929 -0.1189
19200TIP3   OH279090   2.602   0.850   4.140 -0.4385 -0.3004  0.0016
19200TIP3    H179091   2.698   0.843   4.139 -0.3496  0.7975 -0.1432
19200TIP3    H279092   2.576   0.803   4.220  0.2713 -0.0395  0.4034
19201TIP3   OH279093   6.544   3.282  15.367 -0.1047 -0.0736 -0.2562
19201TIP3    H179094   6.522   3.216  15.432 -1.0990  1.4123  0.9911
19201TIP3    H279095   6.465   3.291  15.314 -0.1925  0.5557 -0.0234
19202TIP3   OH279096   3.075   4.457   1.671  0.0607 -0.1863  0.2916
19202TIP3    H179097   3.066   4.484   1.762 -0.6266 -0.3685  0.2850
19202TIP3    H279098   3.131   4.380   1.674  0.9346  0.4512  0.4467
19203TIP3   OH279099   0.743   3.623  11.175  0.0703 -0.0058  0.7617
19203TIP3    H179100   0.751   3.541  11.126  2.4074  1.0925 -0.9002
19203TIP3    H279101   0.652   3.626  11.202 -0.6433 -2.0637 -1.0914
19204TIP3   OH279102   1.937   6.322   5.343  0.1261  0.1233  0.2553
19204TIP3    H179103   2.029   6.346   5.345  0.3846 -0.8276  0.4068
19204TIP3    H279104   1.890   6.404   5.360  0.9252  0.6607 -0.0751
19205TIP3   OH279105   0.171   6.473  16.880 -0.0619  0.5015  0.4689
19205TIP3    H179106   0.206   6.546  16.930 -1.0789  1.2373  0.1332
19205TIP3    H279107   0.249   6.426  16.848  0.6644  2.4464 -0.8078
19206TIP3   OH279108   6.330   2.579  10.623  0.7004 -0.0846  0.4745
19206TIP3    H179109   6.363   2.668  10.636  2.9807 -0.9594  1.1387
19206TIP3    H279110   6.391   2.540  10.561  0.0196 -1.3528  0.5769
19207TIP3   OH279111   0.342   3.250  12.292  0.0485  0.1260  0.9696
19207TIP3    H179112   0.267   3.301  12.263 -0.7450 -0.3253  2.1520
19207TIP3    H279113   0.307   3.162  12.306  0.8807 -0.1769  1.1758
19208TIP3   OH279114   4.625   6.286  13.792 -0.5983  0.2251 -0.0869
19208TIP3    H179115   4.669   6.268  13.875  0.9724 -1.0376 -1.1253
19208TIP3    H279116   4.553   6.222  13.789  0.7341 -1.3315 -0.6517
19209TIP3   OH279117   3.606   0.817  16.779  0.3758 -0.1698 -0.0281
19209TIP3    H179118   3.512   0.827  16.763  0.1359 -1.9141  0.0947
19209TIP3    H279119   3.611   0.771  16.863  1.4075  1.4459  0.8467
19210TIP3   OH279120   2.550   6.587   4.122  0.1858 -0.0238 -0.1335
19210TIP3    H179121   2.616   6.654   4.102 -0.7789  0.0052 -3.7414
19210TIP3    H279122   2.602   6.510   4.147  1.5127  0.6011 -0.8347
19211TIP3   OH279123   4.062   0.428  14.994 -0.4545  0.1519 -0.5093
19211TIP3    H179124   4.138   0.370  14.996 -2.1758 -2.2800  2.3028
19211TIP3    H279125   3.999   0.383  14.938 -1.3451 -0.1482  0.6860
19212TIP3   OH279126   0.252   5.211   2.934 -0.0906  0.0490  0.1652
19212TIP3    H179127   0.233   5.254   3.017  0.4399 -1.1760  0.9458
19212TIP3    H279128   0.237   5.118   2.951  2.2856 -0.5009 -0.4098
19213TIP3   OH279129   3.306   0.044   3.805  0.2383 -0.0985  0.5165
19213TIP3    H179130   3.395   0.013   3.790  0.6856  1.4040 -0.0464
19213TIP3    H279131   3.316   0.132   3.840 -1.0188  1.5688 -2.9065
19214TIP3   OH279132   5.773   5.022  16.704 -0.5030 -0.4992 -0.7079
19214TIP3    H179133   5.736   5.005  16.791 -2.9675 -1.1179 -1.7842
19214TIP3    H279134   5.822   4.943  16.683 -0.6525 -0.7163 -0.2548
19215TIP3   OH279135   2.184   3.771  12.511  0.0695  0.1271 -0.1252
19215TIP3    H179136   2.269   3.764  12.553  0.5109 -0.4663 -1.0929
19215TIP3    H279137   2.200   3.821  12.431 -0.3821 -0.3798 -0.5499
19216TIP3   OH279138   1.797   4.348  13.607 -0.1603  0.2864  1.1505
19216TIP3    H179139   1.723   4.371  13.551 -0.5462  0.2899  1.6553
19216TIP3    H279140   1.784   4.399  13.687 -0.3383 -0.7170  1.7778
19217TIP3   OH279141   6.464   3.176  13.018 -0.1303 -0.2469 -0.3147
19217TIP3    H179142   6.417   3.165  13.100  2.8948  0.7232  1.7116
19217TIP3    H279143   6.500   3.090  12.998 -1.1677 -0.5674 -0.8849
19218TIP3   OH279144   0.210   5.513   5.219  0.4062 -0.0710 -1.1121
19218TIP3    H179145   0.175   5.442   5.272 -0.2382 -0.5368 -2.1233
19218TIP3    H279146   0.190   5.487   5.129 -0.3651  1.6528 -1.4760
19219TIP3   OH279147   5.591   5.746   1.951 -0.2657 -0.1620  0.0252
19219TIP3    H179148   5.660   5.733   2.016 -0.3988 -1.3805 -0.0533
19219TIP3    H279149   5.510   5.736   2.000 -0.3984  0.9003  0.0437
19220TIP3   OH279150   0.281   0.960  16.179  0.2363  0.1731  0.8674
19220TIP3    H179151   0.250   0.923  16.262  0.6085  1.7009  1.7195
19220TIP3    H279152   0.374   0.974  16.192  0.4304 -0.1752 -0.0658
19221TIP3   OH279153   4.684   5.198  15.506 -0.4344 -0.0265 -0.1640
19221TIP3    H179154   4.679   5.107  15.475 -0.9567  0.2069 -0.7861
19221TIP3    H279155   4.628   5.198  15.584 -0.4570 -0.2359 -0.1769
19222TIP3   OH279156   0.445   4.419   1.441 -0.4257  0.6613  0.1898
19222TIP3    H179157   0.452   4.361   1.517  1.1313  0.8140  0.1933
19222TIP3    H279158   0.364   4.393   1.398  0.2181 -1.5152  0.2071
19223TIP3   OH279159   5.480   2.748   5.486  0.3371  0.0784  0.1161
19223TIP3    H179160   5.498   2.696   5.407 -0.7057  0.5629 -0.4566
19223TIP3    H279161   5.519   2.834   5.466  1.0052 -0.1100  0.5745
19224TIP3   OH279162   4.118   3.666   4.267  0.2743 -0.1990  0.3007
19224TIP3    H179163   4.163   3.681   4.184  1.9195 -0.1621  1.1344
19224TIP3    H279164   4.064   3.589   4.253 -1.1111  1.0118 -1.3865
19225TIP3   OH279165   2.830   1.154  16.648  0.2337 -0.4998 -0.1985
19225TIP3    H179166   2.805   1.133  16.738  0.3485 -0.9332 -0.2643
19225TIP3    H279167   2.812   1.073  16.599 -0.9708  0.1201 -0.8028
19226TIP3   OH279168   5.578   4.841   1.265 -0.6488  0.0349  0.2862
19226TIP3    H179169   5.545   4.921   1.306  0.8058  1.3506 -0.9685
19226TIP3    H279170   5.637   4.803   1.329  1.2273  1.8026 -0.3071
19227TIP3   OH279171   3.577   3.074   6.042 -0.5854  0.4212 -0.0851
19227TIP3    H179172   3.543   3.042   5.958  0.6003  0.6034 -0.6487
19227TIP3    H279173   3.511   3.046   6.106 -1.1058 -0.4420 -0.9647
19228TIP3   OH279174   3.244   2.348   2.907  0.2767  0.1299 -0.0996
19228TIP3    H179175   3.305   2.325   2.837 -0.6905 -1.6972 -0.4255
19228TIP3    H279176   3.205   2.431   2.879  3.4510  2.0590  0.7479
19229TIP3   OH279177   6.072   2.941  12.903 -0.2174 -0.0271 -0.1858
19229TIP3    H179178   6.156   2.896  12.889 -0.0540 -0.6188  2.2838
19229TIP3    H279179   6.073   2.965  12.996 -3.0353 -0.6077  0.0749
19230TIP3   OH279180   6.608   4.021  13.859 -0.2791  0.1989  0.4430
19230TIP3    H179181   6.668   4.095  13.865  0.0471 -0.1124  1.1466
19230TIP3    H279182   6.664   3.946  13.838 -0.5319  0.0546  0.2805
19231TIP3   OH279183   1.236   5.718  16.762 -0.1292  0.3220 -0.4113
19231TIP3    H179184   1.238   5.768  16.844  0.0801 -0.4126  0.0468
19231TIP3    H279185   1.185   5.772  16.702 -0.6900  0.6622  0.3485
19232TIP3   OH279186   4.753   6.520   2.352 -0.3110 -0.1837  0.2081
19232TIP3    H179187   4.741   6.557   2.265  1.2451  0.1896  0.1205
19232TIP3    H279188   4.823   6.455   2.341 -0.6108 -0.6693  1.0463
19233TIP3   OH279189   3.872   6.805   2.109  0.2239 -0.3558  0.5697
19233TIP3    H179190   3.810   6.738   2.137 -1.2191  0.9751  0.7190
19233TIP3    H279191   3.846   6.883   2.158  0.8795  0.7147 -0.7169
19234TIP3   OH279192   0.135   2.727  14.535  0.8425 -0.7515 -0.1604
19234TIP3    H179193   0.072   2.693  14.599  0.2433 -0.7676 -0.7554
19234TIP3    H279194   0.160   2.813  14.569 -1.9179  0.6960 -1.4857
19235TIP3   OH279195   6.804   4.146  16.771  0.3426 -0.3516 -0.3777
19235TIP3    H179196   6.837   4.116  16.687  0.5223 -0.8265 -0.1412
19235TIP3    H279197   6.749   4.221  16.750  1.6494  0.5175 -0.7632
19236TIP3   OH279198   1.534   0.703   5.134  0.0208 -0.0099  0.1902
19236TIP3    H179199   1.615   0.705   5.186 -0.3932 -1.3746  0.9498
19236TIP3    H279200   1.467   0.740   5.192  0.0564  0.9731 -0.3805
19237TIP3   OH279201   3.490   2.352  14.067  0.1685 -0.3345 -0.6871
19237TIP3    H179202   3.580   2.351  14.099 -0.6454 -0.4818  1.8690
19237TIP3    H279203   3.452   2.271  14.100 -0.6439 -0.8169 -2.6829
19238TIP3   OH279204   2.307   2.867   5.025  0.4367  0.1492  0.1660
19238TIP3    H179205   2.327   2.950   4.982 -2.6519  0.2603 -1.3687
19238TIP3    H279206   2.226   2.885   5.075 -1.3989 -2.2697 -1.6959
19239TIP3   OH279207   1.877   0.553  15.337 -0.0004  0.3405  1.0618
19239TIP3    H179208   1.865   0.471  15.385 -0.2402 -0.8557 -0.9163
19239TIP3    H279209   1.924   0.527  15.257 -2.1126  1.6964 -0.7320
19240TIP3   OH279210   1.165   5.106   1.183  0.6920 -0.4028 -0.6860
19240TIP3    H179211   1.254   5.078   1.161  1.0882 -1.5734  2.0654
19240TIP3    H279212   1.174   5.150   1.267 -1.1319  0.9861 -1.1565
19241TIP3   OH279213   4.934   1.188  12.829 -0.8617  0.4188  1.1578
19241TIP3    H179214   4.865   1.196  12.763  1.1576 -0.5620 -1.2249
19241TIP3    H279215   4.940   1.094  12.846  0.7258  0.3635  0.3684
19242TIP3   OH279216   4.226   6.229   3.812  0.2269 -0.4265  0.0116
19242TIP3    H179217   4.206   6.152   3.865 -1.0759  0.3894  0.7820
19242TIP3    H279218   4.307   6.264   3.849  0.7000 -1.2964 -0.2005
19243TIP3   OH279219   4.736   0.206  16.224  0.0305 -0.0747  0.2088
19243TIP3    H179220   4.738   0.181  16.316 -0.3554  0.2848  0.3174
19243TIP3    H279221   4.656   0.167  16.190  0.4464 -0.6603 -0.1090
19244TIP3   OH279222   5.409   5.609   6.090  0.3278 -0.0487  0.0033
19244TIP3    H179223   5.495   5.579   6.117  0.6715  1.4114  0.6359
19244TIP3    H279224   5.349   5.574   6.156  0.9102  1.8043  1.6238
19245TIP3   OH279225   1.408   3.650   5.819  0.0084 -0.1836 -0.2338
19245TIP3    H179226   1.432   3.723   5.876 -1.5514 -0.3084  0.6296
19245TIP3    H279227   1.491   3.621   5.781  1.1505 -0.2082  2.1044
19246TIP3   OH279228   2.854   4.685   1.991  0.3600 -0.1121 -0.1298
19246TIP3    H179229   2.912   4.649   2.059  1.2534  0.9335 -0.3198
19246TIP3    H279230   2.791   4.738   2.040  1.2607  0.9847 -0.1268
19247TIP3   OH279231   3.642   4.098   5.292 -0.3572  0.0144 -0.4717
19247TIP3    H179232   3.620   4.165   5.228  0.2427  0.2614 -0.4283
19247TIP3    H279233   3.603   4.018   5.258 -0.1895  0.1784 -1.0510
19248TIP3   OH279234   6.781   3.394   6.039  0.5699  0.1678  0.1411
19248TIP3    H179235   6.775   3.317   6.095  0.6056 -0.2935 -0.4713
19248TIP3    H279236   6.691   3.427   6.033  0.3906 -0.3788 -0.3353
19249TIP3   OH279237   1.499   4.380   1.394  0.5702  0.3516 -0.4884
19249TIP3    H179238   1.454   4.416   1.317 -0.5318  0.3217  0.1226
19249TIP3    H279239   1.544   4.455   1.432  0.0359  0.6451 -0.4253
19250TIP3   OH279240   5.626   3.998  14.382 -0.4054  0.4953  0.4575
19250TIP3    H179241   5.654   4.084  14.352 -1.4205  0.4299 -0.7148
19250TIP3    H279242   5.662   3.991  14.471  2.2375  0.9061 -0.4802
19251TIP3   OH279243   5.902   1.833   5.214  0.6965 -0.2900 -0.5492
19251TIP3    H179244   5.861   1.762   5.264 -1.4387 -0.2259 -2.0621
19251TIP3    H279245   5.962   1.874   5.276 -2.4695  0.4467  2.3764
19252TIP3   OH279246   2.315   2.461  13.744 -0.1402 -0.1655 -0.2653
19252TIP3    H179247   2.381   2.496  13.684 -1.4495  1.4725 -0.8199
19252TIP3    H279248   2.329   2.508  13.826 -0.3245 -0.1554 -0.2395
19253TIP3   OH279249   3.744   3.691  12.803  0.8116 -0.1097  0.1370
19253TIP3    H179250   3.708   3.689  12.714  0.1382 -0.4612  0.4081
19253TIP3    H279251   3.786   3.606  12.813  0.9794 -0.0297  0.1251
19254TIP3   OH279252   2.694   5.125   0.511 -0.0541 -0.2068  0.7166
19254TIP3    H179253   2.637   5.056   0.476  0.2417 -0.3049  0.4157
19254TIP3    H279254   2.720   5.094   0.597 -0.8873  0.0902  1.0785
19255TIP3   OH279255   0.454   6.726   0.722 -0.0169  0.0265  0.3796
19255TIP3    H179256   0.478   6.818   0.738  2.2105 -0.1960 -1.2540
19255TIP3    H279257   0.412   6.727   0.636  0.7671 -0.5728 -0.0216
19256TIP3   OH279258   5.776   5.173   9.738 -0.3409 -0.5480 -0.1619
19256TIP3    H179259   5.684   5.200   9.741 -0.0347  0.5162  0.3477
19256TIP3    H279260   5.781   5.096   9.794 -0.3514  1.3428  2.6570
19257TIP3   OH279261   2.720   1.123  11.685 -0.8883 -0.2440  0.2892
19257TIP3    H179262   2.767   1.083  11.758 -1.1731  0.1259  0.6764
19257TIP3    H279263   2.668   1.193  11.724  1.0527  1.8310 -0.5653
19258TIP3   OH279264   3.096   1.131  16.023  0.1897  0.3739  0.6135
19258TIP3    H179265   3.187   1.113  16.049 -0.1009  0.2196  1.5871
19258TIP3    H279266   3.103   1.180  15.941  1.2104  1.4252  1.2851
19259TIP3   OH279267   2.142   2.025   4.344 -0.5011  0.0809 -0.8061
19259TIP3    H179268   2.075   2.030   4.277 -1.5445  0.6892  0.2417
19259TIP3    H279269   2.193   2.106   4.334 -0.1792 -0.1829 -1.3297
19260TIP3   OH279270   6.120   5.922  15.467  0.6484  0.3678  0.0059
19260TIP3    H179271   6.076   5.990  15.518  0.9725 -0.6660  1.7830
19260TIP3    H279272   6.211   5.951  15.461  0.6362  0.4350  0.1359
19261TIP3   OH279273   2.239   5.210  13.757 -0.2825 -0.2569  0.1417
19261TIP3    H179274   2.303   5.180  13.821  0.9301 -0.5192 -1.1372
19261TIP3    H279275   2.212   5.296  13.789  2.6870  1.0737 -0.5584
19262TIP3   OH279276   3.884   2.036  12.539 -0.5286 -0.3799 -0.7635
19262TIP3    H179277   3.926   2.017  12.623  0.0060 -0.5739 -1.0656
19262TIP3    H279278   3.795   2.063  12.562 -0.4848 -0.7245 -0.1567
19263TIP3   OH279279   1.104   4.929   4.282  0.3347  0.2011  0.0171
19263TIP3    H179280   1.025   4.897   4.239  0.5268 -0.2470 -0.0075
19263TIP3    H279281   1.166   4.944   4.211  0.3080  0.4561  0.0460
19264TIP3   OH279282   6.426   6.818  13.483 -0.0324  0.3775 -0.3348
19264TIP3    H179283   6.426   6.914  13.478 -0.6405  0.4084  0.1351
19264TIP3    H279284   6.441   6.799  13.575  1.5136 -0.0179 -0.6311
19265TIP3   OH279285   0.087   5.784  15.415  0.3128 -0.7311  0.5606
19265TIP3    H179286   0.128   5.870  15.426  1.4538 -1.2874  0.8893
19265TIP3    H279287  -0.002   5.795  15.448 -0.9300  1.3579 -3.0041
19266TIP3   OH279288   6.077   1.231  16.624 -0.1782 -0.4877  0.6256
19266TIP3    H179289   6.124   1.287  16.686  1.7757 -0.7314 -0.5713
19266TIP3    H279290   6.001   1.284  16.598  1.1165  1.2758  0.2299
19267TIP3   OH279291   3.230   1.823   5.853  0.1627  0.1794 -0.3286
19267TIP3    H179292   3.176   1.902   5.844  0.8103  0.4678 -2.0551
19267TIP3    H279293   3.219   1.776   5.770  0.9820 -0.7810  0.0802
19268TIP3   OH279294   2.223   6.051  13.794  0.3770  0.6956 -0.2522
19268TIP3    H179295   2.234   6.077  13.886 -0.8234  3.5721 -0.8055
19268TIP3    H279296   2.303   6.081  13.751  0.1252  1.1028 -0.4439
19269TIP3   OH279297   3.757   1.263   1.572 -0.3097 -0.1312  0.0909
19269TIP3    H179298   3.745   1.309   1.655  1.7749 -0.7850  0.8181
19269TIP3    H279299   3.726   1.325   1.506 -0.3260  1.1359  1.2430
19270TIP3   OH279300   2.205   4.766  15.616 -0.0278 -0.4973  0.2323
19270TIP3    H179301   2.163   4.851  15.630 -0.7426 -0.9794  1.0744
19270TIP3    H279302   2.278   4.764  15.678 -0.2025 -0.6268  0.4334
19271TIP3   OH279303   2.143   1.206  11.901 -0.4616  0.2905  0.0267
19271TIP3    H179304   2.196   1.216  11.980  1.8357 -0.0694 -1.3711
19271TIP3    H279305   2.089   1.285  11.898  0.9140  1.3024  0.9051
19272TIP3   OH279306   4.082   3.081   4.924 -0.0026 -0.4380  0.1164
19272TIP3    H179307   4.157   3.098   4.866 -0.8846 -0.4403 -1.0557
19272TIP3    H279308   4.009   3.063   4.865 -1.6038  2.0995  1.1162
19273TIP3   OH279309   5.122   4.772  13.558  0.0587  0.4016  0.1701
19273TIP3    H179310   5.061   4.839  13.590 -1.7240 -0.7590 -0.6521
19273TIP3    H279311   5.069   4.717  13.499  1.3188 -2.0119  1.1611
19274TIP3   OH279312   2.344   0.091  10.207 -0.8087  0.3654  0.0308
19274TIP3    H179313   2.421   0.041  10.234 -1.2231 -1.7390 -2.3063
19274TIP3    H279314   2.271   0.050  10.254 -0.7838  0.7314  0.3842
19275TIP3   OH279315   6.831   1.566   5.154  0.6454  0.1380  0.1704
19275TIP3    H179316   6.740   1.588   5.132  0.8978 -0.5346 -1.7510
19275TIP3    H279317   6.850   1.618   5.231 -1.5082 -0.0323  0.8832
19276TIP3   OH279318   4.792   3.263  15.482  0.1540  0.2118 -0.6611
19276TIP3    H179319   4.790   3.174  15.518  1.6070  0.1400 -0.7015
19276TIP3    H279320   4.709   3.272  15.435  0.7962 -1.8549 -2.3597
19277TIP3   OH279321   4.401   2.345   1.082 -0.6017 -0.1259  0.0852
19277TIP3    H179322   4.480   2.386   1.048 -1.7556  1.0986 -1.2751
19277TIP3    H279323   4.421   2.327   1.174  0.7789  1.3810  0.1238
19278TIP3   OH279324   2.421   5.244  11.797 -0.0325  0.2231 -0.1332
19278TIP3    H179325   2.382   5.259  11.711  0.5863 -0.0006 -0.4600
19278TIP3    H279326   2.356   5.278  11.859 -0.2388  0.9035 -0.7057
19279TIP3   OH279327   3.228   5.856  16.132 -0.5039  0.1327 -0.0120
19279TIP3    H179328   3.252   5.848  16.224 -0.8543  1.0493  0.1718
19279TIP3    H279329   3.235   5.767  16.097  1.5637  0.0809  0.4109
19280TIP3   OH279330   1.770   1.006   5.323 -0.3244 -0.2802  0.0689
19280TIP3    H179331   1.824   1.051   5.387  0.1894  0.6954 -1.0274
19280TIP3    H279332   1.805   0.917   5.322 -1.3996 -0.8162  2.3041
19281TIP3   OH279333   1.318   1.891  16.133 -0.4085  0.6465 -0.4182
19281TIP3    H179334   1.267   1.972  16.128  0.0014  0.8320 -2.4430
19281TIP3    H279335   1.386   1.902  16.067  1.6381 -0.0517  1.4366
19282TIP3   OH279336   3.595   2.745   5.587  0.0879 -0.1639 -0.4454
19282TIP3    H179337   3.517   2.781   5.545 -2.7712 -3.0197  1.8505
19282TIP3    H279338   3.628   2.681   5.525  0.5935  0.9379 -1.3623
19283TIP3   OH279339   0.946   4.036  14.960  0.5828  0.2338 -0.6274
19283TIP3    H179340   0.863   3.989  14.951  0.7493  0.1219 -1.7216
19283TIP3    H279341   0.933   4.117  14.911  0.2488  1.4443  1.3475
19284TIP3   OH279342   3.971   1.297   5.313 -0.4042  0.2255 -0.2102
19284TIP3    H179343   4.064   1.290   5.335 -0.5854  1.2356  0.9713
19284TIP3    H279344   3.955   1.223   5.254  0.2643 -2.4245  2.6498
19285TIP3   OH279345   0.491   6.330   5.704  0.0813  0.7125 -0.6194
19285TIP3    H179346   0.550   6.260   5.730 -1.3888 -1.2507 -2.2369
19285TIP3    H279347   0.412   6.317   5.758 -0.6555  0.3408 -1.7496
19286TIP3   OH279348   0.001   2.628  11.363  0.1016  0.8189  0.0355
19286TIP3    H179349   0.030   2.719  11.361  0.7231  0.6109 -0.9588
19286TIP3    H279350   0.044   2.587  11.288  0.4595 -0.4888  0.9229
19287TIP3   OH279351   5.675   0.887  16.162  0.0154 -0.4442  0.0469
19287TIP3    H179352   5.637   0.949  16.100 -1.8809 -0.8053  0.7757
19287TIP3    H279353   5.725   0.826  16.108 -2.7262 -1.5947 -1.3651
19288TIP3   OH279354   0.575   1.943  11.944 -0.7721 -0.0472 -0.1495
19288TIP3    H179355   0.534   1.864  11.910 -0.6286 -0.7484  1.2219
19288TIP3    H279356   0.547   1.946  12.036  1.3225  0.0674  0.5223
19289TIP3   OH279357   6.598   1.883  11.059  0.5340 -0.0201 -0.0448
19289TIP3    H179358   6.606   1.790  11.038 -1.0016  0.1184 -1.3891
19289TIP3    H279359   6.663   1.926  11.004  0.1176 -0.1509 -0.6446
19290TIP3   OH279360   0.432   5.707  15.481  0.6121  0.3878 -1.1051
19290TIP3    H179361   0.447   5.799  15.502 -0.3176  0.8179 -2.2105
19290TIP3    H279362   0.418   5.706  15.386  0.5470 -0.8883 -1.1000
19291TIP3   OH279363   6.086   1.313  14.473  0.6650 -0.3507 -0.2668
19291TIP3    H179364   6.021   1.384  14.480  0.0157 -0.8172 -1.3680
19291TIP3    H279365   6.147   1.343  14.407  2.0925  0.4423  1.3274
19292TIP3   OH279366   5.524   1.917   3.098  0.3179  0.0164 -0.1164
19292TIP3    H179367   5.507   1.844   3.158  1.3759 -0.6368 -0.5634
19292TIP3    H279368   5.512   1.996   3.151  0.5676 -0.5277  0.7747
19293TIP3   OH279369   3.075   0.537  13.672  0.1228 -0.1206 -0.4678
19293TIP3    H179370   3.090   0.611  13.613 -0.7174  1.0302  0.7150
19293TIP3    H279371   2.987   0.506  13.651 -0.7332  1.1460  0.9993
19294TIP3   OH279372   0.025   3.173  15.106  0.0184  0.1626 -0.1678
19294TIP3    H179373   0.023   3.268  15.112  1.4709  0.1932  0.3455
19294TIP3    H279374   0.106   3.154  15.057  1.2521 -0.8427  2.1010
19295TIP3   OH279375   3.890   4.399   3.479  0.3679  0.2699  0.3275
19295TIP3    H179376   3.867   4.363   3.565  2.4336 -1.0795  0.3791
19295TIP3    H279377   3.982   4.424   3.488  0.5503  0.2929 -1.4271
19296TIP3   OH279378   6.353   2.080   4.338 -0.8085  0.8872 -0.4237
19296TIP3    H179379   6.263   2.081   4.370 -0.8187 -1.3289 -0.2759
19296TIP3    H279380   6.379   1.988   4.340  1.6922  1.5240  0.1713
19297TIP3   OH279381   3.154   0.660  12.296  0.1059  0.0850 -1.1009
19297TIP3    H179382   3.129   0.724  12.363 -0.6385 -0.4886 -0.8139
19297TIP3    H279383   3.226   0.611  12.336 -0.3068 -0.2261 -0.7292
19298TIP3   OH279384   2.803   2.004  13.738 -0.5528 -0.3771 -0.1007
19298TIP3    H179385   2.886   2.043  13.711 -0.7114 -1.3780 -2.2534
19298TIP3    H279386   2.771   2.061  13.807  0.5722  1.6843 -1.1799
19299TIP3   OH279387   5.836   1.290   1.124  0.7007  1.1583  0.2725
19299TIP3    H179388   5.896   1.280   1.198  1.3662  1.5308 -0.2042
19299TIP3    H279389   5.857   1.217   1.066  0.2774  0.9466  0.3846
19300TIP3   OH279390   5.739   4.434   1.714  0.5997 -0.3752  0.0403
19300TIP3    H179391   5.735   4.433   1.810  0.7032 -2.6547  0.0793
19300TIP3    H279392   5.831   4.447   1.693  0.6467 -0.3505  0.2651
19301TIP3   OH279393   4.391   3.267  16.599  0.3491 -0.0534  0.4235
19301TIP3    H179394   4.321   3.312  16.550  1.1180 -1.3965 -2.1177
19301TIP3    H279395   4.470   3.317  16.580  0.8076 -1.0780 -0.5145
19302TIP3   OH279396   6.263   4.344   3.618 -0.0126 -0.5191 -0.5640
19302TIP3    H179397   6.256   4.434   3.587 -1.2161 -0.0523  0.9354
19302TIP3    H279398   6.348   4.339   3.661 -0.6211  0.4282  0.8209
19303TIP3   OH279399   3.337   0.562   0.774  0.2303  0.0103 -0.2597
19303TIP3    H179400   3.345   0.651   0.808 -0.7224 -0.2151  0.6029
19303TIP3    H279401   3.425   0.539   0.746  0.6571  0.9061  0.3018
19304TIP3   OH279402   1.254   1.690  15.080  0.4654 -0.5499 -0.4132
19304TIP3    H179403   1.291   1.660  14.997 -2.1234 -0.3640 -1.7521
19304TIP3    H279404   1.222   1.778  15.061 -2.3372 -1.3948 -0.0043
19305TIP3   OH279405   6.162   6.276  10.633  0.4262 -0.4607  0.3715
19305TIP3    H179406   6.247   6.252  10.670 -0.1204 -1.5598  0.9432
19305TIP3    H279407   6.113   6.194  10.629 -1.5083  0.4993  2.4089
19306TIP3   OH279408   5.254   6.794   6.180 -0.1956  0.7259 -0.1322
19306TIP3    H179409   5.324   6.859   6.173 -0.1469  0.6709 -0.1574
19306TIP3    H279410   5.173   6.844   6.169 -0.1730  0.8328  0.1883
19307TIP3   OH279411   1.101   3.346   0.928 -0.8830 -0.0208  0.4219
19307TIP3    H179412   1.156   3.374   0.855 -1.5877 -0.8798 -0.4743
19307TIP3    H279413   1.021   3.397   0.920 -0.7772  0.2194  0.8779
19308TIP3   OH279414   4.528   2.075  16.191  0.2748  0.1463 -0.1553
19308TIP3    H179415   4.598   2.131  16.158  1.4109 -1.5044 -0.6856
19308TIP3    H279416   4.498   2.026  16.115  0.2219 -0.8923  0.5080
19309TIP3   OH279417   5.198   5.725  13.041  0.5284  0.1223 -0.7010
19309TIP3    H179418   5.273   5.776  13.011  1.1417 -0.7442 -0.7014
19309TIP3    H279419   5.154   5.781  13.105  0.5197  1.0831 -1.5268
19310TIP3   OH279420   2.955   6.068  16.784  0.2833 -0.5134 -0.6709
19310TIP3    H179421   2.902   6.036  16.711 -0.0659 -0.0297 -0.6364
19310TIP3    H279422   2.891   6.089  16.852  0.6590 -1.5743  0.0134
19311TIP3   OH279423   5.513   0.098   0.697  0.0376  0.4362  0.1957
19311TIP3    H179424   5.453   0.156   0.650  1.3390  0.9618 -0.8855
19311TIP3    H279425   5.550   0.042   0.629  1.4820  0.7744  0.6699
19312TIP3   OH279426   2.480   1.290  16.198  0.1741 -0.2380  0.1527
19312TIP3    H179427   2.527   1.368  16.227 -0.3533 -0.3890  1.5016
19312TIP3    H279428   2.540   1.218  16.217 -0.3209 -0.3747  1.3336
19313TIP3   OH279429   2.706   3.556   0.182 -0.2800 -0.0205  0.2151
19313TIP3    H179430   2.792   3.524   0.207 -0.9772 -1.2880  1.0841
19313TIP3    H279431   2.645   3.488   0.210 -1.6685  1.2657  0.4895
19314TIP3   OH279432   4.753   3.373  14.698 -0.3111  0.0247  0.3382
19314TIP3    H179433   4.828   3.320  14.672 -0.3853 -0.0179  0.2083
19314TIP3    H279434   4.692   3.366  14.624 -1.3610 -1.6673  1.3006
19315TIP3   OH279435   2.499   5.205   5.315 -0.3191  0.1100 -0.0222
19315TIP3    H179436   2.452   5.134   5.358  0.5150 -0.7515 -0.5047
19315TIP3    H279437   2.565   5.162   5.260  0.8281  1.2652  0.3831
19316TIP3   OH279438   5.921   3.913  12.894  0.0931 -0.4052 -0.4170
19316TIP3    H179439   5.943   3.821  12.877  0.0655 -0.6787  0.8956
19316TIP3    H279440   5.926   3.921  12.989  0.1313  0.9739 -0.5216
19317TIP3   OH279441   4.840   0.615  15.543  0.0497 -0.2157 -0.0198
19317TIP3    H179442   4.800   0.639  15.460  1.5389 -2.4877 -1.5037
19317TIP3    H279443   4.931   0.646  15.536  0.0997 -0.1144  0.9152
19318TIP3   OH279444   4.140   1.116  13.172  0.1444 -0.1908 -0.3282
19318TIP3    H179445   4.057   1.068  13.161  0.5336 -1.0721  0.4402
19318TIP3    H279446   4.190   1.096  13.093  0.5954 -1.6999  0.2933
19319TIP3   OH279447   2.629   4.277  16.707  0.3339 -0.2307 -0.0556
19319TIP3    H179448   2.547   4.228  16.715  0.2566 -0.0751  0.1243
19319TIP3    H279449   2.679   4.230  16.641  0.2615 -0.5528  0.1148
19320TIP3   OH279450   5.842   4.321  14.132  0.6074  0.0197  0.8842
19320TIP3    H179451   5.918   4.337  14.076 -1.7954  0.7986 -2.4750
19320TIP3    H279452   5.823   4.228  14.120 -0.1381  0.2702  0.0089
19321TIP3   OH279453   6.093   3.804   3.446  0.5857 -0.5574  0.3869
19321TIP3    H179454   6.088   3.731   3.385 -0.0229  0.1324 -0.4187
19321TIP3    H279455   6.025   3.865   3.416  0.8831  0.1992  1.2096
19322TIP3   OH279456   2.989   1.073  12.204  0.5521 -0.3035  0.3147
19322TIP3    H179457   2.999   0.989  12.247 -1.0767 -1.2359 -1.0094
19322TIP3    H279458   2.941   1.054  12.123 -1.3126  2.0682  0.7263
19323TIP3   OH279459   3.867   0.321  14.832  0.4960 -0.1725  0.7161
19323TIP3    H179460   3.912   0.316  14.748 -0.1732 -1.5166  0.4145
19323TIP3    H279461   3.777   0.346  14.810  0.7485  1.2421  1.2040
19324TIP3   OH279462   0.242   2.806  15.818  0.2464 -0.5072  0.3325
19324TIP3    H179463   0.233   2.779  15.726  1.2260 -0.0735  0.0915
19324TIP3    H279464   0.255   2.724  15.865  0.8830 -0.6524 -0.0788
19325TIP3   OH279465   5.838   6.752   3.345  0.5277  0.0247 -0.0299
19325TIP3    H179466   5.785   6.820   3.388 -1.7421 -1.7349  0.1813
19325TIP3    H279467   5.792   6.670   3.366  2.7930 -1.5221 -0.7920
19326TIP3   OH279468   5.112   3.349   5.023 -0.0451  0.1458 -0.4337
19326TIP3    H179469   5.066   3.426   5.054 -0.2093  0.1072 -0.5776
19326TIP3    H279470   5.068   3.275   5.066  1.4355  0.2312  1.3702
19327TIP3   OH279471   1.400   5.055   5.287  0.1414 -0.3086  0.1816
19327TIP3    H179472   1.354   5.103   5.219  0.6518  1.0513  0.7688
19327TIP3    H279473   1.336   5.041   5.356 -0.5964 -2.3488 -0.8154
19328TIP3   OH279474   1.012   0.957   1.502  0.2540  0.0481 -0.6285
19328TIP3    H179475   1.005   0.923   1.591 -0.8734  1.7762 -0.0213
19328TIP3    H279476   1.042   1.047   1.513 -1.1238  0.6948 -1.9125
19329TIP3   OH279477   4.308   2.068   5.913 -0.6510 -0.4171  0.0292
19329TIP3    H179478   4.218   2.067   5.946 -0.3041 -0.1241  1.0309
19329TIP3    H279479   4.362   2.064   5.992  0.2243  1.0507 -0.4491
19330TIP3   OH279480   4.108   0.486   0.015 -0.9083 -0.5390  0.3298
19330TIP3    H179481   4.138   0.574  -0.008  1.3843 -1.2537  0.3747
19330TIP3    H279482   4.028   0.473  -0.037  0.6344  0.2670 -2.3990
19331TIP3   OH279483   3.749   3.343   6.840 -0.3854 -0.0689  0.4477
19331TIP3    H179484   3.660   3.338   6.807 -0.0779 -0.4220 -0.3437
19331TIP3    H279485   3.767   3.437   6.848 -0.8946  0.0019  0.8284
19332TIP3   OH279486   5.705   1.669  14.802  0.0821 -0.0340  0.7320
19332TIP3    H179487   5.654   1.727  14.857  0.2617  1.6013 -0.7344
19332TIP3    H279488   5.795   1.703  14.808  0.7301 -1.8239  1.9335
19333TIP3   OH279489   5.342   2.603  16.991 -0.9021  0.1428 -0.6632
19333TIP3    H179490   5.314   2.516  16.964 -0.5450  0.0806 -0.8372
19333TIP3    H279491   5.426   2.590  17.034 -0.7000  0.4330 -0.9571
19334TIP3   OH279492   1.779   2.552  10.357  0.2293  0.4255  0.1670
19334TIP3    H179493   1.772   2.638  10.398  0.7870  1.2422 -1.4082
19334TIP3    H279494   1.838   2.564  10.283 -0.5882 -1.0548 -0.7886
19335TIP3   OH279495   5.416   2.827  12.759 -0.0894  0.0937 -0.6645
19335TIP3    H179496   5.492   2.859  12.809  1.0514 -0.2984 -2.1075
19335TIP3    H279497   5.434   2.735  12.744 -1.2766 -0.2084 -0.3052
19336TIP3   OH279498   0.208   6.683  13.674  0.0357 -0.5042  0.0034
19336TIP3    H179499   0.204   6.739  13.597 -2.1270 -2.1440 -1.1885
19336TIP3    H279500   0.121   6.686  13.712  0.1648 -2.1772  0.5361
19337TIP3   OH279501   5.669   3.672   0.513 -0.0551 -0.2698  0.0757
19337TIP3    H179502   5.648   3.733   0.442  3.2014  1.8112  0.6748
19337TIP3    H279503   5.669   3.586   0.471 -0.1351  0.6692 -1.9892
19338TIP3   OH279504   3.171   1.165   2.235  0.3940 -0.5231  0.1405
19338TIP3    H179505   3.186   1.114   2.155  0.3332  1.8979 -1.5294
19338TIP3    H279506   3.170   1.100   2.305 -0.2581 -2.8558 -1.8886
19339TIP3   OH279507   1.226   5.059   1.957 -0.1872  0.1549 -0.2016
19339TIP3    H179508   1.199   5.142   1.918 -1.0126 -0.9205 -2.0105
19339TIP3    H279509   1.261   5.008   1.885  1.8743 -0.5033  1.1694
19340TIP3   OH279510   2.774   5.577  16.727 -0.3719 -0.3955 -0.1957
19340TIP3    H179511   2.857   5.583  16.774 -0.8103 -0.3577  0.5729
19340TIP3    H279512   2.766   5.484  16.703 -0.6046 -0.5930  0.6381
19341TIP3   OH279513   1.195   0.165  13.261 -0.2751 -0.2125 -0.5956
19341TIP3    H179514   1.107   0.137  13.238 -0.6643  0.7337 -0.3163
19341TIP3    H279515   1.245   0.084  13.270 -1.3132 -0.8025  0.0454
19342TIP3   OH279516   6.795   3.071   1.127 -0.0753 -0.0866 -0.0925
19342TIP3    H179517   6.749   2.989   1.107 -0.3293  0.0791 -0.1786
19342TIP3    H279518   6.886   3.043   1.145  0.3178 -0.1715 -2.0511
19343TIP3   OH279519   0.289   3.673  12.261  0.1708  0.3403 -0.0648
19343TIP3    H179520   0.233   3.602  12.230 -1.6277  1.3553  0.6868
19343TIP3    H279521   0.321   3.642  12.346 -1.5314  0.8337  0.7955
19344TIP3   OH279522   1.546   2.709  14.631 -0.2917  0.1367  0.6082
19344TIP3    H179523   1.580   2.787  14.587 -2.1810  0.6904  0.0058
19344TIP3    H279524   1.616   2.644  14.623  0.3947  1.0160 -1.0622
19345TIP3   OH279525   6.539   3.286   5.382 -1.0308  0.1357 -0.1596
19345TIP3    H179526   6.467   3.228   5.358 -0.7894 -0.6318  0.9166
19345TIP3    H279527   6.527   3.363   5.327 -2.4043 -0.1811 -0.3335
19346TIP3   OH279528   0.607   5.442   2.197 -0.0859  0.0642  0.5823
19346TIP3    H179529   0.597   5.347   2.188  0.9420  0.0926 -1.3232
19346TIP3    H279530   0.697   5.454   2.228 -0.7688  0.3840  2.5543
19347TIP3   OH279531   0.984   4.184  15.181  0.1752  0.6598  0.0979
19347TIP3    H179532   1.052   4.241  15.145 -0.4770  1.8486  0.6832
19347TIP3    H279533   0.936   4.152  15.105  1.6849 -0.6395 -0.3684
19348TIP3   OH279534   4.116   5.423   5.395  0.0442  0.6070  0.0539
19348TIP3    H179535   4.189   5.468   5.353  0.7135 -1.4605 -1.1371
19348TIP3    H279536   4.155   5.384   5.474 -0.2301  1.0232  0.4004
19349TIP3   OH279537   1.421   3.655  14.501  0.3931  0.3772 -0.7801
19349TIP3    H179538   1.444   3.734  14.550  1.1422  1.1625 -2.3168
19349TIP3    H279539   1.425   3.681  14.409 -0.8130 -1.0765 -1.3047
19350TIP3   OH279540   1.679   2.786  12.542  0.1286  0.2121 -0.2980
19350TIP3    H179541   1.743   2.841  12.587  0.1908  0.4728 -0.6963
19350TIP3    H279542   1.731   2.718  12.500  0.1392  0.3834 -0.5637
19351TIP3   OH279543   2.835   1.763   4.163  0.0727  0.4525  0.9666
19351TIP3    H179544   2.813   1.817   4.087  0.4459 -0.3127  0.2935
19351TIP3    H279545   2.755   1.714   4.181  0.7893 -1.5261 -0.8009
19352TIP3   OH279546   1.692   2.488  14.005  0.2433  0.4784 -0.0442
19352TIP3    H179547   1.620   2.509  14.065  1.5335  1.3828  1.2317
19352TIP3    H279548   1.676   2.542  13.928  0.2187  1.6307  0.7465
19353TIP3   OH279549   3.690   5.863   1.298  0.2130 -0.0305 -0.2897
19353TIP3    H179550   3.672   5.831   1.210  0.5173  0.0617 -0.3842
19353TIP3    H279551   3.676   5.786   1.354 -2.6353  0.5144 -0.0812
19354TIP3   OH279552   4.138   6.412   5.263 -0.2632  0.3147  0.2246
19354TIP3    H179553   4.112   6.452   5.180  0.6561  0.9990  0.2529
19354TIP3    H279554   4.206   6.349   5.238  1.2433  1.7349  0.6184
19355TIP3   OH279555   2.673   5.474  14.860 -0.3211 -0.0428  0.7238
19355TIP3    H179556   2.586   5.475  14.900 -0.4839 -1.0998  0.4310
19355TIP3    H279557   2.675   5.552  14.804 -1.1689 -0.1255  0.5632
19356TIP3   OH279558   0.456   3.255  16.263  0.1230  0.2578 -0.4253
19356TIP3    H179559   0.461   3.224  16.172  0.2681  3.2711 -1.5573
19356TIP3    H279560   0.527   3.319  16.271  0.2256 -0.0635  1.9060
19357TIP3   OH279561   1.901   6.813  17.076 -0.1207  0.1582 -0.4740
19357TIP3    H179562   1.902   6.799  16.982 -1.9572  2.9660 -1.0253
19357TIP3    H279563   1.818   6.774  17.105 -0.1613  0.4255 -0.2293
19358TIP3   OH279564   3.794   6.087  15.512  0.1102  0.3809  0.1082
19358TIP3    H179565   3.882   6.068  15.479  0.7060  0.4765  1.5718
19358TIP3    H279566   3.799   6.065  15.605 -1.2001  1.1311  0.3656
19359TIP3   OH279567   1.010   5.029  12.717  0.0421  0.0944  0.0264
19359TIP3    H179568   0.944   5.096  12.699 -0.3528  0.5449  2.6944
19359TIP3    H279569   1.079   5.045  12.653 -0.7697  2.0236 -0.4315
19360TIP3   OH279570   5.228   5.479  14.880 -0.1054 -0.1232 -0.7730
19360TIP3    H179571   5.249   5.390  14.852  0.3010  0.3201 -1.9260
19360TIP3    H279572   5.261   5.535  14.810  1.0077  1.0582  0.6406
19361TIP3   OH279573   2.968   1.258   3.803  0.3799 -0.0626 -0.6513
19361TIP3    H179574   3.046   1.211   3.774  0.1122 -1.6006  0.9636
19361TIP3    H279575   2.959   1.330   3.740  0.9670 -1.9710 -3.0776
19362TIP3   OH279576   6.156   5.719  10.576  0.1466  0.4920  0.6299
19362TIP3    H179577   6.153   5.705  10.671 -0.0886 -0.9289  0.4333
19362TIP3    H279578   6.093   5.657  10.540  0.5356  0.7152 -0.4924
19363TIP3   OH279579   2.300   6.489   3.437 -0.1201  0.2299  0.6799
19363TIP3    H179580   2.267   6.565   3.389 -1.1367  0.2812  1.4323
19363TIP3    H279581   2.306   6.518   3.527 -0.3159 -0.5198  0.9454
19364TIP3   OH279582   3.004   2.967  14.228  0.0350  0.1071 -0.0401
19364TIP3    H179583   3.077   2.943  14.170 -0.4763 -2.1066  0.1304
19364TIP3    H279584   2.926   2.950  14.176 -0.3836  0.5616  0.4375
19365TIP3   OH279585   3.147   3.749   4.719  0.0798 -0.3541 -0.3056
19365TIP3    H179586   3.174   3.772   4.630  0.6013 -0.6413 -0.2219
19365TIP3    H279587   3.156   3.654   4.723  0.1415 -0.3311  0.0858
19366TIP3   OH279588   6.467   0.889  11.792 -0.2282  0.1694 -0.4059
19366TIP3    H179589   6.438   0.979  11.809 -0.1775  0.1215 -0.0425
19366TIP3    H279590   6.557   0.887  11.825  0.2580  0.3564 -1.6559
19367TIP3   OH279591   6.401   0.179   0.649  0.3928  0.7085 -0.8447
19367TIP3    H179592   6.316   0.136   0.665  1.2755 -1.0302 -0.5516
19367TIP3    H279593   6.446   0.122   0.587  2.9900 -0.8049  2.1308
19368TIP3   OH279594   6.408   4.585   0.462 -0.5097  0.0134  0.5172
19368TIP3    H179595   6.449   4.605   0.378  2.5516 -2.0946  1.3588
19368TIP3    H279596   6.328   4.538   0.439 -0.6921  1.0740 -1.1926
19369TIP3   OH279597   1.013   2.596  10.826 -0.3162 -0.1657  0.0495
19369TIP3    H179598   1.025   2.502  10.811 -0.8521 -0.4840  1.4779
19369TIP3    H279599   0.947   2.622  10.762 -0.2637 -0.7752 -0.2656
19370TIP3   OH279600   4.301   3.213   5.680 -0.0939  0.3048 -1.3265
19370TIP3    H179601   4.226   3.205   5.740 -0.4053 -1.2610 -1.8943
19370TIP3    H279602   4.280   3.289   5.626 -0.2559  1.1683 -0.1022
19371TIP3   OH279603   5.500   6.464  12.516 -0.2825 -0.0919  0.0439
19371TIP3    H179604   5.480   6.394  12.578 -1.0949  0.0174 -0.0737
19371TIP3    H279605   5.575   6.433  12.467  1.0905  0.2801  1.8096
19372TIP3   OH279606   4.911   0.438  14.393 -0.4619  0.7317  0.3326
19372TIP3    H179607   4.860   0.421  14.313 -2.6229 -0.3437  1.8554
19372TIP3    H279608   4.931   0.532  14.388 -1.1928  0.8468 -1.1190
19373TIP3   OH279609   1.806   1.046   2.762 -0.1174  0.1880 -0.2023
19373TIP3    H179610   1.890   1.007   2.786 -0.1288 -0.1136 -0.6244
19373TIP3    H279611   1.741   1.000   2.816  0.0041  0.5315  0.2370
19374TIP3   OH279612   4.923   6.699   3.366 -0.0550 -0.1021  0.0253
19374TIP3    H179613   4.847   6.748   3.335 -0.5035 -1.6301 -1.4775
19374TIP3    H279614   4.942   6.735   3.452 -0.7310  2.2325 -0.7282
19375TIP3   OH279615   1.515   0.040  12.404 -0.0502 -0.2154  0.0538
19375TIP3    H179616   1.457  -0.028  12.437 -0.8138  0.3826 -0.0405
19375TIP3    H279617   1.602  -0.001  12.404 -0.6284 -1.4905 -0.8806
19376TIP3   OH279618   5.759   5.615  13.863 -0.1752 -0.5232 -0.2066
19376TIP3    H179619   5.752   5.519  13.859  1.0264 -0.7597  2.0008
19376TIP3    H279620   5.853   5.631  13.864 -0.3623  0.7547 -1.1551
19377TIP3   OH279621   5.878   6.607  11.833 -0.2008  0.1569 -0.1198
19377TIP3    H179622   5.964   6.566  11.837 -0.6995 -0.8893  0.3336
19377TIP3    H279623   5.839   6.592  11.919 -0.6979  0.9290 -0.1991
19378TIP3   OH279624   2.680   2.922  13.095  0.0381  0.1504  0.1183
19378TIP3    H179625   2.746   2.974  13.140  0.4185 -0.1033 -0.1439
19378TIP3    H279626   2.597   2.948  13.136  0.2751  0.6098  0.3133
19379TIP3   OH279627   1.684   4.785   3.166  0.0952  0.2616  0.0934
19379TIP3    H179628   1.683   4.763   3.260  0.5101  1.4070  0.3896
19379TIP3    H279629   1.776   4.804   3.148  0.1688 -0.8243 -0.7850
19380TIP3   OH279630   3.038   2.351   1.307 -0.3937 -0.2975  0.8002
19380TIP3    H179631   3.107   2.287   1.288  0.5568  0.8390  0.3273
19380TIP3    H279632   2.966   2.298   1.344 -0.4847 -1.9333 -1.5234
19381TIP3   OH279633   5.161   4.037   2.075 -0.1019 -0.1966  0.1732
19381TIP3    H179634   5.181   3.952   2.038 -0.4496 -1.0426  1.8159
19381TIP3    H279635   5.108   4.018   2.153 -1.7601  1.6014 -0.4040
19382TIP3   OH279636   5.682   4.730  12.404 -0.3324 -0.2555  0.0023
19382TIP3    H179637   5.731   4.807  12.376  1.7520 -1.6678 -0.4829
19382TIP3    H279638   5.623   4.711  12.330 -0.6820  0.6956  0.0256
19383TIP3   OH279639   5.350   1.628   4.934 -0.3503  0.1884  0.3915
19383TIP3    H179640   5.307   1.714   4.934  1.6117  1.2515  2.4874
19383TIP3    H279641   5.375   1.613   5.025 -1.7211 -3.2485  0.3555
19384TIP3   OH279642   4.667   4.079   5.931 -0.5472  0.6923 -0.6591
19384TIP3    H179643   4.600   4.134   5.891 -0.5815  0.6966 -0.5963
19384TIP3    H279644   4.627   4.048   6.013  0.4747  2.8186  0.7294
19385TIP3   OH279645   5.044   4.198  11.810 -0.1518  0.2218  0.7976
19385TIP3    H179646   5.112   4.134  11.831 -0.7076 -1.4419 -2.0315
19385TIP3    H279647   4.964   4.147  11.805 -0.5876  1.0363 -1.7206
19386TIP3   OH279648   3.779   2.245   5.507  0.7139  0.3664 -0.2219
19386TIP3    H179649   3.700   2.242   5.452  0.2974  1.4448  0.2765
19386TIP3    H279650   3.752   2.297   5.583  1.6720  0.0310  0.3511
19387TIP3   OH279651   2.518   3.563  15.623 -0.4928  0.0668 -0.3563
19387TIP3    H179652   2.457   3.558  15.697 -0.0403 -0.8153 -0.0224
19387TIP3    H279653   2.604   3.579  15.663 -0.5344  1.7277 -0.8537
19388TIP3   OH279654   3.209   3.220  10.804  1.1040 -0.3781 -0.1007
19388TIP3    H179655   3.131   3.192  10.854  1.2263 -1.1311 -0.3195
19388TIP3    H279656   3.251   3.285  10.861 -0.1972  0.7786 -0.3993
19389TIP3   OH279657   5.657   5.300  16.686 -0.1643  0.1091 -0.2656
19389TIP3    H179658   5.677   5.217  16.729 -0.2169  0.1576 -0.1464
19389TIP3    H279659   5.674   5.366  16.752 -1.7584  0.0842  0.2220
19390TIP3   OH279660   2.600   1.645  11.369  0.3469 -0.0601 -0.1774
19390TIP3    H179661   2.540   1.608  11.304  1.0709 -0.0126 -0.8811
19390TIP3    H279662   2.576   1.602  11.451  0.3827 -1.1992 -0.7516
19391TIP3   OH279663   6.377   4.295   4.277 -0.6493 -0.4754 -1.0390
19391TIP3    H179664   6.369   4.264   4.367  0.3563 -0.3857 -0.9043
19391TIP3    H279665   6.288   4.314   4.249 -0.7659  2.7596  1.0958
19392TIP3   OH279666   0.351   0.669  14.061  0.4616  0.5804  0.4133
19392TIP3    H179667   0.427   0.727  14.064  0.8863  0.0728 -0.2880
19392TIP3    H279668   0.388   0.582  14.045 -0.3000  0.4299 -0.6270
19393TIP3   OH279669   5.595   3.959   5.000  0.0353 -0.2347  0.8406
19393TIP3    H179670   5.599   3.937   4.907  1.7672  1.4679  0.4645
19393TIP3    H279671   5.608   3.875   5.044 -1.1800 -1.1284 -0.4198
19394TIP3   OH279672   2.366   2.587  12.364  0.6517 -0.2496 -0.0529
19394TIP3    H179673   2.360   2.651  12.293  1.8656 -0.2278 -0.1545
19394TIP3    H279674   2.297   2.524  12.345 -1.8070  1.9303  1.0214
19395TIP3   OH279675   1.332   0.834  14.967 -0.2309 -0.0018 -0.3688
19395TIP3    H179676   1.246   0.860  14.999 -0.1033  1.3584 -1.0860
19395TIP3    H279677   1.317   0.806  14.877 -0.0690 -0.7453 -0.1752
19396TIP3   OH279678   4.503   0.439  11.784  0.2419  0.7357 -0.3255
19396TIP3    H179679   4.536   0.524  11.815 -2.5656  2.4200 -1.6183
19396TIP3    H279680   4.489   0.451  11.690 -0.2600 -1.1930 -0.5434
19397TIP3   OH279681   3.959   5.214  14.679 -0.2066  0.4025  0.2478
19397TIP3    H179682   3.899   5.146  14.711 -0.9986  1.7067  1.6791
19397TIP3    H279683   3.921   5.243  14.597 -0.6154  0.0557  0.3100
19398TIP3   OH279684   1.760   5.006  16.589  0.1704 -0.3906  0.2072
19398TIP3    H179685   1.679   4.970  16.624 -0.6672  0.7674 -0.4568
19398TIP3    H279686   1.826   4.988  16.656 -0.8457 -0.4820  1.1973
19399TIP3   OH279687   1.287   1.199   5.978 -0.0324 -0.1720  0.3806
19399TIP3    H179688   1.214   1.217   6.038 -0.6123 -1.4990  0.0999
19399TIP3    H279689   1.259   1.122   5.928  1.4505 -0.5391  0.0742
19400TIP3   OH279690   0.011   6.504   1.146 -0.6890  0.1217  0.4525
19400TIP3    H179691   0.069   6.499   1.071  1.2296  3.2451  1.5031
19400TIP3    H279692  -0.075   6.523   1.109 -0.1138 -0.0438 -1.0163
19401TIP3   OH279693   5.618   3.603   5.424  0.1949  0.3963  0.0857
19401TIP3    H179694   5.587   3.693   5.437 -0.4075  0.0850  0.8628
19401TIP3    H279695   5.698   3.597   5.475  0.3223  0.5344 -0.0953
19402TIP3   OH279696   6.800   0.297   0.645 -0.2254  0.5309 -0.2726
19402TIP3    H179697   6.845   0.351   0.580 -0.3405 -1.7049 -2.3645
19402TIP3    H279698   6.748   0.235   0.593 -1.1212 -0.7334  1.9827
19403TIP3   OH279699   5.644   4.156  15.513  0.4638 -0.5151 -0.7630
19403TIP3    H179700   5.654   4.193  15.425 -2.5635 -2.5015 -2.0762
19403TIP3    H279701   5.610   4.229  15.565 -1.3141 -0.2271 -2.2204
19404TIP3   OH279702   5.363   4.035   1.143 -0.1330  0.3709 -0.7494
19404TIP3    H179703   5.282   4.086   1.141  0.3183  1.3165  1.7481
19404TIP3    H279704   5.341   3.956   1.193  0.5449  0.7951  0.2391
19405TIP3   OH279705   6.380   6.519  13.896  0.4164  0.6361 -0.1951
19405TIP3    H179706   6.385   6.425  13.914  0.1076  0.6623  0.0352
19405TIP3    H279707   6.472   6.547  13.891  0.5716 -0.1552 -2.9548
19406TIP3   OH279708   3.339   6.643  12.191 -0.5544  0.2226 -0.1417
19406TIP3    H179709   3.390   6.624  12.112 -0.5393  0.1253 -0.1081
19406TIP3    H279710   3.339   6.738  12.197  0.9638  0.2001  0.7391
19407TIP3   OH279711   4.908   2.925  12.405 -0.0103  0.3439 -0.4196
19407TIP3    H179712   4.997   2.960  12.414  1.0128 -1.2459 -3.0429
19407TIP3    H279713   4.905   2.850  12.463  0.5591  0.0990 -0.7028
19408TIP3   OH279714   3.460   2.894  16.038 -0.3115  0.5169  0.3605
19408TIP3    H179715   3.410   2.835  15.981 -0.6125  1.2808 -0.1918
19408TIP3    H279716   3.489   2.964  15.979  1.2687  0.1874  0.6981
19409TIP3   OH279717   6.409   6.178  10.518 -0.0203  0.7429 -0.0776
19409TIP3    H179718   6.356   6.213  10.447  0.6970  1.6209 -0.2062
19409TIP3    H279719   6.407   6.083  10.506  0.9234  0.9157 -1.8922
19410TIP3   OH279720   5.933   0.747   2.697  0.5132  0.1556  0.4867
19410TIP3    H179721   5.995   0.771   2.766  1.1650  2.5572 -0.8100
19410TIP3    H279722   5.982   0.689   2.639  0.7684  0.1410  0.7125
19411TIP3   OH279723   1.110   6.113  13.311 -0.4622  0.2388 -0.6937
19411TIP3    H179724   1.086   6.203  13.334  1.0162  0.5966 -0.4134
19411TIP3    H279725   1.123   6.070  13.396 -1.9581 -0.4871 -0.8163
19412TIP3   OH279726   4.264   2.785   3.334  0.0815 -0.7113  0.0032
19412TIP3    H179727   4.312   2.866   3.348 -0.6140 -0.1058 -0.9886
19412TIP3    H279728   4.278   2.734   3.414 -0.1744  0.7304  0.9962
19413TIP3   OH279729   3.798   3.304   1.837  0.5071 -0.0995  0.5858
19413TIP3    H179730   3.705   3.310   1.860  0.7727 -2.7329  2.8491
19413TIP3    H279731   3.800   3.263   1.751 -0.3963  0.0714  0.4740
19414TIP3   OH279732   2.302   4.778  14.095 -0.5444  0.0587 -0.1978
19414TIP3    H179733   2.316   4.686  14.120 -0.4532 -0.3227 -1.6016
19414TIP3    H279734   2.249   4.814  14.167 -1.8393 -1.4852 -0.3261
19415TIP3   OH279735   0.246   3.611   1.782  0.2900 -0.0985 -0.0227
19415TIP3    H179736   0.210   3.522   1.788  0.3273 -0.1726 -0.8861
19415TIP3    H279737   0.178   3.662   1.737  1.3222 -0.2952 -1.8867
19416TIP3   OH279738   5.665   0.731   1.228  0.3667  0.3306  0.0883
19416TIP3    H179739   5.730   0.664   1.251  0.5108  0.7521  0.9390
19416TIP3    H279740   5.713   0.791   1.170  0.5107  0.2156  0.0870
19417TIP3   OH279741   2.034   2.158   3.145 -0.3603 -0.6468  0.1100
19417TIP3    H179742   1.952   2.200   3.118  0.6685  2.1393  0.9239
19417TIP3    H279743   2.006   2.080   3.193 -2.4230 -0.9132 -1.3609
19418TIP3   OH279744   1.067   3.967   1.646 -0.3942  0.4388 -0.2923
19418TIP3    H179745   1.049   3.879   1.610 -0.5489 -0.0661  0.9718
19418TIP3    H279746   1.018   3.969   1.728  1.2092  0.9757  0.6757
19419TIP3   OH279747   0.776   3.860   0.831 -0.1332  0.7153 -0.2008
19419TIP3    H179748   0.765   3.937   0.886 -0.6365  0.4662  0.0595
19419TIP3    H279749   0.825   3.891   0.755 -0.2361  1.2662 -0.0460
19420TIP3   OH279750   1.843   4.305   4.309  0.0642 -0.0014 -0.7790
19420TIP3    H179751   1.846   4.383   4.253 -0.9538  0.7366  0.1365
19420TIP3    H279752   1.801   4.336   4.389  0.8600 -1.2034  0.1173
19421TIP3   OH279753   0.591   3.625   1.899  0.2046 -0.3364  0.0711
19421TIP3    H179754   0.534   3.647   1.973 -0.7008 -2.9311  0.2654
19421TIP3    H279755   0.534   3.581   1.836  1.2221  0.6666 -1.6411
19422TIP3   OH279756   3.062   4.549   2.127  0.1138 -0.8615 -0.0185
19422TIP3    H179757   3.113   4.610   2.181  0.9334 -0.9251 -0.6851
19422TIP3    H279758   3.096   4.562   2.038 -0.5514 -1.4254 -0.3682
19423TIP3   OH279759   5.926   4.768  15.563 -0.4415  0.4913  0.3542
19423TIP3    H179760   5.969   4.723  15.635  0.5856  1.0638  0.1118
19423TIP3    H279761   5.875   4.837  15.605  0.6244  1.2036  0.5148
19424TIP3   OH279762   5.956   3.983   0.451  0.1140  0.2317  0.8200
19424TIP3    H179763   6.018   3.958   0.520  0.4864  2.3996  1.3430
19424TIP3    H279764   6.011   4.024   0.385 -0.3601 -1.0624 -0.4249
19425TIP3   OH279765   4.841   0.251  16.970 -0.0005 -0.0223  0.0528
19425TIP3    H179766   4.802   0.300  16.898  0.0872  0.9293  0.6256
19425TIP3    H279767   4.924   0.296  16.988  0.6834 -1.1425 -0.2087
19426TIP3   OH279768   6.473   5.911   2.271  0.1295  0.0898  0.4782
19426TIP3    H179769   6.436   5.958   2.196  0.4581  1.3158  1.0649
19426TIP3    H279770   6.403   5.910   2.336 -0.4416 -1.6905 -0.1038
19427TIP3   OH279771   1.656   6.042   0.204 -0.0103 -0.5731  0.8803
19427TIP3    H179772   1.631   5.952   0.225  1.6171 -0.9648  1.2878
19427TIP3    H279773   1.634   6.092   0.283 -1.6107 -0.4367  0.3840
19428TIP3   OH279774   3.530   4.095  13.408 -0.2685 -0.1898 -0.3338
19428TIP3    H179775   3.610   4.042  13.408 -0.7429 -0.9173 -0.6817
19428TIP3    H279776   3.548   4.165  13.345  1.6595  2.1331  2.5190
19429TIP3   OH279777   5.144   1.857   2.181 -0.0687 -0.3469 -0.4812
19429TIP3    H179778   5.093   1.841   2.260 -0.4107  0.8790 -0.4347
19429TIP3    H279779   5.082   1.897   2.120  0.7744  1.0300 -0.4710
19430TIP3   OH279780   2.412   0.894   3.492 -0.3194 -0.2766 -0.2729
19430TIP3    H179781   2.319   0.913   3.504 -0.1716  0.9473 -0.9140
19430TIP3    H279782   2.456   0.945   3.559 -0.0569 -0.1248 -0.5562
19431TIP3   OH279783   1.287   6.491  14.218  0.1823 -0.1922  0.5103
19431TIP3    H179784   1.228   6.561  14.246 -0.3309 -0.5566  0.3433
19431TIP3    H279785   1.360   6.495  14.280 -0.3155 -0.1402  1.0972
19432TIP3   OH279786   6.201   3.593  11.514 -0.1361 -0.3312 -0.0355
19432TIP3    H179787   6.244   3.596  11.429 -0.9812 -0.2688 -0.4771
19432TIP3    H279788   6.262   3.638  11.573  0.9330 -1.2946 -0.3767
19433TIP3   OH279789   4.045   5.432   5.826 -0.4234 -0.8315 -0.5849
19433TIP3    H179790   3.968   5.378   5.846 -0.6245 -0.4048 -0.1805
19433TIP3    H279791   4.061   5.481   5.906  0.2721 -0.9076 -0.6721
19434TIP3   OH279792   1.592   2.797  11.441 -0.3236 -0.2391 -0.4178
19434TIP3    H179793   1.553   2.867  11.388 -0.6557  0.2314  0.4315
19434TIP3    H279794   1.528   2.783  11.511  0.4928 -0.2802  0.3230
19435TIP3   OH279795   1.703   3.774   0.217 -0.2077 -0.5019  0.1557
19435TIP3    H179796   1.623   3.749   0.172 -0.5299  0.3505  0.2351
19435TIP3    H279797   1.674   3.832   0.287  0.6018  1.0834 -0.7756
19436TIP3   OH279798   4.425   3.210   4.258  0.3477 -0.5325 -0.2298
19436TIP3    H179799   4.384   3.288   4.220 -0.2982 -0.4538  0.6265
19436TIP3    H279800   4.436   3.231   4.350  0.5409 -1.3082 -0.0726
19437TIP3   OH279801   2.390   1.737   5.902  0.2197  0.3594 -0.0637
19437TIP3    H179802   2.461   1.800   5.906 -0.6128  1.3126  3.1647
19437TIP3    H279803   2.427   1.657   5.941  0.8931 -0.8659 -2.9808
19438TIP3   OH279804   5.489   0.149   2.312  0.0243  0.0954  0.2330
19438TIP3    H179805   5.502   0.146   2.218  0.2148 -1.5815  0.2733
19438TIP3    H279806   5.420   0.214   2.326  1.5061  2.0158 -0.8328
19439TIP3   OH279807   4.346   3.651  13.556  0.1507 -0.2561  0.6242
19439TIP3    H179808   4.426   3.609  13.524 -0.8107 -2.7865  1.2759
19439TIP3    H279809   4.356   3.653  13.651 -0.6541 -0.8480  0.7301
19440TIP3   OH279810   5.454   4.372   3.764  0.0732 -0.2032  0.0236
19440TIP3    H179811   5.444   4.369   3.669 -0.0507 -0.1488  0.0349
19440TIP3    H279812   5.541   4.408   3.778  1.6179 -3.5056 -0.1249
19441TIP3   OH279813   0.925   4.808  16.436  0.4386  0.2738 -0.0513
19441TIP3    H179814   0.923   4.783  16.343  1.1240  0.3727 -0.1026
19441TIP3    H279815   0.840   4.850  16.452  0.0048 -0.4457 -0.4297
19442TIP3   OH279816   0.378   5.767  11.617  0.0532 -0.1029 -0.2776
19442TIP3    H179817   0.462   5.768  11.572  0.0557  0.3797 -0.2664
19442TIP3    H279818   0.333   5.846  11.587  0.2085  0.4316  0.8281
19443TIP3   OH279819   2.521   3.348  13.856 -0.3260 -0.1111  0.7080
19443TIP3    H179820   2.488   3.426  13.813  1.0532 -0.0619 -0.3134
19443TIP3    H279821   2.601   3.326  13.809  0.1315 -1.2607  1.9466
19444TIP3   OH279822   0.430   3.608   1.134 -0.3388  0.2604  0.2779
19444TIP3    H179823   0.393   3.627   1.220 -0.4745 -0.6534  0.4360
19444TIP3    H279824   0.480   3.527   1.147 -0.3306  0.1338 -0.4880
19445TIP3   OH279825   3.672   5.231  17.129  0.6691  0.3062 -0.3468
19445TIP3    H179826   3.757   5.274  17.142  1.0258 -0.2778 -0.7201
19445TIP3    H279827   3.647   5.256  17.040  1.0596 -0.5497 -0.7115
19446TIP3   OH279828   6.667   2.981   0.511  0.0977 -0.0228  0.0663
19446TIP3    H179829   6.699   3.054   0.564  0.8482 -0.5064  0.2949
19446TIP3    H279830   6.711   2.991   0.427 -0.9667  0.6496 -0.4347
19447TIP3   OH279831   4.438   6.450  14.426 -0.4928  0.3754 -0.2761
19447TIP3    H179832   4.507   6.509  14.458 -0.7550  0.0673  0.9299
19447TIP3    H279833   4.394   6.500  14.358 -0.3546  1.3635  0.3347
19448TIP3   OH279834   5.965   2.191  16.324 -0.2856 -0.4164 -0.1315
19448TIP3    H179835   5.914   2.271  16.311 -1.5539 -1.1196  0.3247
19448TIP3    H279836   6.053   2.221  16.347 -0.7225  0.8325 -0.0468
19449TIP3   OH279837   3.478   1.559  15.817  0.1019 -0.5724 -0.0098
19449TIP3    H179838   3.445   1.474  15.789  0.2762 -1.1760  1.5204
19449TIP3    H279839   3.541   1.584  15.750 -0.3077 -1.4186 -0.7212
19450TIP3   OH279840   0.215   1.632  10.571  0.3562 -0.2558  0.3315
19450TIP3    H179841   0.309   1.616  10.580  0.5310 -0.4913 -1.6028
19450TIP3    H279842   0.207   1.726  10.556  0.4732 -0.5074 -1.4341
19451TIP3   OH279843   4.043   6.588  13.079  0.0168 -0.4154  0.6110
19451TIP3    H179844   4.070   6.676  13.052  1.4407 -1.1000 -0.2885
19451TIP3    H279845   3.963   6.571  13.029  0.1995  0.0349  0.1549
19452TIP3   OH279846   5.366   1.560   5.236 -0.0416 -0.0255  0.4767
19452TIP3    H179847   5.420   1.492   5.277 -0.4573 -1.8734 -1.8609
19452TIP3    H279848   5.295   1.575   5.299  0.8788 -0.6320  1.6997
19453TIP3   OH279849   1.411   4.588  15.996  0.2744  0.4069 -0.0314
19453TIP3    H179850   1.336   4.586  15.937 -0.5176 -1.1421  0.9595
19453TIP3    H279851   1.469   4.520  15.963 -0.2626 -0.6021  1.0284
19454TIP3   OH279852   4.716   0.759   3.800 -0.0042 -0.5318 -0.3024
19454TIP3    H179853   4.801   0.777   3.839  0.3788 -0.7947 -0.9969
19454TIP3    H279854   4.675   0.846   3.792  0.0199 -0.4506  0.4177
19455TIP3   OH279855   1.698   1.494  13.439  0.0509 -0.1369  0.1020
19455TIP3    H179856   1.615   1.461  13.402  0.7817 -2.2782  0.2518
19455TIP3    H279857   1.717   1.572  13.388 -1.5291 -0.2076 -0.6611
19456TIP3   OH279858   5.893   1.791   1.419 -0.4322 -0.1529 -0.2282
19456TIP3    H179859   5.893   1.845   1.498 -0.7299 -0.0931 -0.2678
19456TIP3    H279860   5.902   1.854   1.348 -3.5455  0.1754 -0.4788
19457TIP3   OH279861   6.128   5.160   0.231  0.6293 -0.0416  0.1870
19457TIP3    H179862   6.037   5.141   0.254  0.8230  0.0646  1.0616
19457TIP3    H279863   6.161   5.213   0.304  1.3467  0.0498 -0.1984
19458TIP3   OH279864   5.677   3.081   1.753  0.4291 -0.0065  0.0015
19458TIP3    H179865   5.740   3.154   1.755  0.0857  0.3605 -1.2064
19458TIP3    H279866   5.623   3.093   1.831 -0.1091  1.5049 -0.5627
19459TIP3   OH279867   3.864   4.513  11.091 -0.1412  0.2179 -0.0218
19459TIP3    H179868   3.905   4.471  11.015 -1.7571  0.0239 -0.8216
19459TIP3    H279869   3.882   4.452  11.163  3.5881  1.5827  0.4237
19460TIP3   OH279870   5.203   4.997  12.879  0.0858 -0.0958  0.1952
19460TIP3    H179871   5.251   4.949  12.812  0.9635  0.5069  0.3683
19460TIP3    H279872   5.153   5.062  12.830  0.3261  0.0065  0.0811
19461TIP3   OH279873   5.077   5.488  10.487 -0.1001 -0.3603  0.2695
19461TIP3    H179874   4.986   5.503  10.461  0.0061 -2.7865 -1.9250
19461TIP3    H279875   5.129   5.539  10.425  0.0620 -0.9414 -0.0783
19462TIP3   OH279876   1.102   4.983  13.704 -0.1717 -0.1537  0.6758
19462TIP3    H179877   1.184   4.938  13.728  1.1210  1.3396 -0.6967
19462TIP3    H279878   1.129   5.073  13.684 -2.3183  0.6283  1.0542
19463TIP3   OH279879   3.867   2.320  12.726  0.3972  0.0750  0.4364
19463TIP3    H179880   3.945   2.370  12.752  0.0429 -0.1085  1.9670
19463TIP3    H279881   3.870   2.242  12.781 -1.9936  1.0978  2.1611
19464TIP3   OH279882   1.063   4.766  15.711 -0.2872 -0.0219  0.9614
19464TIP3    H179883   1.153   4.798  15.701 -0.7318  1.1116  0.4019
19464TIP3    H279884   1.050   4.707  15.636 -0.7385  1.6146 -0.2969
19465TIP3   OH279885   0.307   0.034  15.305  0.9427 -0.4501 -0.8807
19465TIP3    H179886   0.285  -0.041  15.360  1.8521 -1.3972 -1.7717
19465TIP3    H279887   0.236   0.039  15.241  0.5221 -0.1000 -0.4006
19466TIP3   OH279888   3.718   5.571   1.278  0.0350 -0.3948  0.0325
19466TIP3    H179889   3.797   5.545   1.326 -1.1750 -0.8831  1.9025
19466TIP3    H279890   3.749   5.600   1.192  2.2561 -0.2481  0.8316
19467TIP3   OH279891   1.571   3.874  14.633  0.0399 -0.1577 -0.5110
19467TIP3    H179892   1.506   3.927  14.587 -0.6720 -0.5753 -0.0022
19467TIP3    H279893   1.551   3.886  14.726  1.5636  0.8041 -0.2677
19468TIP3   OH279894   3.860   0.043  15.553 -0.4959 -0.7651 -0.5222
19468TIP3    H179895   3.869   0.102  15.629  1.7042 -0.9241 -0.6001
19468TIP3    H279896   3.828   0.100  15.483 -1.8679 -0.4636  0.3011
19469TIP3   OH279897   6.349   1.451   5.237 -0.3026  0.0885 -0.7224
19469TIP3    H179898   6.343   1.512   5.311  2.9334 -3.0577  2.5100
19469TIP3    H279899   6.262   1.412   5.231 -0.6029  0.2592  1.6377
19470TIP3   OH279900   1.515   4.169   0.247  0.3845  0.4526  0.2490
19470TIP3    H179901   1.505   4.085   0.293  1.3682  0.0867 -0.1621
19470TIP3    H279902   1.591   4.155   0.191 -1.1428  0.6408 -1.9992
19471TIP3   OH279903   0.995   4.726   1.239 -0.1642 -0.3202  0.3617
19471TIP3    H179904   1.072   4.693   1.284  0.3131 -0.1122 -0.2910
19471TIP3    H279905   1.001   4.689   1.151  1.3975  2.9041 -1.0358
19472TIP3   OH279906   5.686   6.151   2.954 -0.0006  0.3138 -0.1710
19472TIP3    H179907   5.647   6.104   3.027 -0.5333  2.6953  1.1635
19472TIP3    H279908   5.618   6.211   2.925 -0.3788 -1.5440 -3.7137
19473TIP3   OH279909   2.722   6.337   4.385  0.2018 -0.2229 -0.3808
19473TIP3    H179910   2.765   6.251   4.382  1.2578  0.2959 -0.9202
19473TIP3    H279911   2.693   6.352   4.295 -0.8576 -0.4340 -0.0790
19474TIP3   OH279912   5.188   6.172  15.017  0.1380 -0.4009  0.5282
19474TIP3    H179913   5.114   6.139  14.967 -1.2432 -0.7810  2.6878
19474TIP3    H279914   5.155   6.251  15.059  0.8043 -0.8111  1.8650
19475TIP3   OH279915   2.256   0.808   1.458  0.0635 -0.4969 -0.0062
19475TIP3    H179916   2.231   0.868   1.528  0.0156 -1.8003  1.1273
19475TIP3    H279917   2.186   0.817   1.393 -0.4910 -0.1189  0.6284
19476TIP3   OH279918   6.475   5.893  11.194 -0.3519  0.1839 -0.2713
19476TIP3    H179919   6.409   5.961  11.184  1.2563  1.5398 -2.6380
19476TIP3    H279920   6.541   5.913  11.128  1.3790 -2.3497  0.5166
19477TIP3   OH279921   6.824   2.443   5.214  0.3994  0.3483 -0.2104
19477TIP3    H179922   6.875   2.501   5.158  0.1001  0.0348 -0.8149
19477TIP3    H279923   6.862   2.356   5.200 -0.2468  0.1243 -0.6145
19478TIP3   OH279924   0.819   4.247   1.179 -0.1202  0.3241 -0.6521
19478TIP3    H179925   0.729   4.278   1.184  0.4260  2.0944 -0.8830
19478TIP3    H279926   0.858   4.297   1.107  1.2941  0.3040  0.0518
19479TIP3   OH279927   1.435   0.335  13.224  0.2005  0.0777  0.3649
19479TIP3    H179928   1.484   0.327  13.306  1.2109  1.8672 -0.0198
19479TIP3    H279929   1.375   0.260  13.224 -0.2340  0.3555  2.9910
19480TIP3   OH279930   3.653   5.018  16.746 -0.4934 -0.3969 -0.2819
19480TIP3    H179931   3.646   4.941  16.689 -0.6331 -0.9794  0.4981
19480TIP3    H279932   3.720   4.994  16.810  1.5262  1.2112 -1.6382
19481TIP3   OH279933   1.567   4.822   1.335 -0.1860 -0.6682  1.0314
19481TIP3    H179934   1.590   4.730   1.348 -0.4726 -1.3866 -2.4852
19481TIP3    H279935   1.649   4.865   1.311 -0.3572 -0.4046  0.9034
19482TIP3   OH279936   2.957   0.194  13.717  0.0416  0.3964 -0.3878
19482TIP3    H179937   2.899   0.118  13.723 -1.1799  1.3296  0.2786
19482TIP3    H279938   3.043   0.158  13.700 -0.4627 -1.1445  0.1618
19483TIP3   OH279939   6.009   0.270   1.518 -1.1573 -0.3446 -0.0282
19483TIP3    H179940   5.993   0.218   1.439  0.0070  0.1112 -0.5764
19483TIP3    H279941   6.096   0.244   1.547 -1.2972 -0.0036  0.7260
19484TIP3   OH279942   0.054   3.443   2.636  0.1032 -0.1375 -0.2946
19484TIP3    H179943   0.012   3.362   2.665 -0.2414 -0.1464 -0.8013
19484TIP3    H279944   0.004   3.513   2.678  1.0805 -0.2028  1.0248
19485TIP3   OH279945   3.095   2.482   3.856  0.1788  0.3952  0.3444
19485TIP3    H179946   3.182   2.494   3.895  0.1262 -0.7628  0.8875
19485TIP3    H279947   3.096   2.392   3.823 -1.6665 -0.6126  2.7406
19486TIP3   OH279948   2.594   5.133  12.895 -0.2282  0.2622 -0.2505
19486TIP3    H179949   2.548   5.164  12.817  0.4602  1.0908 -0.3400
19486TIP3    H279950   2.685   5.160  12.882 -0.2259  1.0722  1.1510
19487TIP3   OH279951   4.667   4.309  11.388  0.4440  0.0446  0.3213
19487TIP3    H179952   4.744   4.362  11.366  0.3344  0.2034  0.3253
19487TIP3    H279953   4.704   4.231  11.430  0.7580 -0.8129 -1.4485
19488TIP3   OH279954   2.903   5.140  13.380 -0.1988 -0.5118 -0.2153
19488TIP3    H179955   2.847   5.167  13.307  0.1003 -0.8147 -0.5595
19488TIP3    H279956   2.984   5.191  13.369  0.4404 -1.6682 -0.9747
19489TIP3   OH279957   5.739   4.362  16.345  0.0015 -0.1739  0.3577
19489TIP3    H179958   5.648   4.356  16.315 -0.5599 -0.9804  2.0904
19489TIP3    H279959   5.734   4.418  16.423  0.2185 -3.6485  3.0859
19490TIP3   OH279960   1.738   1.675  14.402  0.3944  0.3930  0.0050
19490TIP3    H179961   1.825   1.665  14.365 -0.0022  1.7913 -1.4478
19490TIP3    H279962   1.742   1.631  14.486  1.7160 -1.9210 -1.1762
19491TIP3   OH279963   5.544   4.144  10.557  0.4336  0.0048  0.6746
19491TIP3    H179964   5.530   4.237  10.540 -1.5404 -0.3107  0.3041
19491TIP3    H279965   5.530   4.101  10.473 -1.2370 -0.8203  1.3189
19492TIP3   OH279966   3.135   5.259   3.447 -0.1443 -0.0265 -0.4431
19492TIP3    H179967   3.182   5.257   3.531 -0.7572  0.6554 -0.0789
19492TIP3    H279968   3.069   5.190   3.455 -0.4155  0.2548 -0.2354
19493TIP3   OH279969   1.182   6.577  17.091  0.3123  0.0125  0.3381
19493TIP3    H179970   1.193   6.560  16.997 -4.1162  1.2374 -0.6538
19493TIP3    H279971   1.198   6.492  17.133  0.4265 -1.0678 -1.7551
19494TIP3   OH279972   5.462   2.501   4.705 -0.3351  0.4487 -0.5756
19494TIP3    H179973   5.534   2.474   4.649 -0.0931  0.4265 -0.2591
19494TIP3    H279974   5.389   2.519   4.645 -0.5591 -1.0461 -0.7833
19495TIP3   OH279975   1.718   6.610  14.808  0.2539  0.0461  0.2232
19495TIP3    H179976   1.668   6.678  14.853  1.0828  0.3624  0.6774
19495TIP3    H279977   1.754   6.654  14.731 -0.8097 -0.3865 -0.5535
19496TIP3   OH279978   3.408   0.769  10.884 -0.0580 -0.2888  0.0726
19496TIP3    H179979   3.496   0.784  10.849 -1.1766  1.2961 -2.3694
19496TIP3    H279980   3.363   0.718  10.817 -1.4635  0.3168  0.5102
19497TIP3   OH279981   2.546   2.908  15.337 -0.2716 -0.1331 -0.3834
19497TIP3    H179982   2.614   2.961  15.294  0.1466 -0.3114  0.0519
19497TIP3    H279983   2.511   2.854  15.267 -0.2321  0.2394 -0.6941
19498TIP3   OH279984   0.510   3.777   0.593  0.2473 -0.4618 -0.0604
19498TIP3    H179985   0.496   3.683   0.599  1.3922 -0.7517 -1.3186
19498TIP3    H279986   0.606   3.787   0.591  0.1758  0.8253  1.1299
19499TIP3   OH279987   6.077   2.245   1.090  0.3523  0.5082 -0.0803
19499TIP3    H179988   6.066   2.305   1.164 -0.6731 -0.6266  0.7195
19499TIP3    H279989   6.075   2.302   1.013 -1.2981  1.4514  0.6056
19500TIP3   OH279990   6.382   1.556   2.521  0.4988 -0.0186  0.2693
19500TIP3    H179991   6.442   1.520   2.587  0.1391 -1.3538 -0.0954
19500TIP3    H279992   6.394   1.651   2.527  0.9603 -0.1442  1.7841
19501TIP3   OH279993   0.709   6.816  10.806 -0.1850  0.3451  0.5024
19501TIP3    H179994   0.788   6.832  10.856  1.6942  0.0361 -2.1490
19501TIP3    H279995   0.714   6.723  10.783 -0.8597  0.5084 -0.3802
19502TIP3   OH279996   2.305   1.307  13.846  0.0398 -0.0197  0.3961
19502TIP3    H179997   2.388   1.353  13.839 -0.5441  1.9128  3.8191
19502TIP3    H279998   2.289   1.272  13.758  3.1173  1.8128 -1.0601
19503TIP3   OH279999   3.550   6.582   4.248 -0.3649  0.2522 -0.4061
19503TIP3    H180000   3.610   6.509   4.263 -1.5103 -0.6350 -0.0197
19503TIP3    H280001   3.605   6.651   4.211  0.8214 -0.6528 -0.3839
19504TIP3   OH280002   3.626   1.226   5.525 -0.0239  0.4090 -0.0708
19504TIP3    H180003   3.536   1.257   5.514 -0.0841  0.1258 -0.3743
19504TIP3    H280004   3.640   1.166   5.453  0.4368  0.5067 -0.0658
19505TIP3   OH280005   2.582   0.394  16.224  0.3080  0.3950 -0.4608
19505TIP3    H180006   2.563   0.455  16.153  1.7673 -0.4808 -1.6800
19505TIP3    H280007   2.548   0.436  16.302 -1.7370  1.2299 -1.7180
19506TIP3   OH280008   4.373   5.608  13.791  0.1988 -0.4356  0.4540
19506TIP3    H180009   4.351   5.698  13.770  0.5128 -0.6436 -0.8554
19506TIP3    H280010   4.442   5.615  13.857 -0.2618  0.2611  0.8752
19507TIP3   OH280011   6.758   2.222   2.165  0.3641  0.5927  0.4116
19507TIP3    H180012   6.796   2.159   2.103 -1.8769 -1.0998  0.6225
19507TIP3    H280013   6.795   2.196   2.250  1.2916  1.1406  0.1905
19508TIP3   OH280014   5.479   0.417  14.168 -0.6837 -0.1801 -0.5643
19508TIP3    H180015   5.391   0.440  14.199  0.6639  1.8501  2.2425
19508TIP3    H280016   5.501   0.338  14.218 -1.2247 -1.2574 -1.9875
19509TIP3   OH280017   0.491   2.830   1.664  0.2486  0.3112  0.0132
19509TIP3    H180018   0.408   2.872   1.683 -0.2812 -1.2982  1.5327
19509TIP3    H280019   0.471   2.766   1.595  0.1612 -0.1843  0.4866
19510TIP3   OH280020   0.425   5.668   2.563 -0.3436 -0.0347  0.2457
19510TIP3    H180021   0.486   5.595   2.550 -2.0577 -1.6815  0.9969
19510TIP3    H280022   0.428   5.685   2.657  0.1061  0.9772  0.0665
19511TIP3   OH280023   0.289   5.757   3.828  0.5021  0.1642  0.0370
19511TIP3    H180024   0.287   5.827   3.763 -0.5755  0.9138  0.8402
19511TIP3    H280025   0.379   5.725   3.826  0.7833  0.9613 -0.9894
19512TIP3   OH280026   6.612   4.652  13.798 -0.1915 -0.3049 -0.5440
19512TIP3    H180027   6.586   4.583  13.736 -1.4194  0.2096 -0.6368
19512TIP3    H280028   6.684   4.614  13.847 -0.7702 -1.6292 -0.6708
19513TIP3   OH280029   1.228   3.453  13.252 -0.5674  0.4426 -0.5790
19513TIP3    H180030   1.322   3.448  13.235 -0.4395  1.4119 -0.2074
19513TIP3    H280031   1.195   3.519  13.191 -1.0730 -0.1261 -0.9346
19514TIP3   OH280032   2.864   6.463   3.528 -0.4441 -0.2152 -0.4847
19514TIP3    H180033   2.825   6.541   3.568 -0.3410 -0.4020 -0.0065
19514TIP3    H280034   2.909   6.419   3.601 -1.4438 -1.3095 -0.5070
19515TIP3   OH280035   5.001   6.067   3.828  0.7700 -0.1609  0.3203
19515TIP3    H180036   4.963   6.078   3.916 -0.5354 -2.1059  0.0562
19515TIP3    H280037   5.080   6.015   3.843  0.0709 -1.2647  0.2887
19516TIP3   OH280038   4.344   1.620  15.592  0.2301 -0.1693  0.1309
19516TIP3    H180039   4.431   1.657  15.602  0.1265 -0.0623  0.6575
19516TIP3    H280040   4.288   1.696  15.572  0.4622 -0.3968 -1.5544
19517TIP3   OH280041   6.278   0.872   5.916  0.0691 -0.4201 -0.5085
19517TIP3    H180042   6.357   0.867   5.863 -0.2529  0.1548 -1.0521
19517TIP3    H280043   6.226   0.796   5.890  0.5539 -0.9434  0.0387
19518TIP3   OH280044   0.028   3.992   1.618  0.0115 -0.3941 -0.3171
19518TIP3    H180045  -0.035   3.976   1.688 -0.2869 -0.8856 -0.6846
19518TIP3    H280046   0.105   4.027   1.662 -0.6126  0.4683  0.1083
19519TIP3   OH280047   1.342   5.056  16.289 -0.4940  0.3282  0.4031
19519TIP3    H180048   1.399   4.987  16.323 -0.0234 -0.0630 -1.1059
19519TIP3    H280049   1.253   5.026  16.308 -0.2571 -0.1548  0.7503
19520TIP3   OH280050   2.318   6.024  13.304 -0.0965  0.0666 -0.3068
19520TIP3    H180051   2.400   6.065  13.277 -0.1750 -0.3247 -1.1883
19520TIP3    H280052   2.253   6.093  13.295 -0.4367 -0.4832 -2.9273
19521TIP3   OH280053   2.892   3.708  11.882 -0.4473 -0.1810  0.0238
19521TIP3    H180054   2.910   3.634  11.940 -1.1215  0.0841  0.5834
19521TIP3    H280055   2.797   3.707  11.870 -0.3354 -0.1086 -0.9232
19522TIP3   OH280056   2.384   1.097  14.683  0.0260  0.0244 -0.3667
19522TIP3    H180057   2.459   1.058  14.637  0.5776  0.9534 -0.2871
19522TIP3    H280058   2.400   1.078  14.775 -2.4518 -4.2310 -0.5795
19523TIP3   OH280059   1.478   1.572   3.432 -0.4095 -0.5303 -0.4998
19523TIP3    H180060   1.564   1.593   3.398 -0.4343 -0.1087 -0.3042
19523TIP3    H280061   1.417   1.606   3.367 -0.4548  0.2063 -0.0833
19524TIP3   OH280062   4.120   4.674  15.122  0.0728  0.2019 -0.6436
19524TIP3    H180063   4.190   4.738  15.107  0.8844 -0.5642 -0.1376
19524TIP3    H280064   4.161   4.589  15.106 -0.1585 -0.4057  1.6857
19525TIP3   OH280065   4.411   2.638  15.467  0.4044 -0.0101  0.0506
19525TIP3    H180066   4.388   2.546  15.477 -1.6265  0.3724 -0.6697
19525TIP3    H280067   4.359   2.683  15.534  3.7995  0.4122  2.6968
19526TIP3   OH280068   4.503   6.436  13.509  0.4058  0.2034  0.4065
19526TIP3    H180069   4.558   6.507  13.542  0.9515 -1.3947  3.3344
19526TIP3    H280070   4.459   6.402  13.588 -3.1349 -0.0242 -1.4703
19527TIP3   OH280071   1.222   6.688   3.648 -0.4871 -0.0768 -0.2286
19527TIP3    H180072   1.300   6.696   3.593 -0.2546 -0.1385  0.0897
19527TIP3    H280073   1.237   6.750   3.720 -0.7138 -0.1182 -0.1449
19528TIP3   OH280074   0.651   2.850  13.188  0.1832  0.4490  0.2195
19528TIP3    H180075   0.637   2.819  13.098 -1.8264 -0.3895  0.7747
19528TIP3    H280076   0.739   2.889  13.186 -0.0071  0.9362 -2.2317
19529TIP3   OH280077   6.550   2.354  13.899  0.1469  0.0037  0.0002
19529TIP3    H180078   6.636   2.387  13.873 -0.0508  0.4078 -0.1326
19529TIP3    H280079   6.550   2.263  13.870  1.6745 -0.9203  2.5775
19530TIP3   OH280080   2.764   5.535   1.282 -0.1045  0.4471  0.3814
19530TIP3    H180081   2.701   5.463   1.290  0.2302  0.1146  0.0839
19530TIP3    H280082   2.850   5.493   1.296  0.0131  1.0046  1.4079
19531TIP3   OH280083   1.512   4.232   4.473  0.2729 -0.5536 -0.0032
19531TIP3    H180084   1.424   4.198   4.458 -0.0763  0.3528 -0.1145
19531TIP3    H280085   1.570   4.171   4.428 -0.4153 -0.4035 -1.1217
19532TIP3   OH280086   5.408   6.156   0.580  0.3223  0.0322  0.4414
19532TIP3    H180087   5.387   6.077   0.530  0.4003  0.6394 -0.5933
19532TIP3    H280088   5.497   6.140   0.613  0.7287  0.0671 -0.5860
19533TIP3   OH280089   4.567   5.072   2.165 -0.2599 -0.4476  0.6485
19533TIP3    H180090   4.570   5.154   2.214 -0.4435 -0.6884  1.0710
19533TIP3    H280091   4.653   5.032   2.180 -0.9829 -1.4615  2.4476
19534TIP3   OH280092   4.216   1.661  11.895  0.6080  0.5505  0.3631
19534TIP3    H180093   4.135   1.681  11.848  0.6932 -0.2931 -0.1492
19534TIP3    H280094   4.218   1.726  11.966 -1.3444 -0.3916  1.3877
19535TIP3   OH280095   2.933   2.683   1.929 -0.1251 -0.3694  0.0288
19535TIP3    H180096   2.892   2.685   1.842  0.8245 -1.8083 -0.4826
19535TIP3    H280097   2.937   2.775   1.956 -1.6344 -0.0115 -0.8595
19536TIP3   OH280098   3.337   4.993   3.546 -0.0839  0.3627 -0.0568
19536TIP3    H180099   3.283   4.937   3.602  0.3145  0.9985  0.9654
19536TIP3    H280100   3.329   4.953   3.459 -2.0399  0.3360  0.1027
19537TIP3   OH280101   4.385   4.005  13.879  0.2960  0.1826 -0.0913
19537TIP3    H180102   4.372   3.998  13.785  1.5656  0.0840 -0.2757
19537TIP3    H280103   4.414   4.095  13.893 -0.7215  0.4613  0.3261
19538TIP3   OH280104   0.536   1.307   3.668  0.2479 -0.1363 -0.2506
19538TIP3    H180105   0.498   1.240   3.611  1.3563 -0.1849 -0.9702
19538TIP3    H280106   0.472   1.378   3.667 -1.4348 -1.5472  1.3527
19539TIP3   OH280107   5.875   6.253   3.666  0.9529 -0.5125 -0.1401
19539TIP3    H180108   5.945   6.287   3.722 -0.6379  0.7726  1.1878
19539TIP3    H280109   5.839   6.179   3.715  0.6600 -0.4493 -0.2548
19540TIP3   OH280110   5.204   4.859   2.197 -0.7904  0.1217 -0.3150
19540TIP3    H180111   5.239   4.925   2.257  1.4210 -1.4816  0.2868
19540TIP3    H280112   5.170   4.790   2.254 -0.7079 -0.4263 -0.9112
19541TIP3   OH280113   1.417   4.736  14.799 -0.2376  0.0878  0.5383
19541TIP3    H180114   1.460   4.764  14.880 -0.4296 -1.3368  1.1646
19541TIP3    H280115   1.407   4.816  14.748  0.8527  0.8493  1.4672
19542TIP3   OH280116   1.411   0.470   2.187  0.2778 -0.4124 -0.0571
19542TIP3    H180117   1.414   0.509   2.275 -0.9441  1.9233 -0.9558
19542TIP3    H280118   1.344   0.402   2.193  0.2247 -0.2913  0.8318
19543TIP3   OH280119   3.483   2.415   5.844  0.3606 -0.1971  0.1180
19543TIP3    H180120   3.444   2.345   5.790  0.3134 -0.5490  0.6028
19543TIP3    H280121   3.418   2.484   5.844  0.5289 -0.0319 -0.6067
19544TIP3   OH280122   0.431   2.387   3.580 -0.4451 -0.2393 -0.2139
19544TIP3    H180123   0.504   2.361   3.523  0.2083  2.3729 -0.6953
19544TIP3    H280124   0.473   2.414   3.662 -0.8064  1.5643 -0.5987
19545TIP3   OH280125   3.701   3.805  15.602 -0.4549  0.2711  0.5648
19545TIP3    H180126   3.625   3.801  15.544  0.1454  1.1390 -0.3182
19545TIP3    H280127   3.687   3.884  15.655 -0.2602  0.3218  0.5412
19546TIP3   OH280128   1.317   3.343  10.888  0.9391  0.1817  0.5750
19546TIP3    H180129   1.307   3.274  10.822  1.2855  1.4676 -0.8795
19546TIP3    H280130   1.272   3.309  10.965 -2.5886  0.0042 -1.3631
19547TIP3   OH280131   5.746   6.530  13.799  0.3197  0.2818  0.1591
19547TIP3    H180132   5.681   6.461  13.812  0.2994  0.4249  0.8191
19547TIP3    H280133   5.769   6.523  13.706  0.0119 -0.3394  0.1227
19548TIP3   OH280134   1.934   0.482   3.574  0.0176 -0.6681  0.4381
19548TIP3    H180135   1.994   0.489   3.648  1.3451  0.7821 -0.6928
19548TIP3    H280136   1.957   0.399   3.532 -0.0075 -0.9776  1.0281
19549TIP3   OH280137   0.018   3.359  16.970  0.0626  0.0554  0.0374
19549TIP3    H180138   0.023   3.379  16.876 -0.5330  0.0376 -0.0010
19549TIP3    H280139   0.080   3.287  16.982 -1.3870 -1.4021 -0.7549
19550TIP3   OH280140   5.407   3.575   2.304  0.3867 -0.0345 -0.3411
19550TIP3    H180141   5.462   3.539   2.235  1.8860 -1.3786  1.4264
19550TIP3    H280142   5.439   3.533   2.384 -0.9436  1.7731  1.2455
19551TIP3   OH280143   6.530   0.856  10.512 -0.0251  1.1029  0.3841
19551TIP3    H180144   6.581   0.888  10.586  1.6311 -0.8996  0.2041
19551TIP3    H280145   6.488   0.776  10.544  0.7834  0.1560 -0.7715
19552TIP3   OH280146   0.219   1.522   1.694  0.6383 -0.3595  0.4257
19552TIP3    H180147   0.314   1.516   1.685  0.6395 -1.4247  1.0046
19552TIP3    H280148   0.203   1.509   1.787  0.0387  1.7240  0.6516
19553TIP3   OH280149   2.435   0.414  12.395 -0.3726 -0.0967  0.8440
19553TIP3    H180150   2.354   0.420  12.344 -1.0222 -0.7260  1.7475
19553TIP3    H280151   2.505   0.428  12.332 -1.2202  2.1614  0.3262
19554TIP3   OH280152   1.396   4.222  17.004  0.6652 -0.7048  0.0879
19554TIP3    H180153   1.371   4.131  16.993  1.1015 -0.8331  0.1304
19554TIP3    H280154   1.394   4.259  16.916 -0.8248 -0.3966  0.2249
19555TIP3   OH280155   0.240   1.709   1.246 -0.6866  0.5154  0.2578
19555TIP3    H180156   0.316   1.736   1.194 -1.2894  1.6729 -0.0448
19555TIP3    H280157   0.204   1.633   1.200 -0.2885  0.5581 -0.1245
19556TIP3   OH280158   5.628   2.930  10.965 -0.0461  0.3286  0.5628
19556TIP3    H180159   5.563   2.998  10.980  0.2183  1.0979 -1.5156
19556TIP3    H280160   5.578   2.856  10.931  0.2192  1.4235 -2.4814
19557TIP3   OH280161   6.070   6.387  14.079 -0.7397 -0.0449  0.2973
19557TIP3    H180162   6.064   6.428  13.993 -1.6814 -0.9423 -0.0802
19557TIP3    H280163   6.046   6.458  14.140 -0.2529  0.5405 -0.1772
19558TIP3   OH280164   6.693   0.828   5.969 -0.5558 -0.4749 -0.4287
19558TIP3    H180165   6.657   0.903   5.923  1.0759  0.8222  0.3131
19558TIP3    H280166   6.660   0.836   6.058  1.0037  0.4057  0.1090
19559TIP3   OH280167   3.988   6.321  14.749  0.4333  0.0142 -0.1367
19559TIP3    H180168   3.904   6.329  14.703  0.4500  0.7855 -0.0522
19559TIP3    H280169   4.051   6.298  14.681  0.3918  0.7963 -0.4507
19560TIP3   OH280170   0.419   3.793  15.222 -0.5333  0.5687  0.0934
19560TIP3    H180171   0.473   3.799  15.301  0.7121  1.3812 -0.7672
19560TIP3    H280172   0.473   3.743  15.160 -0.2315  2.3248 -1.1573
19561TIP3   OH280173   1.666   4.095   4.280 -0.2276  0.0386 -0.4599
19561TIP3    H180174   1.727   4.039   4.328 -1.0865  0.8519  1.7048
19561TIP3    H280175   1.712   4.179   4.273 -0.2268  0.0092 -0.8004
19562TIP3   OH280176   3.959   0.729  12.107  0.4056  0.1008  0.0427
19562TIP3    H180177   3.870   0.761  12.123  0.6146  1.7501 -1.6785
19562TIP3    H280178   3.965   0.648  12.156 -2.5712 -0.8535 -0.9693
19563TIP3   OH280179   5.156   3.872   5.865  0.5189  0.0399 -0.5120
19563TIP3    H180180   5.148   3.931   5.790  1.6648  0.8700 -0.0097
19563TIP3    H280181   5.080   3.892   5.920  0.3247  0.2783 -0.8659
19564TIP3   OH280182   5.747   5.257  13.195  0.0226 -0.3672  0.3885
19564TIP3    H180183   5.658   5.226  13.179 -0.2727  1.0402 -0.9699
19564TIP3    H280184   5.738   5.351  13.208  1.2060 -0.3645  1.3769
19565TIP3   OH280185   3.111   3.546  12.150 -0.2567 -0.0228 -0.1081
19565TIP3    H180186   3.177   3.478  12.159  0.9115  0.9410 -1.0485
19565TIP3    H280187   3.044   3.507  12.094 -0.3354 -0.8877  0.5617
19566TIP3   OH280188   4.408   6.594   0.107 -0.2808 -0.0742  0.2757
19566TIP3    H180189   4.489   6.634   0.138  0.5177 -0.6376 -0.9884
19566TIP3    H280190   4.370   6.659   0.048  0.5265 -0.7341 -1.0274
19567TIP3   OH280191   1.834   2.188  14.185  0.0990 -0.2241 -0.6586
19567TIP3    H180192   1.751   2.145  14.206  0.7903 -1.0495  0.5522
19567TIP3    H280193   1.900   2.119  14.196  0.8797  0.2016 -2.3776
19568TIP3   OH280194   2.786   1.293   4.508  0.0903  0.3897  0.2907
19568TIP3    H180195   2.871   1.269   4.473  0.5790  1.3162  0.7948
19568TIP3    H280196   2.740   1.210   4.522  1.2384 -0.1632  0.8360
19569TIP3   OH280197   1.801   3.517  12.319  0.0836 -0.6738 -0.9570
19569TIP3    H180198   1.729   3.460  12.348 -0.8721  0.0086 -1.9300
19569TIP3    H280199   1.880   3.474  12.352 -0.8636  0.0120  2.6437
19570TIP3   OH280200   6.377   2.781  14.855 -0.0634  0.1372 -0.1168
19570TIP3    H180201   6.434   2.736  14.918  0.5377 -1.9409 -1.9973
19570TIP3    H280202   6.413   2.870  14.851 -1.7662  1.2805  4.3044
19571TIP3   OH280203   1.367   3.625   9.878  0.3769 -0.2202  0.1859
19571TIP3    H180204   1.432   3.653   9.814  0.0651 -0.6589 -0.3401
19571TIP3    H280205   1.302   3.695   9.880  1.1208  0.4577  1.0974
19572TIP3   OH280206   2.245   0.647   1.127  0.1226 -0.4478 -0.3202
19572TIP3    H180207   2.305   0.624   1.197 -1.4784  0.2595  1.3692
19572TIP3    H280208   2.172   0.692   1.171 -1.3829 -0.7791 -2.3127
19573TIP3   OH280209   3.124   2.535  12.789 -0.1954  0.9154 -0.9815
19573TIP3    H180210   3.170   2.452  12.795  0.4096  1.3243  1.8975
19573TIP3    H280211   3.086   2.547  12.876 -1.9149  2.7554 -1.9037
19574TIP3   OH280212   1.652   2.572   1.421 -0.2442 -0.2453  0.1284
19574TIP3    H180213   1.658   2.568   1.326  2.9114 -0.3970  0.1988
19574TIP3    H280214   1.569   2.616   1.439 -1.2534 -0.8525 -2.6467
19575TIP3   OH280215   3.902   4.491   0.503 -0.2755 -0.4615  0.1734
19575TIP3    H180216   3.980   4.527   0.546 -0.2186 -0.1497 -0.1890
19575TIP3    H280217   3.866   4.430   0.568  0.8402 -1.3958 -0.0431
19576TIP3   OH280218   0.666   3.497  10.889  0.4817 -0.0168 -0.3515
19576TIP3    H180219   0.628   3.579  10.858  0.0786  0.7433  1.9478
19576TIP3    H280220   0.758   3.519  10.907  0.7759 -0.5102 -1.2261
19577TIP3   OH280221   4.886   5.717  15.731  1.0923  0.0461  0.6233
19577TIP3    H180222   4.912   5.720  15.823  0.7005 -3.1174  0.9522
19577TIP3    H280223   4.961   5.679  15.686  1.9787  3.1176 -0.8005
19578TIP3   OH280224   4.233   4.084  16.134 -0.3338 -0.1790  0.0338
19578TIP3    H180225   4.176   4.149  16.093  1.0540  0.8971 -0.3014
19578TIP3    H280226   4.182   4.049  16.207 -0.8622  1.9187  0.7612
19579TIP3   OH280227   2.828   6.459   1.386 -0.2664  0.5117  0.3837
19579TIP3    H180228   2.804   6.551   1.382 -2.5487  0.0633  1.7655
19579TIP3    H280229   2.786   6.426   1.466  3.5327 -0.9396  2.0402
19580TIP3   OH280230   0.495   1.677  14.803 -0.0994 -0.2905 -0.3296
19580TIP3    H180231   0.520   1.647  14.890 -1.0236  2.0267  0.8330
19580TIP3    H280232   0.401   1.694  14.809 -0.3412 -0.7875 -2.0270
19581TIP3   OH280233   5.245   6.279  12.887  0.0228 -0.1791  0.3370
19581TIP3    H180234   5.250   6.196  12.840  0.2166 -1.3730  2.3502
19581TIP3    H280235   5.170   6.269  12.945 -0.9351  1.7086 -0.5012
19582TIP3   OH280236   3.742   6.073  14.180 -0.3803  0.6836  0.0709
19582TIP3    H180237   3.757   5.980  14.161  0.8639  1.2206 -1.9303
19582TIP3    H280238   3.802   6.094  14.251 -1.4494 -0.2641  1.2886
19583TIP3   OH280239   1.776   6.372  10.704  0.3257 -0.4282  0.3359
19583TIP3    H180240   1.711   6.381  10.634  0.1629  0.7530  0.6273
19583TIP3    H280241   1.856   6.345  10.659  1.0819  3.1944 -0.7979
19584TIP3   OH280242   0.131   0.286  10.379 -0.1292  0.1373  0.4472
19584TIP3    H180243   0.121   0.323  10.466  1.3759 -0.4468  0.8971
19584TIP3    H280244   0.185   0.208  10.392  1.6348  1.0049 -1.2005
19585TIP3   OH280245   5.947   5.947   4.816  0.3632  0.0546  0.0660
19585TIP3    H180246   6.018   5.917   4.873  1.4699  0.0488 -1.2699
19585TIP3    H280247   5.916   5.868   4.772  1.6789  0.4360 -1.6765
19586TIP3   OH280248   2.571   4.312   1.316  0.2148 -0.1935  0.0195
19586TIP3    H180249   2.502   4.337   1.255 -0.2404 -2.6004 -0.5585
19586TIP3    H280250   2.525   4.296   1.399  0.1192 -1.2540 -0.2203
19587TIP3   OH280251   0.465   3.792   0.124  0.6064 -0.1340  0.0943
19587TIP3    H180252   0.427   3.853   0.188  0.5289 -0.4149  0.3185
19587TIP3    H280253   0.402   3.720   0.120  0.5765 -0.0902 -0.3513
19588TIP3   OH280254   3.457   5.368  12.354  0.0247 -0.4354 -0.1616
19588TIP3    H180255   3.381   5.398  12.304 -0.5255 -0.9248  0.3628
19588TIP3    H280256   3.506   5.448  12.374  0.0753 -0.1981 -1.1817
19589TIP3   OH280257   2.420   5.236   1.727  0.6766  0.4122 -0.1818
19589TIP3    H180258   2.511   5.220   1.754  0.3875  0.8839  1.1079
19589TIP3    H280259   2.391   5.309   1.782 -1.2451 -1.2104  1.0693
19590TIP3   OH280260   2.454   1.819   1.601  0.0528 -0.1987 -0.2825
19590TIP3    H180261   2.398   1.896   1.593 -0.8327 -0.7860  0.0894
19590TIP3    H280262   2.479   1.817   1.694 -1.0064 -1.0535  0.0231
19591TIP3   OH280263   2.128   4.823  16.964 -0.3698 -0.7358  0.4477
19591TIP3    H180264   2.155   4.864  16.882 -0.3668 -2.5052 -0.4908
19591TIP3    H280265   2.195   4.849  17.027  0.3448 -0.3966 -0.4279
19592TIP3   OH280266   0.534   0.021   2.761  0.0813  0.1713 -0.4210
19592TIP3    H180267   0.471   0.045   2.829  0.4803  2.7297 -0.8792
19592TIP3    H280268   0.594   0.095   2.756  1.4493 -0.9745 -1.9631
19593TIP3   OH280269   1.597   3.238   0.386 -0.4121  0.3060  0.2396
19593TIP3    H180270   1.611   3.282   0.302  1.1179  1.5695  1.1082
19593TIP3    H280271   1.503   3.216   0.386 -0.3509 -0.1889 -1.9729
19594TIP3   OH280272   6.255   1.425   2.338 -0.1555 -0.0456 -0.3750
19594TIP3    H180273   6.285   1.489   2.402 -2.8707  0.6356  0.3214
19594TIP3    H280274   6.256   1.342   2.385 -0.5249  0.1666  0.0023
19595TIP3   OH280275   0.584   2.712  11.634 -0.0228 -1.0259 -0.7270
19595TIP3    H180276   0.628   2.639  11.590 -1.6060 -2.2008 -0.4373
19595TIP3    H280277   0.541   2.760  11.563 -2.2267 -2.6789 -0.6011
19596TIP3   OH280278   1.696   1.257   5.188 -0.9048 -0.2573 -0.3933
19596TIP3    H180279   1.605   1.241   5.161  0.0967 -1.5534 -3.4218
19596TIP3    H280280   1.710   1.197   5.261 -2.4723 -0.0482  0.1145
19597TIP3   OH280281   6.117   5.204   5.106  0.0061 -0.5511 -0.6897
19597TIP3    H180282   6.098   5.114   5.079  0.0401 -0.5423 -0.7448
19597TIP3    H280283   6.210   5.215   5.087  0.2125 -0.7952  0.1521
19598TIP3   OH280284   3.121   4.833  14.151  0.0691  0.1514 -0.4866
19598TIP3    H180285   3.093   4.846  14.060  0.9143  0.0526 -0.7715
19598TIP3    H280286   3.050   4.871  14.203 -1.1557 -1.1637 -1.1368
19599TIP3   OH280287   5.950   4.644   2.221 -0.0421 -0.4359 -0.8712
19599TIP3    H180288   5.998   4.673   2.144  2.8868  1.6505  1.4825
19599TIP3    H280289   5.897   4.720   2.246  1.2265  0.0125  0.6446
19600TIP3   OH280290   5.456   5.346   0.586 -0.2411 -0.1016 -0.3089
19600TIP3    H180291   5.513   5.420   0.565 -0.5406  0.3362  0.3797
19600TIP3    H280292   5.496   5.305   0.662  0.8190 -1.6605 -1.6548
19601TIP3   OH280293   1.981   3.915   9.985  0.0190 -0.2842 -0.0599
19601TIP3    H180294   2.039   3.989   9.967  0.9322 -1.0387 -0.3258
19601TIP3    H280295   1.997   3.895  10.078  1.0069 -1.1544 -0.3963
19602TIP3   OH280296   2.871   2.029  11.747  0.4484 -0.2758 -0.0544
19602TIP3    H180297   2.851   1.935  11.739 -2.4829  0.1882  0.7000
19602TIP3    H280298   2.823   2.057  11.825  1.3042  1.8480 -0.2404
19603TIP3   OH280299   3.908   3.440  16.344  0.5847 -0.2651  0.4951
19603TIP3    H180300   3.957   3.371  16.300 -0.7889  0.2696 -2.0464
19603TIP3    H280301   3.911   3.514  16.283 -3.4272 -0.2530  0.0362
19604TIP3   OH280302   6.496   3.835  16.405  0.2098 -0.6510  0.3306
19604TIP3    H180303   6.575   3.781  16.400  0.4309 -0.3075  0.1068
19604TIP3    H280304   6.440   3.790  16.469  1.9473  0.8436  3.0951
19605TIP3   OH280305   6.467   0.852  16.005  0.6527 -0.3329 -0.3272
19605TIP3    H180306   6.509   0.843  15.920  0.6407  0.4372 -0.4263
19605TIP3    H280307   6.439   0.944  16.008  1.1094 -0.2196  0.7210
19606TIP3   OH280308   5.611   3.080   5.003 -0.3653 -0.4310  0.0247
19606TIP3    H180309   5.571   3.100   5.088  1.5655 -2.6314  1.6072
19606TIP3    H280310   5.539   3.043   4.951 -1.4014  0.0959  1.0291
19607TIP3   OH280311   5.210   3.167  15.173 -0.0002 -0.3030 -0.0562
19607TIP3    H180312   5.158   3.119  15.239  0.4948  0.0005  0.5621
19607TIP3    H280313   5.148   3.228  15.133  0.3180  1.7089  2.2781
19608TIP3   OH280314   5.338   6.833   4.034  0.5251 -0.1905  0.0196
19608TIP3    H180315   5.365   6.786   4.113 -0.8196 -0.2459  0.4826
19608TIP3    H280316   5.280   6.902   4.066 -0.6989 -0.7223 -0.9532
19609TIP3   OH280317   5.239   2.570   2.149  0.2789 -0.0032  0.5667
19609TIP3    H180318   5.238   2.592   2.056 -0.4609  0.5688  0.7051
19609TIP3    H280319   5.195   2.486   2.154 -3.1092  1.6125  0.7695
19610TIP3   OH280320   1.017   2.055  12.209 -0.5483 -0.4013  0.3668
19610TIP3    H180321   0.965   2.053  12.128 -0.5117  0.6320  0.2990
19610TIP3    H280322   1.079   2.126  12.196  1.1051 -1.8035  0.3412
19611TIP3   OH280323   4.594   6.652   2.560  0.0812  0.1994 -0.2929
19611TIP3    H180324   4.668   6.616   2.510  0.0702  1.1915 -1.0653
19611TIP3    H280325   4.571   6.733   2.513 -1.2891  0.0725  0.1264
19612TIP3   OH280326   1.606   1.546   0.075 -0.0401  0.1511  0.0839
19612TIP3    H180327   1.568   1.529  -0.011 -0.0806  1.6253 -0.2070
19612TIP3    H280328   1.661   1.623   0.062  0.3845  0.0576  1.2617
19613TIP3   OH280329   4.023   3.875  13.034 -0.0418 -0.4353 -0.5173
19613TIP3    H180330   4.107   3.876  13.079 -0.3639  1.4140  0.0960
19613TIP3    H280331   3.959   3.898  13.101 -1.1611 -2.3549 -0.8423
19614TIP3   OH280332   0.969   1.108  13.776  0.1718 -0.3510 -0.1043
19614TIP3    H180333   0.977   1.031  13.720 -0.4252 -0.2966 -0.2812
19614TIP3    H280334   1.044   1.162  13.754 -0.2988 -0.1144 -1.2096
19615TIP3   OH280335   4.511   2.237  16.398  0.5829  0.7225  0.4444
19615TIP3    H180336   4.520   2.173  16.327  1.4684 -1.4921  2.4200
19615TIP3    H280337   4.418   2.235  16.420  0.2784  1.5219 -0.6775
19616TIP3   OH280338   3.254   3.278   0.439 -0.0044  0.4782 -0.5609
19616TIP3    H180339   3.273   3.342   0.371  2.3359  0.0858 -0.3553
19616TIP3    H280340   3.291   3.196   0.407 -1.4488 -0.4099 -0.0646
19617TIP3   OH280341   2.579   3.993  12.780 -0.3345 -0.1107  0.2989
19617TIP3    H180342   2.497   4.012  12.735 -0.8333 -0.4835  1.0262
19617TIP3    H280343   2.563   3.910  12.825 -0.1040  0.5876  1.7294
19618TIP3   OH280344   0.982   3.904  12.850  0.6972  0.0217 -0.6201
19618TIP3    H180345   0.921   3.865  12.787  2.1503 -0.5973 -1.7326
19618TIP3    H280346   1.062   3.852  12.839  1.1633  0.2413  1.4055
19619TIP3   OH280347   1.069   3.488  11.266  0.1607 -0.2428 -0.2613
19619TIP3    H180348   1.100   3.405  11.229 -0.1972  0.0962 -1.3841
19619TIP3    H280349   0.988   3.466  11.311  0.6959 -0.7029  0.4969
19620TIP3   OH280350   2.330   1.205  12.622  0.7625  0.4796  0.0755
19620TIP3    H180351   2.395   1.220  12.554  0.9804 -0.1098  0.1426
19620TIP3    H280352   2.331   1.110  12.634 -1.0670  0.2973 -0.8871
19621TIP3   OH280353   3.585   0.161  12.282 -0.2663 -0.1155 -0.0093
19621TIP3    H180354   3.540   0.100  12.225  0.6959 -0.3853 -0.4861
19621TIP3    H280355   3.609   0.110  12.359  0.4614 -0.3306 -0.3702
19622TIP3   OH280356   3.773   4.111   2.107 -0.1546 -0.3864  0.1672
19622TIP3    H180357   3.738   4.150   2.027 -1.0274 -0.6192  0.4242
19622TIP3    H280358   3.868   4.119   2.098 -0.1714 -1.4675 -1.4265
19623TIP3   OH280359   5.808   3.622  13.175  0.4530 -0.4282  0.2529
19623TIP3    H180360   5.808   3.545  13.231 -1.1541  0.5179  1.6610
19623TIP3    H280361   5.814   3.588  13.086  1.7209 -2.0473  0.9274
19624TIP3   OH280362   0.706   3.528  14.253  0.0699  0.0050  0.3116
19624TIP3    H180363   0.696   3.622  14.242 -0.1684 -0.2894 -2.5845
19624TIP3    H280364   0.788   3.518  14.301  0.6797  1.6517 -0.3166
19625TIP3   OH280365   0.974   4.380   1.863  0.6875 -0.2116  0.1150
19625TIP3    H180366   1.027   4.460   1.858  1.4735 -0.4097  3.0339
19625TIP3    H280367   0.904   4.402   1.924 -0.5284 -1.0755 -0.9238
19626TIP3   OH280368   1.858   3.840  17.147  0.0021  0.2986  0.2584
19626TIP3    H180369   1.913   3.764  17.167  0.7283  0.6927 -0.1598
19626TIP3    H280370   1.788   3.838  17.212  0.7399 -0.0050  1.0662
19627TIP3   OH280371   4.594   5.101  12.010 -0.4975  0.4065  0.4352
19627TIP3    H180372   4.506   5.128  11.985 -1.0190  1.7238  3.2815
19627TIP3    H280373   4.629   5.176  12.058  1.1676 -1.0517  1.6395
19628TIP3   OH280374   4.933   6.104  16.325  0.7090 -0.2002  0.4936
19628TIP3    H180375   4.885   6.026  16.352 -1.2566  1.1678  1.1711
19628TIP3    H280376   4.882   6.139  16.251  2.1659 -0.1149 -0.5174
19629TIP3   OH280377   4.011   5.405  16.234  0.0675  0.2701  0.1715
19629TIP3    H180378   3.985   5.475  16.294 -0.8101 -0.8413  1.1344
19629TIP3    H280379   3.999   5.443  16.147 -1.3716  0.9960  0.6515
19630TIP3   OH280380   5.806   1.734   0.360  0.1409 -0.7957 -0.5549
19630TIP3    H180381   5.796   1.802   0.294 -0.4242 -1.2220 -0.9206
19630TIP3    H280382   5.785   1.777   0.443 -0.4069 -0.5709 -0.8068
19631TIP3   OH280383   1.606   6.220   1.262  0.3573  0.5628 -0.0340
19631TIP3    H180384   1.516   6.205   1.234  0.1154 -0.5683  1.2625
19631TIP3    H280385   1.603   6.218   1.357  2.1680 -2.5986  0.1147
19632TIP3   OH280386   1.508   4.550   1.709 -0.7917 -0.0948  0.0532
19632TIP3    H180387   1.423   4.570   1.749 -0.7949 -0.5987  0.3025
19632TIP3    H280388   1.572   4.565   1.778 -0.7627 -0.5955  0.1381
19633TIP3   OH280389   3.698   6.673   1.663  0.4411 -0.2373  0.1242
19633TIP3    H180390   3.617   6.622   1.657  1.0270 -1.0425 -1.4273
19633TIP3    H280391   3.764   6.610   1.688  0.8604  0.1363 -0.0337
19634TIP3   OH280392   0.440   4.284   4.048  0.0051 -0.2569  0.5008
19634TIP3    H180393   0.514   4.270   3.990  1.2160 -1.3371  2.1847
19634TIP3    H280394   0.479   4.296   4.135 -1.6572  2.2486  1.0156
19635TIP3   OH280395   1.341   2.674   2.462  0.2188 -0.2306  0.3555
19635TIP3    H180396   1.302   2.727   2.391  0.5596  0.3712  0.6065
19635TIP3    H280397   1.401   2.615   2.418  0.8256  0.5044  0.1782
19636TIP3   OH280398   5.308   4.036   3.038 -0.3561 -0.0902  0.1685
19636TIP3    H180399   5.389   4.039   2.987 -0.5771 -1.3834 -0.3011
19636TIP3    H280400   5.300   3.944   3.066 -2.4024 -0.3683 -1.0657
19637TIP3   OH280401   5.080   6.176  11.650 -0.0120 -0.0160 -0.1864
19637TIP3    H180402   4.988   6.197  11.665 -0.3592  0.6613 -2.8451
19637TIP3    H280403   5.126   6.215  11.724 -1.9174 -1.6369  2.0167
19638TIP3   OH280404   3.679   2.615  14.158  0.2102  0.1338  0.0848
19638TIP3    H180405   3.689   2.548  14.091 -0.2373  0.2936 -0.1440
19638TIP3    H280406   3.769   2.639  14.181  0.3966  0.9256 -1.3179
19639TIP3   OH280407   6.265   1.090   3.654 -0.3769 -0.0972 -0.4450
19639TIP3    H180408   6.189   1.148   3.658  0.7930  1.4357  2.9694
19639TIP3    H280409   6.253   1.028   3.726  1.3444 -0.1716 -0.1717
19640TIP3   OH280410   4.012   3.753  10.787  0.2815 -0.5308 -0.1458
19640TIP3    H180411   4.031   3.838  10.826  2.0151 -1.0515  0.2081
19640TIP3    H280412   3.932   3.768  10.736  0.3305  1.1997  0.2145
19641TIP3   OH280413   1.362   4.130   5.061  0.2387 -0.3749  0.5246
19641TIP3    H180414   1.282   4.149   5.110 -1.8198 -0.4963 -2.4963
19641TIP3    H280415   1.414   4.210   5.068 -1.7315  1.0503 -0.1527
19642TIP3   OH280416   0.511   3.509   0.670 -0.4140  0.4655 -0.7553
19642TIP3    H180417   0.566   3.491   0.593  0.1940  4.1121 -1.3731
19642TIP3    H280418   0.574   3.520   0.742 -0.9743 -2.8224  0.3951
19643TIP3   OH280419   0.338   2.832   3.234 -0.0257 -0.3016  0.1333
19643TIP3    H180420   0.397   2.875   3.172 -0.2076 -0.1070  0.0970
19643TIP3    H280421   0.301   2.758   3.185 -1.3334  0.7333 -0.4795
19644TIP3   OH280422   6.808   4.871  12.865 -0.2730  0.0848 -0.4489
19644TIP3    H180423   6.811   4.946  12.805 -0.0395 -0.9554 -1.7603
19644TIP3    H280424   6.898   4.859  12.893 -0.5676  1.4876  1.3545
19645TIP3   OH280425   2.888   6.129  12.362  0.5854 -0.0362 -0.5259
19645TIP3    H180426   2.899   6.223  12.377  4.2489 -0.5788  1.4323
19645TIP3    H280427   2.841   6.097  12.439 -0.1020  0.0774 -0.8909
19646TIP3   OH280428   4.167   2.858  15.478  0.1701  0.1133  0.1785
19646TIP3    H180429   4.109   2.788  15.448  1.8942 -1.5011  0.3859
19646TIP3    H280430   4.154   2.860  15.573 -0.7319  0.9018  0.0462
19647TIP3   OH280431   6.700   2.280   3.446 -0.1391 -0.0861 -0.0743
19647TIP3    H180432   6.629   2.264   3.384 -0.5404 -3.5400  1.1055
19647TIP3    H280433   6.777   2.294   3.391 -0.9522 -0.4733 -1.3561
19648TIP3   OH280434   6.153   3.982  14.975  0.2532 -0.0297  0.4077
19648TIP3    H180435   6.104   4.058  14.943  0.0304 -0.8830 -1.3273
19648TIP3    H280436   6.245   4.006  14.961  0.1563 -0.5076 -1.2228
19649TIP3   OH280437   6.349   1.488   0.448 -0.3316  1.0152 -0.3527
19649TIP3    H180438   6.272   1.544   0.442 -2.3259 -1.5683 -0.6109
19649TIP3    H280439   6.370   1.486   0.541 -2.6925 -0.7585  0.2385
19650TIP3   OH280440   5.163   0.135   1.467  0.4709 -0.1153 -0.5230
19650TIP3    H180441   5.231   0.183   1.419  0.6291  0.5455  0.3315
19650TIP3    H280442   5.123   0.078   1.402  1.1681  0.2311 -1.2695
19651TIP3   OH280443   0.774   1.451   1.199 -0.1422  0.1850 -0.2027
19651TIP3    H180444   0.865   1.422   1.197  0.6316  2.3720 -0.0006
19651TIP3    H280445   0.727   1.388   1.144  1.7279 -0.3034 -1.3295
19652TIP3   OH280446   2.383   3.120  14.846  0.2553  0.4229  0.1184
19652TIP3    H180447   2.403   3.057  14.915  0.1388 -0.2784 -0.4797
19652TIP3    H280448   2.300   3.159  14.872  1.2663  1.7941  1.5138
19653TIP3   OH280449   3.090   5.201   2.510 -0.1117 -0.4498  0.4815
19653TIP3    H180450   3.108   5.148   2.432 -0.1547 -0.1349  0.2519
19653TIP3    H280451   3.158   5.176   2.573  1.2164  0.7414 -0.3784
19654TIP3   OH280452   5.990   3.049  14.934  0.3605 -0.1927 -0.1832
19654TIP3    H180453   5.903   3.019  14.908  1.5247 -1.3297 -3.2307
19654TIP3    H280454   5.995   3.139  14.901  0.9038 -0.7334 -1.6557
19655TIP3   OH280455   1.040   4.487  14.294 -0.5108 -0.0381  0.1697
19655TIP3    H180456   0.948   4.509  14.307  0.0099  1.2622  2.2769
19655TIP3    H280457   1.042   4.432  14.216 -3.0392 -0.0046  0.0210
19656TIP3   OH280458   2.688   5.921  14.891 -0.2196  0.0605 -0.4079
19656TIP3    H180459   2.760   5.912  14.954  0.0942  0.5051 -0.6998
19656TIP3    H280460   2.722   5.981  14.824 -1.2989  1.2451  0.0852
19657TIP3   OH280461   4.433   6.699  16.022  0.4594  0.1152  0.8327
19657TIP3    H180462   4.410   6.729  15.934  1.1042 -0.4728  0.4516
19657TIP3    H280463   4.350   6.696  16.069  0.3996  3.0347  1.0916
19658TIP3   OH280464   5.786   5.211  12.081 -0.0352 -0.5348  0.1004
19658TIP3    H180465   5.734   5.244  12.007 -0.6895  0.9290  1.1676
19658TIP3    H280466   5.721   5.186  12.146  0.5329 -2.0276  0.1324
19659TIP3   OH280467   3.885   2.127  13.578  0.0291 -0.2015  0.7198
19659TIP3    H180468   3.955   2.062  13.580  1.2463  1.0420  0.3780
19659TIP3    H280469   3.828   2.105  13.652  1.0176 -0.9894  1.2601
19660TIP3   OH280470   2.086   1.638   4.709  0.2759 -0.6196  0.0918
19660TIP3    H180471   2.174   1.600   4.703  0.2542 -0.9278  1.3848
19660TIP3    H280472   2.098   1.731   4.691  0.5587 -0.9564 -1.6401
19661TIP3   OH280473   0.992   2.997   0.258 -0.3248  0.1723 -0.0435
19661TIP3    H180474   0.948   2.987   0.342  0.1364 -0.1943  0.1568
19661TIP3    H280475   0.924   3.030   0.199 -1.2017 -1.5340 -0.0487
19662TIP3   OH280476   3.924   1.846  15.165  0.4392 -0.2515 -0.5997
19662TIP3    H180477   3.840   1.806  15.189 -0.5649  1.2078 -1.4581
19662TIP3    H280478   3.990   1.793  15.208 -1.0199 -0.5012  1.4412
19663TIP3   OH280479   1.353   4.662   3.004 -0.2264 -0.3986 -0.1685
19663TIP3    H180480   1.368   4.696   3.093  0.3201 -1.5562  0.2058
19663TIP3    H280481   1.435   4.618   2.982 -0.5781 -0.6363 -1.0111
19664TIP3   OH280482   2.773   0.774   3.150 -0.7878  0.2730  0.3300
19664TIP3    H180483   2.850   0.797   3.202 -1.2041  0.5110  0.8556
19664TIP3    H280484   2.705   0.834   3.181 -1.2267 -0.0464 -0.0080
19665TIP3   OH280485   0.105   3.232   1.432 -0.2531 -0.2586  0.2197
19665TIP3    H180486   0.100   3.293   1.358 -1.9384  0.3291  0.7708
19665TIP3    H280487   0.112   3.146   1.391  2.2105  0.2215 -0.5795
19666TIP3   OH280488   3.642   6.376   1.153  0.3524  0.3609 -0.3460
19666TIP3    H180489   3.704   6.434   1.196  1.8176 -1.1395 -0.3405
19666TIP3    H280490   3.686   6.347   1.073 -1.4334  1.3406 -1.7673
19667TIP3   OH280491   0.296   4.048   2.261  0.3108 -1.5733 -0.6381
19667TIP3    H180492   0.378   4.026   2.306  0.5163 -2.0844 -1.2398
19667TIP3    H280493   0.237   4.075   2.330  1.9963  2.1283 -0.4277
19668TIP3   OH280494   6.093   1.927   4.414 -0.4964  0.1834 -0.9346
19668TIP3    H180495   6.103   1.843   4.370  0.6382 -0.6730  0.8138
19668TIP3    H280496   6.105   1.906   4.507 -0.4585  2.2357 -0.4336
19669TIP3   OH280497   2.782   2.048  16.352  0.7605  0.1319 -0.5353
19669TIP3    H180498   2.800   2.086  16.437 -1.7324  0.6364 -0.1516
19669TIP3    H280499   2.694   2.010  16.361  0.4570  0.1517 -2.8571
19670TIP3   OH280500   4.583   5.376   3.380 -0.1260 -0.3645  0.2064
19670TIP3    H180501   4.533   5.296   3.362 -0.4132  0.1846 -1.5591
19670TIP3    H280502   4.517   5.441   3.403 -0.2352  0.2267 -1.6336
19671TIP3   OH280503   1.970   1.369   4.271  0.3759 -0.2699  0.2346
19671TIP3    H180504   1.991   1.435   4.337  3.2813 -0.3608 -0.4593
19671TIP3    H280505   1.952   1.289   4.321  0.8508  0.0781  0.9749
19672TIP3   OH280506   5.097   5.955   0.645 -0.3075 -0.3979  0.5565
19672TIP3    H180507   5.067   5.975   0.557 -1.9438  1.5829  1.4874
19672TIP3    H280508   5.025   5.906   0.685 -1.2600  1.9126  1.8977
19673TIP3   OH280509   0.068   5.768  14.329 -0.3745  0.5438 -0.2827
19673TIP3    H180510   0.071   5.795  14.237 -1.1566  2.0997  0.1165
19673TIP3    H280511   0.003   5.826  14.369  1.1823  1.1041  1.6164
19674TIP3   OH280512   5.400   1.910  13.695  0.0200 -0.5835 -0.2961
19674TIP3    H180513   5.314   1.869  13.706  0.3010 -1.2390 -0.4856
19674TIP3    H280514   5.430   1.880  13.609  0.3631 -0.2171 -0.3057
19675TIP3   OH280515   0.871   3.998   2.447 -0.3676 -0.6830  0.2816
19675TIP3    H180516   0.859   3.981   2.540  1.3031  1.6879  1.0236
19675TIP3    H280517   0.952   3.953   2.424 -0.0056 -0.0757  0.3509
19676TIP3   OH280518   6.350   4.201   4.524  0.2996  0.0966 -0.2920
19676TIP3    H180519   6.262   4.165   4.536  0.1568  0.3293 -0.6383
19676TIP3    H280520   6.340   4.295   4.539  0.2242  0.3212 -1.6648
19677TIP3   OH280521   5.449   3.642  11.471 -0.2060 -0.1603  0.2001
19677TIP3    H180522   5.509   3.717  11.469 -0.2452 -0.1130  0.7128
19677TIP3    H280523   5.391   3.657  11.396 -0.5704  0.6191  0.6247
19678TIP3   OH280524   4.757   1.409   5.750 -0.0376 -0.3570  0.1778
19678TIP3    H180525   4.724   1.325   5.718  1.2592 -0.6937 -0.3193
19678TIP3    H280526   4.807   1.386   5.828  2.9421 -0.5212 -1.6444
19679TIP3   OH280527   3.133   2.779  13.283  0.8971 -0.2570 -0.0509
19679TIP3    H180528   3.055   2.724  13.283  1.4543 -1.0708 -0.9650
19679TIP3    H280529   3.180   2.754  13.362  0.7159 -0.4637 -0.0076
19680TIP3   OH280530   1.575   5.413   2.086 -0.1790 -0.5339 -0.4265
19680TIP3    H180531   1.492   5.441   2.050  0.9769 -1.0244 -3.7896
19680TIP3    H280532   1.624   5.378   2.011  3.6793  1.2096  1.0123
19681TIP3   OH280533   1.680   0.429   4.247 -0.5336 -0.0325  0.1813
19681TIP3    H180534   1.631   0.423   4.165 -1.3191  0.2885  0.6170
19681TIP3    H280535   1.764   0.387   4.228 -0.8015 -0.1824 -0.7116
19682TIP3   OH280536   1.157   6.046  16.109 -0.4402  0.1473  0.0810
19682TIP3    H180537   1.068   6.014  16.092  0.0377 -0.5512 -1.2193
19682TIP3    H280538   1.148   6.099  16.188 -2.6906  2.8256 -1.7686
19683TIP3   OH280539   6.573   3.164   1.527 -0.3775  0.3698 -0.7203
19683TIP3    H180540   6.618   3.149   1.610  1.4996 -1.7645 -1.9993
19683TIP3    H280541   6.480   3.153   1.547  0.1345 -1.5003  0.8668
19684TIP3   OH280542   2.301   5.165   0.642 -0.1482  0.1882  0.6125
19684TIP3    H180543   2.234   5.126   0.586  1.7139  1.3314 -2.7271
19684TIP3    H280544   2.360   5.093   0.663  1.2313  0.2677 -2.3757
19685TIP3   OH280545   2.768   4.107   2.065  0.4528  0.2022  0.0291
19685TIP3    H180546   2.781   4.071   2.152  1.3019  2.9931  1.1577
19685TIP3    H280547   2.686   4.156   2.071 -2.0851 -3.2369 -2.1871
19686TIP3   OH280548   4.203   2.750  12.903  0.0992  0.7119 -0.3783
19686TIP3    H180549   4.114   2.775  12.927 -0.2586  0.8796 -1.8298
19686TIP3    H280550   4.244   2.830  12.871  0.9600  0.7540  0.7667
19687TIP3   OH280551   1.278   1.710   0.484  0.3050 -0.4803  0.5138
19687TIP3    H180552   1.223   1.661   0.423 -0.4106  2.0532 -1.0285
19687TIP3    H280553   1.363   1.716   0.440 -0.1433  1.1404 -0.2312
19688TIP3   OH280554   4.884   4.858  15.534  0.3057 -0.1828  0.0441
19688TIP3    H180555   4.817   4.817  15.590 -0.1052 -1.1304 -1.1170
19688TIP3    H280556   4.967   4.823  15.566  0.5767  2.5303  2.8690
19689TIP3   OH280557   5.215   2.772   3.605 -0.1022  0.0497  0.4748
19689TIP3    H180558   5.154   2.698   3.602  1.2550 -1.1287  0.6663
19689TIP3    H280559   5.168   2.840   3.654 -2.3262  0.2692 -1.7671
19690TIP3   OH280560   6.179   5.657   2.786  0.5144 -0.2823 -0.5751
19690TIP3    H180561   6.129   5.738   2.774  0.4231 -0.2472  0.0379
19690TIP3    H280562   6.237   5.675   2.860 -0.0662 -1.0464  0.0827
19691TIP3   OH280563   6.327   6.049   5.869  0.1566 -0.1233  0.0265
19691TIP3    H180564   6.278   6.044   5.952  0.3358 -0.5914  0.1051
19691TIP3    H280565   6.373   5.966   5.863 -1.4761 -0.9836 -1.5709
19692TIP3   OH280566   0.763   0.710   2.076 -0.1902  0.2015 -0.2836
19692TIP3    H180567   0.741   0.617   2.071  2.3300 -0.4657 -0.0621
19692TIP3    H280568   0.683   0.755   2.047 -1.3790 -2.0082 -0.6484
19693TIP3   OH280569   4.962   1.827  13.027  0.3477  0.8562  0.5278
19693TIP3    H180570   4.973   1.843  12.933 -1.0942  1.2934  0.4072
19693TIP3    H280571   5.006   1.744  13.043  2.1280  1.6126 -0.1751
19694TIP3   OH280572   0.289   6.464   3.488  0.6640 -0.2625  0.3351
19694TIP3    H180573   0.382   6.481   3.497  1.0076 -2.3371  1.4320
19694TIP3    H280574   0.281   6.412   3.408  0.1232  1.6776 -0.9355
19695TIP3   OH280575   2.753   2.577   2.699  0.7012  0.0050 -0.1989
19695TIP3    H180576   2.747   2.491   2.660 -0.6447 -0.4662  0.9457
19695TIP3    H280577   2.719   2.637   2.633  0.0111 -0.5636 -0.3624
19696TIP3   OH280578   5.691   6.021  14.397 -0.2003 -0.5443 -0.0711
19696TIP3    H180579   5.616   6.002  14.452 -0.8025 -0.0783 -0.7003
19696TIP3    H280580   5.732   5.936  14.380 -0.0633 -0.7021  0.9844
19697TIP3   OH280581   2.095   0.225   3.681  0.1337  0.2309 -0.0482
19697TIP3    H180582   2.148   0.297   3.717 -0.3354  2.2435 -3.0576
19697TIP3    H280583   2.159   0.155   3.665  1.1012  0.9648  0.4651
19698TIP3   OH280584   2.418   4.109  12.588  0.0324 -0.5003 -1.3392
19698TIP3    H180585   2.374   4.101  12.503 -2.3738  0.1833 -0.2232
19698TIP3    H280586   2.440   4.202  12.594 -0.8986 -0.3187 -0.7033
19699TIP3   OH280587   1.519   1.437  14.271  0.6698 -0.3796  0.1066
19699TIP3    H180588   1.431   1.409  14.295  0.3151  1.0159  0.5410
19699TIP3    H280589   1.544   1.501  14.339  2.3393 -1.3139  0.4387
19700TIP3   OH280590   3.505   6.160  14.598 -0.0457 -0.4596 -0.2063
19700TIP3    H180591   3.533   6.069  14.601  0.2025 -0.4408 -1.4276
19700TIP3    H280592   3.409   6.156  14.589 -0.0052 -0.6171 -0.5942
19701TIP3   OH280593   0.335   0.626  10.595 -0.0279 -0.2621  0.6970
19701TIP3    H180594   0.420   0.581  10.590 -0.2581 -0.7477  1.0011
19701TIP3    H280595   0.335   0.686  10.520  0.0667 -1.1781 -0.0700
19702TIP3   OH280596   0.495   3.046   0.883 -0.1104 -0.2283 -0.3435
19702TIP3    H180597   0.581   3.060   0.923 -0.5976 -2.5838  1.7640
19702TIP3    H280598   0.492   3.107   0.809  2.5142  1.4031  0.7856
19703TIP3   OH280599   5.295   3.121   2.179  0.5974 -0.4682 -0.4642
19703TIP3    H180600   5.201   3.136   2.166  0.3838 -0.5365  0.8224
19703TIP3    H280601   5.315   3.165   2.261  1.4321 -1.4666 -0.1057
19704TIP3   OH280602   2.147   5.007   5.065  0.0074 -0.0343  0.5091
19704TIP3    H180603   2.158   5.094   5.105  1.4113 -0.6623  1.5688
19704TIP3    H280604   2.170   5.020   4.973  0.1771  0.7241  0.6465
19705TIP3   OH280605   0.333   6.324  14.596 -0.3079 -0.3622 -0.0313
19705TIP3    H180606   0.412   6.365  14.634 -0.8790 -1.5530  2.7078
19705TIP3    H280607   0.352   6.318  14.502  1.1589  3.0176 -0.0935
19706TIP3   OH280608   3.124   0.735  16.673 -0.1391  0.2957  0.3645
19706TIP3    H180609   3.150   0.662  16.618  0.5970  0.8825 -0.0969
19706TIP3    H280610   3.048   0.704  16.721  0.3346 -0.8744  0.3963
19707TIP3   OH280611   5.585   3.189  12.516 -0.0707  0.1079 -0.0803
19707TIP3    H180612   5.576   3.277  12.479  0.3150 -0.2182 -0.9922
19707TIP3    H280613   5.496   3.161  12.534 -0.2009  0.6470  0.1321
19708TIP3   OH280614   5.666   1.267  15.202 -0.0544 -0.1108  0.3487
19708TIP3    H180615   5.640   1.350  15.241 -1.1867  0.7555 -2.0556
19708TIP3    H280616   5.691   1.289  15.112  1.4178 -2.1279  0.1833
19709TIP3   OH280617   0.194   3.771  11.492  0.5046 -0.2885 -0.0198
19709TIP3    H180618   0.252   3.796  11.421 -0.2109  0.0591 -0.4914
19709TIP3    H280619   0.154   3.853  11.520  1.5729 -0.2481  1.5154
19710TIP3   OH280620   5.589   5.479   3.057  0.8651  0.2027  0.1698
19710TIP3    H180621   5.683   5.494   3.048  0.8541  0.6946  0.7849
19710TIP3    H280622   5.582   5.411   3.123  0.8155 -0.5814 -0.6266
19711TIP3   OH280623   2.218   5.445   3.669  0.1426 -0.0168 -0.4300
19711TIP3    H180624   2.239   5.454   3.762  0.7423 -0.5037 -0.5098
19711TIP3    H280625   2.128   5.476   3.661 -0.8783 -2.4207  0.7745
19712TIP3   OH280626   4.883   5.228  13.882  0.1597  0.2686  0.1218
19712TIP3    H180627   4.801   5.211  13.928  0.6981  0.6688  1.2596
19712TIP3    H280628   4.907   5.143  13.843 -0.3816 -0.0370  0.4510
19713TIP3   OH280629   0.067   3.982  12.538 -0.1097 -0.4099 -0.0876
19713TIP3    H180630  -0.004   4.024  12.490  2.4729  1.5452 -2.5793
19713TIP3    H280631   0.026   3.947  12.617 -3.9324 -0.3166 -1.8401
19714TIP3   OH280632   5.125   0.303  11.578 -0.0762 -0.1028 -0.2080
19714TIP3    H180633   5.177   0.223  11.589 -2.2062 -1.4369  0.9509
19714TIP3    H280634   5.045   0.274  11.534 -0.8065  1.4319  0.0358
19715TIP3   OH280635   2.564   2.461   0.793 -0.4967 -0.0175 -0.3678
19715TIP3    H180636   2.473   2.444   0.819  0.2325 -1.8741  1.2142
19715TIP3    H280637   2.561   2.547   0.751 -2.8061  0.4236  0.5492
19716TIP3   OH280638   3.515   4.540   0.117 -0.3258 -0.1521  0.0414
19716TIP3    H180639   3.521   4.558   0.211  1.0167  1.2664 -0.2751
19716TIP3    H280640   3.476   4.619   0.080  2.9830  1.1500 -1.0418
19717TIP3   OH280641   3.093   4.564   1.021  0.1130  0.0424  0.0384
19717TIP3    H180642   3.025   4.617   1.061  1.3482  1.0673  0.8428
19717TIP3    H280643   3.172   4.586   1.069  0.4916 -3.4907  1.3239
19718TIP3   OH280644   5.267   2.983   5.883 -0.0507  0.2433 -0.2140
19718TIP3    H180645   5.212   3.048   5.927  1.5619  1.8850 -0.5286
19718TIP3    H280646   5.244   2.900   5.926 -0.7761  1.2897  1.5444
19719TIP3   OH280647   1.937   1.743  15.130 -0.0041  0.1370 -0.1528
19719TIP3    H180648   2.030   1.743  15.108 -0.1975 -1.2571 -1.0697
19719TIP3    H280649   1.932   1.697  15.214  0.2545  1.5500  0.6853
19720TIP3   OH280650   5.012   3.183   0.770 -0.3458 -0.2466  0.6899
19720TIP3    H180651   5.031   3.239   0.695  0.2550  0.2293  1.1915
19720TIP3    H280652   4.990   3.244   0.841 -0.5688 -0.6751  0.9967
19721TIP3   OH280653   2.461   0.009  16.112 -0.4525 -0.3668  0.1235
19721TIP3    H180654   2.371   0.012  16.144 -0.3325 -1.3991  0.6063
19721TIP3    H280655   2.453   0.006  16.017 -0.9739 -1.5162  0.1936
19722TIP3   OH280656   4.649   3.620  15.853 -0.3262  0.2430  0.2673
19722TIP3    H180657   4.577   3.591  15.797 -0.3651  0.6030  0.1309
19722TIP3    H280658   4.722   3.565  15.828 -0.0555  1.0837 -0.8687
19723TIP3   OH280659   4.573   4.153  11.944 -0.6070 -0.0564 -0.2985
19723TIP3    H180660   4.579   4.149  11.849  0.7355  0.3616 -0.2621
19723TIP3    H280661   4.631   4.226  11.968 -1.1068 -0.0121  0.8171
19724TIP3   OH280662   1.480   4.769  14.390  0.4150  0.5632  0.0892
19724TIP3    H180663   1.386   4.755  14.391  0.6127 -1.6120 -2.5369
19724TIP3    H280664   1.505   4.771  14.483 -2.0645  0.3186  0.8168
19725TIP3   OH280665   0.424   4.934   4.381 -0.6430 -0.1934  0.3665
19725TIP3    H180666   0.394   4.918   4.471 -0.7329 -0.6267  0.2618
19725TIP3    H280667   0.410   4.851   4.336  1.1948 -0.5810  0.4318
19726TIP3   OH280668   0.118   5.501  12.933  0.0969 -0.0909 -0.1027
19726TIP3    H180669   0.114   5.552  13.014 -0.2341  1.1602 -0.8848
19726TIP3    H280670   0.205   5.519  12.898  0.8038 -1.7981  0.6900
19727TIP3   OH280671   0.681   4.851  11.978  0.9820 -0.4618 -0.1770
19727TIP3    H180672   0.658   4.921  11.917 -0.9953 -1.2129 -0.3698
19727TIP3    H280673   0.647   4.882  12.062  1.1169 -0.6942 -0.0381
19728TIP3   OH280674   4.941   0.177  11.851 -0.1607 -0.5443 -0.4600
19728TIP3    H180675   4.864   0.232  11.867 -0.6565 -0.4757 -2.6758
19728TIP3    H280676   5.013   0.226  11.889 -1.0830 -0.2335  0.9806
19729TIP3   OH280677   1.408   4.635  16.863 -0.3571  0.4957 -0.4791
19729TIP3    H180678   1.347   4.665  16.930  1.7029 -0.2196  1.8753
19729TIP3    H280679   1.369   4.556  16.827 -1.1631  0.4729  0.4291
19730TIP3   OH280680   2.411   1.866  15.509 -0.0458 -0.3343  0.2855
19730TIP3    H180681   2.481   1.887  15.571  0.5532 -2.8410  0.5701
19730TIP3    H280682   2.349   1.814  15.560  0.5435 -2.5971 -1.1807
19731TIP3   OH280683   5.492   0.686  11.741  0.1952  0.1024 -0.1106
19731TIP3    H180684   5.581   0.651  11.754  0.2431 -0.1573 -1.0153
19731TIP3    H280685   5.477   0.676  11.647 -0.1919  1.6077 -0.2322
19732TIP3   OH280686   3.216   1.201  12.283  0.4669  0.0798 -0.2778
19732TIP3    H180687   3.238   1.278  12.230  1.4017  0.4399  0.5914
19732TIP3    H280688   3.126   1.181  12.260 -0.4330  2.5298  0.7456
19733TIP3   OH280689   0.737   1.612  15.550 -0.2730  0.6209  0.7050
19733TIP3    H180690   0.716   1.538  15.608 -1.6224  0.3835 -0.0562
19733TIP3    H280691   0.688   1.595  15.470  2.3481  0.4138 -0.9877
19734TIP3   OH280692   0.198   5.550  11.465 -0.3952 -0.3648  0.6244
19734TIP3    H180693   0.277   5.522  11.419 -1.8836 -0.9601 -1.7339
19734TIP3    H280694   0.188   5.642  11.441 -1.1382 -0.6578 -0.2389
19735TIP3   OH280695   3.669   1.468  15.606 -0.4502  0.1797  0.2999
19735TIP3    H180696   3.644   1.459  15.514  0.3397  0.0415  0.0822
19735TIP3    H280697   3.639   1.388  15.648 -3.5383  1.5025  0.8620
19736TIP3   OH280698   2.307   1.158   3.073 -0.3732 -0.3709  0.3519
19736TIP3    H180699   2.294   1.205   2.990  0.2968  0.1469  0.5325
19736TIP3    H280700   2.272   1.071   3.057  0.3471 -0.4843 -0.6982
19737TIP3   OH280701   2.267   5.488   6.262  0.4543  0.3070  0.1388
19737TIP3    H180702   2.178   5.497   6.298  1.6115  0.5585  3.2667
19737TIP3    H280703   2.288   5.574   6.227 -0.1802  0.5443  0.3187
19738TIP3   OH280704   4.753   6.549  11.056 -0.0922  0.0868 -0.0355
19738TIP3    H180705   4.663   6.581  11.056 -0.6550 -1.4437  0.5776
19738TIP3    H280706   4.793   6.591  10.980 -1.4123  0.5347 -0.5013
19739TIP3   OH280707   3.021   3.159   1.037  0.0158 -0.2160  0.2405
19739TIP3    H180708   3.047   3.111   1.116  0.3029  0.6251  0.6788
19739TIP3    H280709   3.056   3.247   1.051  2.3010 -0.6575 -1.9480
19740TIP3   OH280710   4.192   3.755  15.198  0.0394  0.7328  0.4185
19740TIP3    H180711   4.147   3.684  15.153  1.1402  0.1213  0.2494
19740TIP3    H280712   4.284   3.744  15.175  0.2439  2.2058  0.4152
19741TIP3   OH280713   3.016   3.036  12.206 -0.3006 -0.0175 -0.6882
19741TIP3    H180714   3.023   2.942  12.194 -0.4685  0.1400 -2.1817
19741TIP3    H280715   3.091   3.058  12.262 -0.6628 -1.1050  0.2713
19742TIP3   OH280716   6.199   0.806   4.794 -0.3455 -0.0528  0.0740
19742TIP3    H180717   6.235   0.796   4.882  0.9442 -1.8992 -0.5919
19742TIP3    H280718   6.272   0.843   4.743 -1.3205  1.7527 -0.1090
19743TIP3   OH280719   1.046   1.520   4.921 -0.3079  0.8872  0.0773
19743TIP3    H180720   1.028   1.614   4.922 -2.5340  0.5525 -1.7211
19743TIP3    H280721   0.961   1.480   4.908  0.6810 -1.3935  0.2435
19744TIP3   OH280722   0.518   0.797   9.940  0.3063  0.1256  0.0182
19744TIP3    H180723   0.569   0.791  10.020  1.8517 -1.5278 -1.0313
19744TIP3    H280724   0.581   0.785   9.869 -1.1986  0.2894 -1.4334
19745TIP3   OH280725   5.794   1.885   0.604 -0.2601 -0.2734 -0.4320
19745TIP3    H180726   5.889   1.878   0.595 -0.1380  1.5178 -0.9922
19745TIP3    H280727   5.776   1.978   0.593 -1.9477 -0.3666  1.0176
19746TIP3   OH280728   4.432   6.374  12.877 -0.0148  0.0228  0.2742
19746TIP3    H180729   4.352   6.387  12.927 -0.6115 -0.7230 -0.4636
19746TIP3    H280730   4.483   6.453  12.893 -1.9585  1.6907 -1.2033
19747TIP3   OH280731   1.921   5.310   3.895  0.0408 -0.6779 -0.2193
19747TIP3    H180732   1.933   5.354   3.811  2.8610 -3.4671 -1.4811
19747TIP3    H280733   2.005   5.319   3.939 -1.3144  0.5418  2.3441
19748TIP3   OH280734   6.253   6.072  11.661 -0.1355 -0.2192 -0.2304
19748TIP3    H180735   6.251   6.106  11.750 -0.5676 -0.3860 -0.1763
19748TIP3    H280736   6.343   6.087  11.631  0.2821 -1.0465  0.5741
19749TIP3   OH280737   4.424   3.971   3.342  0.1431  0.1241 -0.1240
19749TIP3    H180738   4.430   3.897   3.282 -3.8389 -1.4953  1.1275
19749TIP3    H280739   4.414   4.047   3.285  1.2967 -0.6501 -1.4300
19750TIP3   OH280740   5.180   3.278  11.942  0.1701 -0.3137  0.1960
19750TIP3    H180741   5.259   3.232  11.970  1.1127  0.8307 -0.5310
19750TIP3    H280742   5.111   3.243  11.999  1.7558  1.0469  3.1976
19751TIP3   OH280743   5.137   3.630   2.914  0.2076  0.1976 -0.6305
19751TIP3    H180744   5.126   3.585   2.830  1.2460  0.8487 -1.1208
19751TIP3    H280745   5.048   3.631   2.951 -0.2727 -0.0925 -1.7126
19752TIP3   OH280746   4.269   4.444  14.982 -0.0088  0.4395 -0.8120
19752TIP3    H180747   4.276   4.377  14.914  1.7685 -0.1033 -0.1466
19752TIP3    H280748   4.356   4.485  14.984  0.3133 -0.2312  1.7671
19753TIP3   OH280749   1.068   4.683   3.212  0.1408 -0.0300 -0.5663
19753TIP3    H180750   1.137   4.725   3.263  0.1327 -0.7762  0.0750
19753TIP3    H280751   1.090   4.589   3.214 -0.4178 -0.1824 -1.0825
19754TIP3   OH280752   4.903   0.931  14.534 -0.1936  0.5212 -0.0405
19754TIP3    H180753   4.936   0.963  14.618  1.5542 -0.0194 -0.4867
19754TIP3    H280754   4.878   1.010  14.487 -2.0801  0.7863  1.2898
19755TIP3   OH280755   1.923   5.572   2.671  0.1690 -0.2704  0.0391
19755TIP3    H180756   1.845   5.517   2.664  0.0366  0.1179 -2.2497
19755TIP3    H280757   1.961   5.550   2.756 -1.6876 -1.4482  0.6046
19756TIP3   OH280758   5.251   4.477  14.142 -0.4308 -0.0719 -0.5326
19756TIP3    H180759   5.344   4.499  14.152  0.1711 -2.1998 -0.9412
19756TIP3    H280760   5.216   4.482  14.231  0.8667 -2.2256  0.2017
19757TIP3   OH280761   4.316   0.988  11.985  0.2276 -0.8082 -0.4006
19757TIP3    H180762   4.272   0.909  11.954 -0.1782 -0.1358 -1.5975
19757TIP3    H280763   4.303   0.987  12.080 -1.8488 -0.9548 -0.6466
19758TIP3   OH280764   6.743   3.830  16.680 -0.1541 -0.5841 -0.0580
19758TIP3    H180765   6.758   3.923  16.698 -0.5380 -0.2426 -1.3955
19758TIP3    H280766   6.828   3.798  16.649 -0.2161 -0.4888 -0.3292
19759TIP3   OH280767   6.005   6.720  16.202 -0.2950 -0.1010 -0.4446
19759TIP3    H180768   6.081   6.686  16.249  0.2467 -0.1523 -1.3462
19759TIP3    H280769   5.996   6.810  16.234  0.3610  0.0213 -0.5957
19760TIP3   OH280770   3.199   4.466   2.959 -0.0604 -0.2683 -0.2904
19760TIP3    H180771   3.266   4.481   2.893  0.0013  2.4102  0.2701
19760TIP3    H280772   3.244   4.478   3.043 -0.9143  0.0654  0.1392
19761TIP3   OH280773   4.891   1.985  14.528 -0.2733  0.2608 -0.0409
19761TIP3    H180774   4.858   1.986  14.439 -0.6475 -1.5611  0.0356
19761TIP3    H280775   4.973   2.033  14.524  0.4885 -1.0926 -1.7107
19762TIP3   OH280776   4.629   5.823  15.711 -0.3013  0.1993 -0.2563
19762TIP3    H180777   4.708   5.770  15.723 -0.1376  0.3744 -0.5713
19762TIP3    H280778   4.662   5.912  15.698 -0.5766  0.3883  0.2939
19763TIP3   OH280779   5.626   3.974   1.246 -0.3309  0.1213  0.9079
19763TIP3    H180780   5.555   4.008   1.191 -1.6666 -1.1885  1.7624
19763TIP3    H280781   5.701   4.030   1.224 -1.0629  0.2855 -1.5047
19764TIP3   OH280782   2.385   3.586  13.721 -0.3012 -0.0577 -0.0651
19764TIP3    H180783   2.471   3.617  13.694 -0.6507  1.1751  0.1865
19764TIP3    H280784   2.330   3.596  13.643 -0.3205 -0.4839 -0.1124
19765TIP3   OH280785   1.636   4.429  11.558  0.5221 -0.1855 -0.1262
19765TIP3    H180786   1.653   4.515  11.597  0.9763 -0.9351  1.4094
19765TIP3    H280787   1.710   4.415  11.499  0.2648  0.6099 -0.6634
19766TIP3   OH280788   4.890   6.337  12.142  0.1925  0.1032 -0.2605
19766TIP3    H180789   4.912   6.405  12.206 -0.8062 -1.2993  1.6917
19766TIP3    H280790   4.934   6.258  12.175 -1.4699 -0.9745 -0.4938
19767TIP3   OH280791   1.948   3.647   3.007  0.7006  0.3073 -0.4553
19767TIP3    H180792   1.937   3.553   3.020 -1.9321  0.3995 -1.4861
19767TIP3    H280793   1.958   3.682   3.096 -0.9008 -0.7005  0.1591
19768TIP3   OH280794   1.886   5.502  14.796 -0.3059  0.2724 -0.1914
19768TIP3    H180795   1.912   5.594  14.797 -0.8920  0.4704 -1.2289
19768TIP3    H280796   1.796   5.502  14.826  0.0355 -0.1094  0.8820
19769TIP3   OH280797   1.663   4.238   0.889  0.4282  0.4011 -0.7924
19769TIP3    H180798   1.604   4.199   0.954  1.5815 -1.8755 -0.9904
19769TIP3    H280799   1.615   4.232   0.807  0.0048  0.7965 -0.5778
19770TIP3   OH280800   4.578   0.242   2.406  0.4384 -0.0490  0.0012
19770TIP3    H180801   4.658   0.294   2.412  0.7982 -0.2782 -2.1482
19770TIP3    H280802   4.523   0.288   2.343 -1.7237  0.7541  2.2599
19771TIP3   OH280803   4.253   6.508   0.887 -0.2439  0.3594 -0.2506
19771TIP3    H180804   4.231   6.501   0.794 -2.5626 -1.0615  0.3043
19771TIP3    H280805   4.285   6.597   0.897  3.9567 -0.5248 -3.0463
19772TIP3   OH280806   1.463   6.532   4.425 -0.4368  0.1134  0.0437
19772TIP3    H180807   1.416   6.575   4.353 -0.3719  0.4441  0.1950
19772TIP3    H280808   1.529   6.596   4.452  0.2353 -0.4286 -0.3017
19773TIP3   OH280809   5.168   2.989  15.837 -0.6334  0.2828 -0.0143
19773TIP3    H180810   5.218   3.011  15.759 -1.9010  0.0830 -0.9111
19773TIP3    H280811   5.210   3.038  15.908  3.1020 -2.5558  0.0321
19774TIP3   OH280812   2.906   6.131  15.814  0.1503  0.0887  0.2725
19774TIP3    H180813   2.917   6.199  15.880 -0.2535  1.1880 -0.7454
19774TIP3    H280814   2.940   6.171  15.733  1.0802 -1.3804 -0.0997
19775TIP3   OH280815   1.591   5.314  14.222 -0.0695 -0.3887 -0.4786
19775TIP3    H180816   1.638   5.370  14.284  1.0941  0.4181 -2.0292
19775TIP3    H280817   1.586   5.229  14.265 -2.8910  1.0446  2.4868
19776TIP3   OH280818   0.818   1.239  12.801 -0.7563 -0.1483 -0.3503
19776TIP3    H180819   0.817   1.237  12.705  0.3009  0.0164 -0.3753
19776TIP3    H280820   0.827   1.147  12.827 -1.0094 -0.1899 -0.4049
19777TIP3   OH280821   1.612   6.301   3.285 -0.0011 -0.0678  0.7833
19777TIP3    H180822   1.650   6.290   3.198 -0.2007 -0.7390  0.7749
19777TIP3    H280823   1.520   6.277   3.275 -0.3474  1.1782  0.8884
19778TIP3   OH280824   2.345   1.020  16.237 -0.0636 -0.5295  0.0354
19778TIP3    H180825   2.388   1.050  16.157  0.3454 -0.2540  0.3535
19778TIP3    H280826   2.408   0.962  16.278 -0.1708 -0.4732  0.2833
19779TIP3   OH280827   0.046   6.508   2.294 -0.5152 -0.2755 -0.0346
19779TIP3    H180828   0.004   6.434   2.338 -0.6802  0.4239  1.0026
19779TIP3    H280829   0.025   6.584   2.348  0.2998  0.4212 -0.6660
19780TIP3   OH280830   5.145   1.364  11.978  0.0454  0.6218 -0.2913
19780TIP3    H180831   5.074   1.350  12.040  0.6233  0.6723  0.3838
19780TIP3    H280832   5.139   1.457  11.956 -0.1814  0.5954 -0.3468
19781TIP3   OH280833   0.940   6.060   0.598  0.7028  0.1522 -0.2976
19781TIP3    H180834   0.954   6.151   0.624  1.1929  0.7270 -2.3755
19781TIP3    H280835   1.028   6.022   0.592  0.5108 -0.4342  0.4273
19782TIP3   OH280836   2.470   3.022  12.837  0.1433  0.0939 -0.6104
19782TIP3    H180837   2.503   2.953  12.778 -2.0334  0.5582 -2.5144
19782TIP3    H280838   2.546   3.078  12.853  1.2930 -1.1922 -1.2955
19783TIP3   OH280839   3.005   5.406   1.296 -0.6209 -0.0048 -0.5979
19783TIP3    H180840   3.045   5.461   1.228 -0.9815  3.3462  1.6752
19783TIP3    H280841   3.079   5.359   1.335  0.6951  2.9496  0.7932
19784TIP3   OH280842   6.647   2.825  16.628 -0.3223  0.3510  0.3082
19784TIP3    H180843   6.706   2.877  16.574  0.4421 -0.6786  0.1420
19784TIP3    H280844   6.671   2.847  16.718  1.1754 -0.9632  0.2693
19785TIP3   OH280845   1.601   6.778  17.114 -0.3072  0.1614 -0.4182
19785TIP3    H180846   1.601   6.702  17.056  0.8170  1.0237 -1.6065
19785TIP3    H280847   1.531   6.834  17.081 -1.9701 -0.8351  1.2078
19786TIP3   OH280848   1.956   4.971  10.810  0.0633  0.5296 -0.0311
19786TIP3    H180849   1.963   5.005  10.899  0.1464 -0.9106  0.5453
19786TIP3    H280850   2.047   4.954  10.784 -0.0628 -1.7242  0.7449
19787TIP3   OH280851   3.686   2.173   3.285 -0.4643  0.4827  0.1952
19787TIP3    H180852   3.721   2.102   3.232  1.2182  1.8007 -0.5811
19787TIP3    H280853   3.592   2.157   3.289 -0.3364 -0.8613 -1.3502
19788TIP3   OH280854   4.155   1.179   3.573 -0.1793 -0.5153  0.7388
19788TIP3    H180855   4.072   1.145   3.606  0.0315  0.2342  2.0911
19788TIP3    H280856   4.218   1.108   3.588 -1.3000 -3.2745 -4.8459
19789TIP3   OH280857   5.470   5.467   5.192  0.3044  0.0721 -0.4672
19789TIP3    H180858   5.494   5.553   5.227 -0.2540  0.2630 -0.5435
19789TIP3    H280859   5.552   5.418   5.190  0.5964  0.5480 -0.2635
19790TIP3   OH280860   0.981   0.796   3.657 -0.3809  0.0928 -0.3603
19790TIP3    H180861   1.070   0.773   3.628 -0.3639 -0.0016 -0.2359
19790TIP3    H280862   0.924   0.749   3.596 -0.3478  0.8395 -0.9746
19791TIP3   OH280863   5.498   1.117  12.406  0.5487 -0.0151  0.3679
19791TIP3    H180864   5.448   1.185  12.361 -0.3330  0.4650  1.9964
19791TIP3    H280865   5.492   1.040  12.348 -1.3427  0.2875  0.1104
19792TIP3   OH280866   1.755   2.211  10.761  0.1546  0.0514 -0.7147
19792TIP3    H180867   1.787   2.257  10.683 -0.2354  1.0214 -0.3222
19792TIP3    H280868   1.821   2.228  10.828  0.4225 -0.6688 -0.7874
19793TIP3   OH280869   4.630   3.787  14.691  0.2522  0.6649  0.3649
19793TIP3    H180870   4.682   3.799  14.611  0.2516 -1.1936  0.0364
19793TIP3    H280871   4.688   3.739  14.750 -0.3856  0.3876  0.7733
19794TIP3   OH280872   2.064   5.903  14.115 -0.0594  0.0706  0.1625
19794TIP3    H180873   2.018   5.978  14.077 -0.4386 -0.2455 -0.0159
19794TIP3    H280874   2.023   5.827  14.073 -0.8152 -0.3147  1.5583
19795TIP3   OH280875   1.792   2.619  13.580  0.0563 -0.0564  0.6824
19795TIP3    H180876   1.861   2.605  13.644  1.4067  1.3779 -0.4107
19795TIP3    H280877   1.837   2.632  13.497 -1.4645  1.5078  0.0261
19796TIP3   OH280878   3.221   5.426  14.021 -0.5508 -0.4805 -0.0634
19796TIP3    H180879   3.200   5.336  14.046  0.1968 -0.7447 -0.3705
19796TIP3    H280880   3.273   5.418  13.941 -0.5281  0.2281 -0.1291
19797TIP3   OH280881   4.774   0.971  15.341 -0.2792 -0.7537 -0.3507
19797TIP3    H180882   4.748   1.056  15.307 -0.1811  1.0852  3.6243
19797TIP3    H280883   4.866   0.962  15.316 -0.2752  0.3205 -0.7673
19798TIP3   OH280884   5.616   3.846   4.053  0.5536  0.2301 -0.2227
19798TIP3    H180885   5.622   3.750   4.052 -2.3194 -0.0892  0.9946
19798TIP3    H280886   5.649   3.871   4.139 -0.1670  0.1517  0.0816
19799TIP3   OH280887   3.294   2.297   6.220 -0.3620 -0.0485  0.2631
19799TIP3    H180888   3.317   2.205   6.227  1.8080  0.4654  0.6147
19799TIP3    H280889   3.276   2.325   6.310  0.9788  0.2955  0.4541
19800TIP3   OH280890   3.925   4.278   0.011 -0.3724  0.2160  0.4980
19800TIP3    H180891   3.932   4.205  -0.051  0.5572  0.0691  0.7647
19800TIP3    H280892   3.836   4.311  -0.001  0.0821  0.8049 -1.6116
19801TIP3   OH280893   6.826   3.691   4.715  0.1923 -0.8069  0.0764
19801TIP3    H180894   6.872   3.768   4.682 -0.3737 -0.7281 -0.5468
19801TIP3    H280895   6.733   3.713   4.707 -0.0265 -0.1944  3.0551
19802TIP3   OH280896   0.379   6.618  14.326 -0.3686  0.1330 -0.3780
19802TIP3    H180897   0.465   6.577  14.320 -0.4827 -0.1552 -0.1081
19802TIP3    H280898   0.396   6.706  14.361 -0.3541 -0.6216  1.6405
19803TIP3   OH280899   2.860   2.840   2.736 -0.3004 -0.5537  0.0549
19803TIP3    H180900   2.846   2.750   2.706  0.3680 -0.1525 -1.5843
19803TIP3    H280901   2.937   2.869   2.687  0.6980  0.2823  2.0048
19804TIP3   OH280902   4.888   4.751  15.821 -0.1788 -0.3630 -0.7925
19804TIP3    H180903   4.948   4.802  15.767  2.5718  0.1122  2.3943
19804TIP3    H280904   4.922   4.661  15.815 -0.5967 -0.5246 -0.7523
19805TIP3   OH280905   3.664   2.696   1.566  0.2360 -0.5903 -0.1667
19805TIP3    H180906   3.752   2.693   1.603  0.0750  0.1432  0.3093
19805TIP3    H280907   3.607   2.714   1.641 -0.1656  0.2917 -0.6628
19806TIP3   OH280908   6.476   4.225   0.216 -0.0492  0.0347  0.2333
19806TIP3    H180909   6.391   4.257   0.187 -0.4909 -0.8669  0.5077
19806TIP3    H280910   6.477   4.240   0.310  1.2141  2.5572 -0.1042
19807TIP3   OH280911   1.826   1.790  12.826  0.1305 -0.3965  0.0814
19807TIP3    H180912   1.753   1.846  12.852 -0.7427 -0.5633 -1.9000
19807TIP3    H280913   1.801   1.702  12.854  0.0573 -0.2952  0.3377
19808TIP3   OH280914   4.561   6.505   5.133 -0.8563  0.1741 -0.3220
19808TIP3    H180915   4.516   6.420   5.127 -0.6064  0.0302 -0.1954
19808TIP3    H280916   4.522   6.548   5.209 -2.5453  1.1139 -1.6791
19809TIP3   OH280917   5.877   1.601  14.197  0.2095 -0.4927  0.0600
19809TIP3    H180918   5.840   1.513  14.191 -1.1448 -0.0116  0.7778
19809TIP3    H280919   5.914   1.605  14.286  0.1877 -0.3074  0.0617
19810TIP3   OH280920   0.636   3.115  15.831  0.3475  0.2345 -0.0451
19810TIP3    H180921   0.627   3.058  15.755  0.0700  0.3495 -0.0982
19810TIP3    H280922   0.709   3.077  15.881 -0.4941 -0.7718  0.4589
19811TIP3   OH280923   3.215   5.901   5.671 -0.0787  0.1494 -0.1936
19811TIP3    H180924   3.165   5.979   5.695  0.3825  0.4627 -0.2301
19811TIP3    H280925   3.156   5.828   5.689  0.0936  0.3944  1.4890
19812TIP3   OH280926   5.513   2.551  13.568  0.1981 -0.5450 -0.0273
19812TIP3    H180927   5.485   2.545  13.659  0.0626 -0.9436 -0.0934
19812TIP3    H280928   5.446   2.503  13.519  0.3907 -0.5289 -0.3107
19813TIP3   OH280929   0.185   1.166  10.424  0.3856  0.2491  0.1581
19813TIP3    H180930   0.147   1.253  10.431 -1.1635 -0.3185 -0.6869
19813TIP3    H280931   0.244   1.171  10.348  0.2242  0.5371  0.0514
19814TIP3   OH280932   5.815   1.009  16.733 -0.1884 -0.5025 -0.0554
19814TIP3    H180933   5.867   1.060  16.795  0.2113  0.0692 -0.8459
19814TIP3    H280934   5.764   1.073  16.684 -1.2392 -1.0192  0.3301
19815TIP3   OH280935   2.352   4.596  12.427 -0.3101  0.6370 -0.3340
19815TIP3    H180936   2.431   4.544  12.416  0.6490  1.2639  2.7905
19815TIP3    H280937   2.382   4.681  12.458 -2.1570  0.5377  2.0740
19816TIP3   OH280938   3.799   0.626   2.707 -0.1632 -0.3438  0.0291
19816TIP3    H180939   3.744   0.641   2.784 -0.1502 -1.4263  0.2600
19816TIP3    H280940   3.769   0.542   2.671  0.1138 -0.0613 -0.9045
19817TIP3   OH280941   2.267   6.595   3.695 -0.2137  0.1844 -0.0400
19817TIP3    H180942   2.265   6.690   3.685 -1.2417  0.0034 -1.9030
19817TIP3    H280943   2.273   6.581   3.790 -1.1151  2.0913  0.3432
19818TIP3   OH280944   2.181   4.135   5.781 -0.2563  0.3399  0.7936
19818TIP3    H180945   2.103   4.172   5.822 -1.8051  0.0639 -1.7239
19818TIP3    H280946   2.172   4.040   5.792  0.4788  0.3577  1.7027
19819TIP3   OH280947   2.861   3.572   3.504  0.7021 -0.6757 -0.4645
19819TIP3    H180948   2.803   3.648   3.512  0.4042 -0.9117 -0.3661
19819TIP3    H280949   2.948   3.607   3.523  0.3213 -0.7598  1.8130
19820TIP3   OH280950   3.935   4.305   4.691 -0.2954  0.7065 -0.1363
19820TIP3    H180951   3.938   4.346   4.605 -1.3436  0.7388 -0.1688
19820TIP3    H280952   3.859   4.246   4.686 -0.1463  0.4431  0.6467
19821TIP3   OH280953   0.032   0.902  11.200 -0.7224 -0.2193  0.5206
19821TIP3    H180954   0.036   0.894  11.105 -0.3029  1.5367  0.3555
19821TIP3    H280955  -0.062   0.906  11.220 -0.8152 -0.8022  0.2087
19822TIP3   OH280956   4.681   0.696  11.688 -1.0460 -0.7361  0.1347
19822TIP3    H180957   4.631   0.778  11.692  0.5737  0.2401  1.4228
19822TIP3    H280958   4.768   0.719  11.719  0.4272 -2.2826 -2.5123
19823TIP3   OH280959   4.054   1.179  14.817  0.4850  0.4567 -0.3085
19823TIP3    H180960   4.004   1.182  14.899  1.6010  0.8934  0.3943
19823TIP3    H280961   4.123   1.115  14.834 -0.4466 -0.9532 -1.6525
19824TIP3   OH280962   2.856   2.897   5.093 -0.1619  1.2777 -0.4845
19824TIP3    H180963   2.785   2.835   5.108  0.1254  0.8151 -0.9814
19824TIP3    H280964   2.840   2.968   5.155 -1.1527  1.2679 -0.7203
19825TIP3   OH280965   3.156   0.816   4.327  0.2056  0.4482 -0.9523
19825TIP3    H180966   3.075   0.847   4.369  0.1554  3.8021 -3.2099
19825TIP3    H280967   3.206   0.778   4.399 -1.4948  2.3670  1.4321
19826TIP3   OH280968   1.531   4.236   2.851 -0.1191 -0.6106  0.0258
19826TIP3    H180969   1.469   4.213   2.782 -0.3014  1.0530 -0.3922
19826TIP3    H280970   1.476   4.264   2.924  0.1025 -1.4848  0.5522
19827TIP3   OH280971   5.607   3.553  11.907  0.3494 -0.2685  0.5827
19827TIP3    H180972   5.669   3.604  11.854 -0.8867  0.9360  0.2445
19827TIP3    H280973   5.616   3.590  11.995  0.1680 -0.1357  0.5465
19828TIP3   OH280974   4.390   5.583   4.670  0.2611  1.2356 -0.3693
19828TIP3    H180975   4.397   5.667   4.715 -1.0700  0.8299  0.6804
19828TIP3    H280976   4.470   5.575   4.619  2.0828  1.5727  2.2724
19829TIP3   OH280977   3.494   2.585  15.336 -0.3486  0.4165 -0.0971
19829TIP3    H180978   3.498   2.677  15.312 -0.1620 -0.0645 -2.0812
19829TIP3    H280979   3.412   2.576  15.385 -0.1842  1.6794  0.4397
19830TIP3   OH280980   3.262   1.106   1.106 -0.1147 -0.2799  0.2802
19830TIP3    H180981   3.352   1.080   1.130  0.3093  1.4709  0.7360
19830TIP3    H280982   3.222   1.025   1.073  1.8422 -0.9605 -0.5842
19831TIP3   OH280983   6.127   4.665  11.938  0.6180  0.1682 -0.2253
19831TIP3    H180984   6.123   4.611  11.859 -0.3356  0.9159 -0.7186
19831TIP3    H280985   6.182   4.739  11.913 -0.4261  0.8739 -0.5171
19832TIP3   OH280986   0.471   0.768  14.945 -0.0102 -0.2193 -0.0721
19832TIP3    H180987   0.454   0.861  14.929 -0.3942 -0.0619  1.0968
19832TIP3    H280988   0.537   0.768  15.014  0.0813 -0.8189 -0.1588
19833TIP3   OH280989   0.726   6.549   5.589  0.6333  0.3082 -0.3443
19833TIP3    H180990   0.781   6.474   5.611 -0.4022 -0.1793  0.6813
19833TIP3    H280991   0.696   6.582   5.673 -0.2059  0.8996 -0.8597
19834TIP3   OH280992   1.707   2.896  16.676  0.2746  0.2018  1.0096
19834TIP3    H180993   1.680   2.939  16.757  1.8575  1.0371  1.1394
19834TIP3    H280994   1.786   2.944  16.649  0.9709 -1.3880  0.0874
19835TIP3   OH280995   3.139   4.678  14.883 -0.3656  0.5393  0.1395
19835TIP3    H180996   3.114   4.614  14.816  0.8608 -0.5865  0.7138
19835TIP3    H280997   3.078   4.751  14.871 -0.9231 -0.1529 -1.4199
19836TIP3   OH280998   1.062   4.408  15.650  0.4484  0.1482  0.6847
19836TIP3    H180999   0.968   4.425  15.640  0.3541 -0.3891  0.6016
19836TIP3    H281000   1.104   4.464  15.586  0.1994  0.5594  0.8787
19837TIP3   OH281001   4.409   5.356   0.193  0.2002 -0.4894  0.7429
19837TIP3    H181002   4.461   5.333   0.269 -0.3321 -2.3649  0.5889
19837TIP3    H281003   4.346   5.284   0.183  0.3733 -0.4138 -1.5665
19838TIP3   OH281004   4.682   3.315  11.407  0.6245  0.2716 -0.3072
19838TIP3    H181005   4.706   3.379  11.340  2.1768 -0.2899 -0.3286
19838TIP3    H281006   4.619   3.362  11.463  1.6401  1.8043 -0.3814
19839TIP3   OH281007   5.192   4.554   3.079  0.5437 -0.6697 -0.5061
19839TIP3    H181008   5.256   4.490   3.046  1.4053 -0.7062  1.0983
19839TIP3    H281009   5.211   4.559   3.173 -1.2480 -0.0007 -0.1491
19840TIP3   OH281010   6.422   4.589  12.040  0.7330  0.1607  0.3803
19840TIP3    H181011   6.454   4.594  11.951  0.0638  2.0601  0.1871
19840TIP3    H281012   6.370   4.669  12.051 -1.0055 -1.0835  1.7681
19841TIP3   OH281013   1.020   3.381   0.011 -0.2860 -0.3823 -0.3309
19841TIP3    H181014   1.085   3.385  -0.060  0.1612  0.6413  0.1174
19841TIP3    H281015   1.045   3.452   0.070 -0.6408 -1.2300  0.8713
19842TIP3   OH281016   1.031   6.115   3.086  0.0589  0.0111 -0.0568
19842TIP3    H181017   0.939   6.095   3.070 -0.0704  1.3681 -1.1592
19842TIP3    H281018   1.078   6.058   3.025 -0.0713 -0.3610  0.1894
19843TIP3   OH281019   1.234   6.639   1.635  0.2835  0.2086  0.3902
19843TIP3    H181020   1.239   6.548   1.665  2.2320  0.8384  2.2898
19843TIP3    H281021   1.272   6.689   1.707  0.3211  2.4189 -1.0864
19844TIP3   OH281022   5.022   4.497  13.952  0.1336 -0.2165  0.2495
19844TIP3    H181023   5.101   4.494  14.006  0.8013  1.8835 -0.5096
19844TIP3    H281024   5.054   4.485  13.863 -0.1615  1.9154 -0.2033
19845TIP3   OH281025   2.201   4.375  12.344  0.0285 -0.2448 -0.4870
19845TIP3    H181026   2.233   4.464  12.358 -0.0610 -0.2786 -0.0382
19845TIP3    H281027   2.111   4.377  12.378 -0.1193 -0.3920 -0.8718
19846TIP3   OH281028   0.002   0.717  13.181  0.6070 -0.4657 -0.3063
19846TIP3    H181029   0.023   0.791  13.123  0.9636 -1.0581 -0.9449
19846TIP3    H281030   0.087   0.678  13.202  0.4313 -0.6110  0.1487
19847TIP3   OH281031   1.389   3.861  12.764 -0.2207  0.2213  0.1182
19847TIP3    H181032   1.457   3.846  12.698 -1.2028 -0.0350 -0.8724
19847TIP3    H281033   1.374   3.955  12.762  0.8158  0.4289  1.0940
19848TIP3   OH281034   2.027   1.301   3.207  0.5387  0.1540  0.1828
19848TIP3    H181035   2.115   1.271   3.184  0.5065 -0.0144  0.2855
19848TIP3    H281036   1.972   1.272   3.134  0.8534  1.7168 -0.7267
19849TIP3   OH281037   6.459   3.678   0.443 -0.0553 -0.1527  0.0829
19849TIP3    H181038   6.483   3.724   0.523  1.7239 -2.1231  0.7627
19849TIP3    H281039   6.497   3.730   0.373  1.2087 -0.1134  0.7725
19850TIP3   OH281040   5.445   4.690  16.400  0.2358 -0.1674  0.0647
19850TIP3    H181041   5.479   4.694  16.311 -1.7674  1.3055 -0.6989
19850TIP3    H281042   5.479   4.769  16.442 -0.8765  0.4627 -0.2008
19851TIP3   OH281043   3.558   3.454  11.733 -0.1682 -0.0559 -0.8686
19851TIP3    H181044   3.523   3.464  11.821  0.8953  1.3400 -0.5725
19851TIP3    H281045   3.504   3.511  11.679 -0.7532 -0.8319 -1.1295
19852TIP3   OH281046   4.437   2.356   6.177  0.8336  0.3432 -0.5797
19852TIP3    H181047   4.488   2.426   6.137 -1.9670  2.6104 -0.4993
19852TIP3    H281048   4.396   2.396   6.254 -1.1419 -1.2206 -0.7207
19853TIP3   OH281049   3.110   3.000  15.253  0.1931  0.3578 -0.7958
19853TIP3    H181050   3.182   2.994  15.190  1.6402  0.1912  0.8174
19853TIP3    H281051   3.061   2.919  15.240  0.2450  0.4777 -1.9203
19854TIP3   OH281052   2.141   0.053  12.047  0.3129  0.8939 -0.2782
19854TIP3    H181053   2.087   0.116  12.000 -0.5670 -0.1893 -0.7607
19854TIP3    H281054   2.110  -0.033  12.018  2.4949  0.2112 -0.8048
19855TIP3   OH281055   4.380   6.331   4.041 -0.0343  0.2249  0.3156
19855TIP3    H181056   4.388   6.409   3.985 -1.6173 -0.2608 -0.6787
19855TIP3    H281057   4.452   6.275   4.014  0.8781  1.1618  0.7529
19856TIP3   OH281058   1.761   2.960   2.958  0.7491  0.1338 -0.2721
19856TIP3    H181059   1.725   2.928   3.041 -0.4844  0.4193 -0.6654
19856TIP3    H281060   1.837   3.012   2.983  0.9053 -0.4909  0.6050
19857TIP3   OH281061   0.374   2.947  16.027  0.0137  0.3480 -0.0095
19857TIP3    H181062   0.468   2.946  16.043 -0.0676  1.1625  0.5469
19857TIP3    H281063   0.364   2.903  15.942  0.7959 -0.6580  0.3902
19858TIP3   OH281064   5.859   6.575   6.301 -0.6807 -0.3631  0.4782
19858TIP3    H181065   5.839   6.506   6.365  1.2518 -1.1403  0.3099
19858TIP3    H281066   5.922   6.631   6.346  1.1820 -1.2614 -0.8909
19859TIP3   OH281067   4.120   5.822   3.240 -0.2360  0.1594 -0.3070
19859TIP3    H181068   4.105   5.823   3.146  0.3255  1.1481 -0.4009
19859TIP3    H281069   4.208   5.858   3.251 -0.5852  0.7801  0.6390
19860TIP3   OH281070   3.105   2.438   5.647 -0.3199  0.2398 -0.4928
19860TIP3    H181071   3.048   2.509   5.617 -1.0557 -0.9116 -1.9535
19860TIP3    H281072   3.193   2.474   5.642 -0.8156  1.8585  1.2213
19861TIP3   OH281073   4.862   4.665   4.975 -0.1643  0.1148 -0.0652
19861TIP3    H181074   4.774   4.627   4.986  0.3268 -0.7723  0.9253
19861TIP3    H281075   4.854   4.720   4.897 -1.1839 -1.2227 -0.9652
19862TIP3   OH281076   4.235   1.702   0.628 -0.7679 -0.6127 -0.1626
19862TIP3    H181077   4.329   1.687   0.630 -0.8228 -0.9393  0.9454
19862TIP3    H281078   4.215   1.720   0.536  0.5085  0.4178 -0.2701
19863TIP3   OH281079   3.685   2.888  17.036 -0.0683  0.1475 -0.5264
19863TIP3    H181080   3.706   2.981  17.047 -2.2358  0.4475  2.2554
19863TIP3    H281081   3.770   2.844  17.038  0.8764  1.8818  0.8579
19864TIP3   OH281082   4.078   5.445   0.419  0.8196 -0.0586  0.3648
19864TIP3    H181083   4.032   5.484   0.345  1.3217  0.9480  0.5661
19864TIP3    H281084   4.113   5.519   0.468  0.8356 -0.7207  1.3996
19865TIP3   OH281085   3.687   5.107   4.136  0.0867 -0.2610 -0.1875
19865TIP3    H181086   3.637   5.079   4.213  0.0948 -1.2719 -0.5261
19865TIP3    H281087   3.709   5.198   4.153  0.6400 -0.6450  1.3081
19866TIP3   OH281088   6.245   2.438  14.538  0.1829 -0.7087  0.4399
19866TIP3    H181089   6.172   2.496  14.553  0.3428  0.6324 -3.0042
19866TIP3    H281090   6.320   2.482  14.577  0.1314  1.0735 -1.3143
19867TIP3   OH281091   1.555   2.312  14.916  0.5787  0.8785 -0.6443
19867TIP3    H181092   1.618   2.337  14.984 -0.4982  1.3633  0.1854
19867TIP3    H281093   1.553   2.216  14.920 -0.1121  0.9299  0.6082
19868TIP3   OH281094   0.440   3.860  10.529  0.4165  0.1527 -0.6236
19868TIP3    H181095   0.389   3.795  10.577  0.5633  0.9461  0.6561
19868TIP3    H281096   0.515   3.810  10.494  0.5445 -0.3746  0.3598
19869TIP3   OH281097   0.412   3.696   4.460 -0.3952 -0.2725  0.3667
19869TIP3    H181098   0.471   3.724   4.390 -0.5012  2.1566  1.1478
19869TIP3    H281099   0.336   3.753   4.452 -1.6787 -1.8701  0.7423
19870TIP3   OH281100   6.065   0.719   2.947  0.0292  0.1986 -0.0911
19870TIP3    H181101   6.003   0.648   2.930  0.8045 -0.1536 -1.6111
19870TIP3    H281102   6.015   0.782   3.000 -0.7673 -1.3062  1.0456
19871TIP3   OH281103   1.363   5.209   5.970 -0.4167  0.1438 -0.2612
19871TIP3    H181104   1.351   5.287   6.024  0.3788 -0.3138  0.5992
19871TIP3    H281105   1.276   5.168   5.968 -1.1344  1.5936 -1.6497
19872TIP3   OH281106   1.603   6.515  16.291  0.0831 -0.3967 -0.0271
19872TIP3    H181107   1.544   6.441  16.273 -2.7350  1.5717  0.3148
19872TIP3    H281108   1.555   6.568  16.355  1.8636  1.8304 -0.4303
19873TIP3   OH281109   3.324   3.429  14.741  0.5098 -0.4169  0.4929
19873TIP3    H181110   3.291   3.409  14.829 -0.1311 -0.8466  0.1641
19873TIP3    H281111   3.279   3.366  14.684 -1.1147  1.5150 -0.5075
19874TIP3   OH281112   0.329   2.171   5.302 -0.1830  0.0097 -0.1842
19874TIP3    H181113   0.396   2.103   5.311  0.2766  0.5678  0.7051
19874TIP3    H281114   0.332   2.219   5.385 -0.5775  1.0445 -0.7504
19875TIP3   OH281115   0.606   3.390   4.245 -0.2426 -0.2703 -0.1015
19875TIP3    H181116   0.539   3.428   4.189  1.8526  1.9447 -1.2875
19875TIP3    H281117   0.661   3.339   4.185  1.5814  1.4951 -0.0121
19876TIP3   OH281118   3.716   3.135   5.486 -0.4842  0.0662 -0.1165
19876TIP3    H181119   3.729   3.217   5.438 -1.8277 -0.1769 -0.9492
19876TIP3    H281120   3.623   3.133   5.507 -0.5605 -1.4195 -0.4508
19877TIP3   OH281121   2.318   5.282  14.735 -0.0447 -0.3462 -0.4063
19877TIP3    H181122   2.242   5.238  14.698  0.5851 -3.6631  1.8325
19877TIP3    H281123   2.387   5.271  14.670 -0.4331 -0.9411 -0.7189
19878TIP3   OH281124   1.068   3.387   3.950  0.4885  0.8660 -0.2496
19878TIP3    H181125   1.081   3.321   4.018 -0.2011 -0.1548 -1.0744
19878TIP3    H281126   0.992   3.436   3.980 -0.1425  0.0775 -0.5145
19879TIP3   OH281127   1.921   3.271   3.585  0.3793 -0.5907 -0.1996
19879TIP3    H181128   1.928   3.328   3.662  2.0997 -2.0510  0.8237
19879TIP3    H281129   1.839   3.223   3.598  0.8202 -1.0809  0.9643
19880TIP3   OH281130   3.897   2.807  13.470 -0.9139  0.3322  0.9941
19880TIP3    H181131   3.893   2.758  13.388 -2.6638  0.8208  0.7363
19880TIP3    H281132   3.990   2.814  13.490 -0.3688  1.0456 -1.4747
19881TIP3   OH281133   0.365   0.795  13.593 -0.2461  0.2157  0.5139
19881TIP3    H181134   0.365   0.803  13.497 -1.0573  1.0507  0.5744
19881TIP3    H281135   0.436   0.733  13.611  1.8006  2.1228 -0.4378
19882TIP3   OH281136   4.238   2.229  14.434  0.0053 -0.8526  0.0987
19882TIP3    H181137   4.317   2.173  14.439  1.7622  1.2962 -1.5371
19882TIP3    H281138   4.259   2.304  14.489  0.7877  1.5026 -3.1350
19883TIP3   OH281139   3.655   1.781   4.719  0.8793 -0.2601 -0.0783
19883TIP3    H181140   3.729   1.815   4.668  0.8110 -1.4280 -0.9929
19883TIP3    H281141   3.662   1.825   4.803  1.6904  0.8347 -0.6883
19884TIP3   OH281142   6.097   5.186   2.969  0.0138  0.2428  0.1018
19884TIP3    H181143   6.188   5.216   2.970  0.7420 -1.8196  0.4183
19884TIP3    H281144   6.089   5.136   2.888 -0.5711 -0.3381  0.5067
19885TIP3   OH281145   2.843   2.051   1.761 -0.3460 -0.4754 -0.0939
19885TIP3    H181146   2.868   2.107   1.834 -3.3629  2.0514 -0.7935
19885TIP3    H281147   2.847   1.962   1.797 -0.5038  0.5621  2.7560
19886TIP3   OH281148   6.021   6.280  12.415 -0.1610  0.2064  0.0447
19886TIP3    H181149   6.020   6.291  12.510  0.5915  0.8567 -0.0132
19886TIP3    H281150   6.044   6.188  12.401 -0.5369  0.0430  0.4904
19887TIP3   OH281151   6.349   6.071  10.135  0.1667  0.2575 -0.1091
19887TIP3    H181152   6.432   6.074  10.087  0.2372  1.1347  0.0544
19887TIP3    H281153   6.369   6.022  10.215  0.8505  1.4788  0.5024
19888TIP3   OH281154   6.602   3.827   2.770  0.5303 -0.1842 -0.1479
19888TIP3    H181155   6.599   3.852   2.863  1.2660  0.2485 -0.2345
19888TIP3    H281156   6.596   3.909   2.723 -0.7489 -0.4735 -0.5125
19889TIP3   OH281157   4.298   6.779  15.802  0.4375 -0.4939  0.1602
19889TIP3    H181158   4.327   6.863  15.768  2.2578 -1.0696  0.1709
19889TIP3    H281159   4.293   6.722  15.725  0.6082 -0.7341  0.3230
19890TIP3   OH281160   4.025   6.041   4.815 -0.7040 -0.1391 -0.3678
19890TIP3    H181161   3.969   5.963   4.816  0.8325 -1.2955 -0.0605
19890TIP3    H281162   4.026   6.069   4.724 -0.0586 -1.4364 -0.7936
19891TIP3   OH281163   3.088   6.125   5.717  0.0353 -0.4856  0.2567
19891TIP3    H181164   3.117   6.143   5.628 -0.9640 -0.5862 -0.1029
19891TIP3    H281165   3.017   6.188   5.732  1.2488  0.6521  1.5874
19892TIP3   OH281166   1.566   1.084  11.568  0.0257 -0.2360  0.0609
19892TIP3    H181167   1.657   1.093  11.596  0.2106 -1.9387  0.0634
19892TIP3    H281168   1.551   0.990  11.562 -1.5443  0.0210 -0.5926
19893TIP3   OH281169   3.004   0.484   1.591 -0.0798  0.1001  0.1068
19893TIP3    H181170   2.972   0.394   1.581 -0.2988  0.3718 -2.6138
19893TIP3    H281171   2.929   0.531   1.628 -1.0731 -0.3080 -1.2656
19894TIP3   OH281172   0.707   6.222   3.912  0.3219 -0.1710 -0.0571
19894TIP3    H181173   0.700   6.300   3.857  1.0628 -0.6129 -0.8221
19894TIP3    H281174   0.704   6.149   3.849 -0.7361 -0.7767  0.6707
19895TIP3   OH281175   2.214   6.188   4.753 -0.0843 -0.1652  0.3728
19895TIP3    H181176   2.227   6.142   4.671  0.4274 -1.0352  0.9252
19895TIP3    H281177   2.223   6.281   4.730 -2.1292 -0.2384 -0.9249
19896TIP3   OH281178   3.007   2.430  16.951 -0.3071 -0.3413 -0.3390
19896TIP3    H181179   2.947   2.457  17.019 -2.5057 -1.5128 -1.7024
19896TIP3    H281180   2.983   2.483  16.875  0.9141 -0.2859 -0.7080
19897TIP3   OH281181   2.639   1.104   4.714  0.1178  0.8182  0.5069
19897TIP3    H181182   2.696   1.089   4.790 -0.2486 -0.3051  0.5769
19897TIP3    H281183   2.562   1.049   4.731 -0.6151  1.6791  0.0137
19898TIP3   OH281184   5.055   4.172  13.724  0.1754 -0.2885 -0.2104
19898TIP3    H181185   5.016   4.228  13.791 -1.0514 -1.0499 -0.2527
19898TIP3    H281186   4.983   4.152  13.664  1.1077 -0.1162 -1.4375
19899TIP3   OH281187   3.461   3.026   4.244  0.3124 -0.1243 -0.0808
19899TIP3    H181188   3.366   3.037   4.242  0.4354  1.9317  1.6364
19899TIP3    H281189   3.475   2.937   4.277 -1.0110 -0.3116 -0.0019
19900TIP3   OH281190   5.657   4.496  16.570  0.1357 -0.4837 -0.3232
19900TIP3    H181191   5.577   4.541  16.543  0.6431 -0.7798 -2.5032
19900TIP3    H281192   5.701   4.559  16.628  0.7158  1.8808 -3.0697
19901TIP3   OH281193   0.671   0.049   0.138 -0.3259  0.2575  0.4561
19901TIP3    H181194   0.688  -0.038   0.101  1.3422  0.1122  1.4819
19901TIP3    H281195   0.586   0.039   0.182 -1.0445 -0.3037 -0.9854
19902TIP3   OH281196   0.161   0.483  15.257 -0.1442  0.0218  0.5717
19902TIP3    H181197   0.141   0.563  15.208 -2.2809 -0.0633  1.1773
19902TIP3    H281198   0.171   0.512  15.348  0.6098 -0.2142  0.5668
19903TIP3   OH281199   4.405   1.674   4.669  0.2518  0.5835  0.1568
19903TIP3    H181200   4.470   1.606   4.652 -0.6297  0.2411 -2.2368
19903TIP3    H281201   4.406   1.729   4.591 -2.5880  0.3198 -0.1806
19904TIP3   OH281202   5.107   5.354   0.879  0.1166  0.1575 -0.0246
19904TIP3    H181203   5.082   5.446   0.877  0.5318  0.3692  2.0401
19904TIP3    H281204   5.190   5.353   0.926  0.2970 -1.2395 -0.3376
19905TIP3   OH281205   5.570   5.215   5.133 -0.1347  0.2005  0.0750
19905TIP3    H181206   5.566   5.180   5.044 -0.9068  0.9017 -0.1823
19905TIP3    H281207   5.662   5.208   5.157 -0.2219 -1.8257 -0.0176
19906TIP3   OH281208   0.026   0.416  10.993  0.1082 -0.4341  0.1257
19906TIP3    H181209   0.034   0.434  11.087  0.8326 -0.7573  0.1308
19906TIP3    H281210   0.037   0.501  10.951  1.0022 -0.4714  0.2753
19907TIP3   OH281211   6.818   6.179  13.250  0.7179 -0.5051 -0.0907
19907TIP3    H181212   6.811   6.131  13.333 -0.1225 -0.4091 -0.0948
19907TIP3    H281213   6.772   6.261  13.266 -1.0240 -1.1998 -1.1483
19908TIP3   OH281214   6.385   5.999  15.463 -0.0801 -0.0974  0.0486
19908TIP3    H181215   6.397   6.089  15.493  0.2405  0.0101 -0.3925
19908TIP3    H281216   6.437   5.993  15.382 -0.8019 -0.4181 -0.4042
19909TIP3   OH281217   1.831   6.247   5.694  0.0177 -0.5216 -0.0359
19909TIP3    H181218   1.871   6.214   5.774 -0.5056 -2.0548 -0.3825
19909TIP3    H281219   1.879   6.328   5.675  1.2381 -0.9826  0.9414
19910TIP3   OH281220   2.787   5.004   3.633  0.0919 -1.1010  0.0079
19910TIP3    H181221   2.714   4.997   3.694 -1.5699 -0.1158 -1.7513
19910TIP3    H281222   2.828   4.917   3.635 -0.4533 -1.3640  1.7881
19911TIP3   OH281223   1.156   3.870  14.821 -0.0747 -0.2699  0.3882
19911TIP3    H181224   1.116   3.795  14.865 -2.5281 -0.0796 -1.3301
19911TIP3    H281225   1.096   3.942  14.838 -0.2097  0.1923 -1.7973
19912TIP3   OH281226   2.482   6.048  15.341  0.5586  0.2406  0.3770
19912TIP3    H181227   2.423   6.117  15.311 -1.8035 -1.6325  0.4277
19912TIP3    H281228   2.551   6.045  15.274 -0.3851  1.3038 -0.6921
19913TIP3   OH281229   3.932   6.293   5.427  0.8772  0.0413 -0.1823
19913TIP3    H181230   3.996   6.324   5.363  1.5252  0.3950  0.6164
19913TIP3    H281231   3.851   6.339   5.405  1.0311 -0.0177 -0.8860
19914TIP3   OH281232   3.388   3.883  13.264 -0.5431  0.5942 -0.8038
19914TIP3    H181233   3.424   3.963  13.303 -0.9439  1.3147 -1.8599
19914TIP3    H281234   3.301   3.909  13.233 -1.2027 -0.6058 -0.0174
19915TIP3   OH281235   3.092   3.004   1.255 -0.4370  0.1111 -0.4121
19915TIP3    H181236   3.006   2.984   1.292  0.1153  0.3751  1.0771
19915TIP3    H281237   3.151   2.940   1.294  0.8977  2.7849  2.4762
19916TIP3   OH281238   2.484   3.200   3.381 -0.5967 -0.1018 -0.1314
19916TIP3    H181239   2.510   3.151   3.460 -0.4847 -0.5996 -0.4704
19916TIP3    H281240   2.555   3.263   3.368  0.7815 -1.7836 -1.3444
19917TIP3   OH281241   2.786   2.240  11.614 -0.1363 -0.9311  0.4480
19917TIP3    H181242   2.842   2.235  11.537  0.0446  0.8528  0.4262
19917TIP3    H281243   2.809   2.163  11.667  1.0469 -1.1673 -0.3944
19918TIP3   OH281244   6.023   0.748   1.050  0.1293 -0.2382 -0.3247
19918TIP3    H181245   5.963   0.778   0.982 -0.3932 -3.7645 -1.6462
19918TIP3    H281246   6.031   0.654   1.036  2.4666 -0.6718  2.6386
19919TIP3   OH281247   4.359   1.198  12.699 -0.6382  0.9928  0.2084
19919TIP3    H181248   4.295   1.267  12.680  0.1641  1.6086 -0.3227
19919TIP3    H281249   4.436   1.221  12.647 -0.3041 -0.2389  0.1235
19920TIP3   OH281250   1.274   0.036   2.794 -0.7149  0.4191  0.1930
19920TIP3    H181251   1.320  -0.043   2.764 -1.6738  0.5927 -1.8719
19920TIP3    H281252   1.188   0.004   2.820 -0.9620  0.7126 -0.2545
19921TIP3   OH281253   0.369   2.488  14.608  0.6694  0.2312 -0.0519
19921TIP3    H181254   0.410   2.565  14.649  1.1468  0.4748 -0.9482
19921TIP3    H281255   0.333   2.522  14.526 -2.0461  0.1827  1.0272
19922TIP3   OH281256   4.960   5.672  14.717  0.0608 -0.3170  0.7061
19922TIP3    H181257   4.947   5.585  14.680  0.6093  0.5159 -1.6654
19922TIP3    H281258   4.875   5.714  14.711  0.0925 -0.2678  0.5874
19923TIP3   OH281259   4.347   3.049  16.175  0.3978 -0.4583  0.1793
19923TIP3    H181260   4.432   3.005  16.168 -0.5610 -2.4697  0.3458
19923TIP3    H281261   4.353   3.125  16.117  2.6525  0.0671  1.0047
19924TIP3   OH281262   4.769   4.574   2.873 -0.3449 -0.2709  1.2346
19924TIP3    H181263   4.787   4.667   2.880 -0.9514 -0.2652  3.5408
19924TIP3    H281264   4.764   4.557   2.779  1.4297  1.6593  0.7267
19925TIP3   OH281265   5.290   0.338   4.222 -0.4245  0.0292  0.0776
19925TIP3    H181266   5.381   0.358   4.201 -0.4410 -1.1600 -1.2680
19925TIP3    H281267   5.239   0.391   4.160 -0.6041 -0.0249  0.1784
19926TIP3   OH281268   5.701   4.084   5.826 -0.1587 -0.2746  0.6090
19926TIP3    H181269   5.702   3.994   5.859  0.0025 -0.6479 -0.3766
19926TIP3    H281270   5.666   4.135   5.899  0.4230 -1.0198  1.4450
19927TIP3   OH281271   0.801   5.996   1.379 -1.3798 -0.2605  0.1218
19927TIP3    H181272   0.856   5.962   1.450 -0.6075 -0.0314 -0.3611
19927TIP3    H281273   0.799   5.927   1.314 -0.0455  0.4656 -0.7319
19928TIP3   OH281274   6.498   0.360  15.753  0.8727 -0.3642  0.0973
19928TIP3    H181275   6.475   0.399  15.837  0.4117  0.5729 -0.4426
19928TIP3    H281276   6.445   0.280  15.748  0.2996 -0.0053  0.3488
19929TIP3   OH281277   6.336   3.036  15.221 -0.1234  0.2140  0.4747
19929TIP3    H181278   6.269   2.988  15.172 -1.3884  0.0195  2.2797
19929TIP3    H281279   6.389   2.967  15.262  1.3036  0.3664 -1.0312
19930TIP3   OH281280   0.974   0.905   1.809  0.2763 -0.0543  0.0348
19930TIP3    H181281   0.993   0.998   1.798  2.2326 -0.3019  0.9241
19930TIP3    H281282   0.948   0.896   1.901 -1.0157 -0.2414 -0.3327
19931TIP3   OH281283   6.202   3.224   0.162  0.7444  0.4611 -0.2325
19931TIP3    H181284   6.234   3.313   0.171  1.5959  0.3112 -1.4600
19931TIP3    H281285   6.280   3.169   0.171  0.4484 -0.0690 -0.7737
19932TIP3   OH281286   0.395   5.269  16.451 -0.0590  0.2968 -0.7900
19932TIP3    H181287   0.395   5.361  16.477 -0.9521  0.1929 -0.3972
19932TIP3    H281288   0.448   5.225  16.518 -1.9174  0.1096  0.6179
19933TIP3   OH281289   1.910   1.012   5.962  0.0132  0.1664  0.2097
19933TIP3    H181290   1.940   1.050   6.045 -0.6209 -1.0402  1.0146
19933TIP3    H281291   1.946   1.071   5.895  2.9247 -0.3651  1.1560
19934TIP3   OH281292   4.275   4.843  11.523 -0.5438 -0.0855 -0.2284
19934TIP3    H181293   4.298   4.873  11.611  0.4019 -1.1620 -0.0808
19934TIP3    H281294   4.278   4.921  11.469 -0.1922  0.4317  0.5248
19935TIP3   OH281295   2.737   4.676  13.356 -0.3461  0.7509 -0.7178
19935TIP3    H181296   2.688   4.757  13.344 -1.4319  0.1881 -0.1919
19935TIP3    H281297   2.767   4.679  13.447 -2.7071 -0.6400  0.1755
19936TIP3   OH281298   4.148   3.903  12.782  0.5456 -0.1057 -0.3119
19936TIP3    H181299   4.091   3.919  12.857 -1.1586 -2.3363 -0.9936
19936TIP3    H281300   4.104   3.948  12.709 -0.3916 -1.7118 -0.8087
19937TIP3   OH281301   3.916   4.311  14.373  0.4810 -0.1634 -0.4437
19937TIP3    H181302   3.904   4.251  14.447  2.6332 -0.6416 -0.4329
19937TIP3    H281303   3.964   4.385  14.409 -0.4601  0.6966 -0.8954
19938TIP3   OH281304   1.519   1.188  17.087  0.4133 -0.9621 -0.4599
19938TIP3    H181305   1.558   1.160  17.005 -1.3571 -0.2940 -1.5778
19938TIP3    H281306   1.508   1.282  17.079 -2.6466 -1.2355 -0.8584
19939TIP3   OH281307   2.852   5.251  16.224 -0.2788 -0.4120 -0.3232
19939TIP3    H181308   2.828   5.231  16.314  0.4643 -1.5730 -0.3702
19939TIP3    H281309   2.772   5.237  16.174 -0.4911 -0.5043  0.0384
19940TIP3   OH281310   3.329   6.674   5.381 -0.0673 -0.2368 -0.3888
19940TIP3    H181311   3.409   6.724   5.363 -0.5629  0.7120 -0.0400
19940TIP3    H281312   3.297   6.708   5.464  0.2800 -2.0806  0.5412
19941TIP3   OH281313   5.322   3.251   2.730 -0.0161 -0.4152  0.0942
19941TIP3    H181314   5.343   3.242   2.823  0.4909  0.7470  0.1142
19941TIP3    H281315   5.228   3.237   2.724 -0.4873  1.8599  1.1672
19942TIP3   OH281316   3.944   0.106   5.547 -1.0022 -0.4003  0.1254
19942TIP3    H181317   3.965   0.152   5.465 -1.1284  1.0675  0.8881
19942TIP3    H281318   4.021   0.051   5.563  0.4934  1.7275  0.6683
19943TIP3   OH281319   4.282   6.627  13.274 -0.1070  0.5954  0.0199
19943TIP3    H181320   4.195   6.604  13.240  0.0434 -0.3678  0.2470
19943TIP3    H281321   4.264   6.667  13.359 -0.2827 -0.9887  0.7711
19944TIP3   OH281322   3.762   3.999  12.163 -0.8042  0.2801  0.0075
19944TIP3    H181323   3.763   3.974  12.255  0.6039 -0.6213 -0.2107
19944TIP3    H281324   3.795   3.922  12.117 -2.0842  0.4935 -1.3276
19945TIP3   OH281325   4.535   5.063   5.559  0.1928  0.5691  0.1900
19945TIP3    H181326   4.531   5.029   5.649  0.3905  0.1170  0.0290
19945TIP3    H281327   4.552   5.157   5.570 -0.0930  0.5760  0.6319
19946TIP3   OH281328   4.329   3.257   2.441 -0.1638 -0.0596 -0.8587
19946TIP3    H181329   4.367   3.191   2.384 -0.0421  0.1181 -0.9816
19946TIP3    H281330   4.256   3.212   2.485  1.9277 -1.3209  1.6035
19947TIP3   OH281331   4.285   6.643   3.483  0.2923 -0.0994  0.1024
19947TIP3    H181332   4.217   6.621   3.546 -1.1547 -0.6227 -1.5906
19947TIP3    H281333   4.358   6.585   3.505  0.3853  0.7066  2.1558
19948TIP3   OH281334   0.696   2.491  16.542 -0.6665  0.2219 -0.4333
19948TIP3    H181335   0.724   2.409  16.501 -2.2919 -0.1045 -0.9740
19948TIP3    H281336   0.758   2.505  16.614  0.3560 -0.8365 -1.0780
19949TIP3   OH281337   2.339   5.951  11.846 -0.3852 -0.4910  0.3528
19949TIP3    H181338   2.371   5.864  11.868 -1.2088 -1.0560 -0.5542
19949TIP3    H281339   2.266   5.934  11.786 -1.7365  0.7501  1.5843
19950TIP3   OH281340   4.996   4.102  15.433 -0.1190  0.1842  0.3694
19950TIP3    H181341   4.969   4.130  15.520  1.9611 -1.2720  1.5557
19950TIP3    H281342   4.944   4.023  15.416  1.2195 -0.9493  1.3952
19951TIP3   OH281343   6.463   5.530  10.720  0.0588 -0.3713  0.0221
19951TIP3    H181344   6.385   5.509  10.771  0.6367 -1.5141  0.4703
19951TIP3    H281345   6.490   5.447  10.681 -0.0784  0.3832 -1.7855
19952TIP3   OH281346   3.776   2.341  15.131 -0.1914 -0.2196  0.3570
19952TIP3    H181347   3.767   2.250  15.160 -0.0351 -0.5903 -0.7195
19952TIP3    H281348   3.867   2.348  15.104 -1.0147 -0.8224 -2.9955
19953TIP3   OH281349   5.294   5.955   2.189 -0.0121  0.4048  0.0456
19953TIP3    H181350   5.372   6.006   2.212  0.1244 -0.7449  2.3915
19953TIP3    H281351   5.328   5.878   2.145  0.0041  0.7486 -0.5665
19954TIP3   OH281352   6.503   1.910  10.472  0.1267  0.6546 -0.1085
19954TIP3    H181353   6.560   1.900  10.548  0.7294  0.2378 -0.5987
19954TIP3    H281354   6.553   1.965  10.411  0.1519  0.0328 -0.6666
19955TIP3   OH281355   3.757   2.856  11.367  0.2891 -0.0819  0.0186
19955TIP3    H181356   3.741   2.795  11.294 -0.2943  0.5195 -0.3659
19955TIP3    H281357   3.816   2.922  11.331  0.4121 -0.0639  0.2503
19956TIP3   OH281358   2.472   2.631  13.932  0.1160 -0.0437 -0.2137
19956TIP3    H181359   2.432   2.717  13.949 -0.1010 -0.1654 -0.1046
19956TIP3    H281360   2.447   2.578  14.008  0.6967 -0.0491 -0.0165
19957TIP3   OH281361   0.640   3.912  13.950  0.0797  0.1170  0.2183
19957TIP3    H181362   0.710   3.966  13.987  0.4269  0.5699 -1.0433
19957TIP3    H281363   0.561   3.964  13.960 -0.4211 -1.0271  3.0613
19958TIP3   OH281364   2.378   3.778  15.523  0.0052  0.4383  0.0383
19958TIP3    H181365   2.393   3.831  15.601  0.7953 -0.4440  0.4884
19958TIP3    H281366   2.437   3.704  15.532 -0.3136  0.0286 -1.1203
19959TIP3   OH281367   1.538   3.768  12.024 -0.0560 -0.5159 -0.8364
19959TIP3    H181368   1.629   3.776  12.055  0.4115 -1.1239 -1.9754
19959TIP3    H281369   1.503   3.693  12.071 -0.1456  0.0418 -0.0008
19960TIP3   OH281370   5.380   4.648  11.538 -0.1389  0.0641  0.5519
19960TIP3    H181371   5.356   4.569  11.490 -0.0188 -1.4636  2.8437
19960TIP3    H281372   5.297   4.679  11.576 -0.2733  1.3807 -0.7370
19961TIP3   OH281373   0.067   2.681  12.859  0.1398  0.4508 -0.4905
19961TIP3    H181374   0.111   2.718  12.782  0.0121 -0.9787 -1.2746
19961TIP3    H281375   0.027   2.601  12.827  1.6108 -1.1517  1.4664
19962TIP3   OH281376   1.486   2.691  16.314  0.0776 -0.5949  0.1304
19962TIP3    H181377   1.420   2.761  16.309  1.7119  0.9608 -0.4082
19962TIP3    H281378   1.521   2.684  16.225  2.1437  0.1212  0.8520
19963TIP3   OH281379   6.135   2.757  16.694 -0.6714  1.0472  0.0453
19963TIP3    H181380   6.141   2.835  16.639 -2.2559  0.3418 -1.1962
19963TIP3    H281381   6.219   2.754  16.741  0.9615  1.4760 -2.6094
19964TIP3   OH281382   0.266   3.884  13.298 -0.3482 -0.2408 -0.4589
19964TIP3    H181383   0.217   3.804  13.276  1.2182 -1.3797  0.0130
19964TIP3    H281384   0.298   3.868  13.387  0.0973  0.8651 -0.4117
19965TIP3   OH281385   4.749   4.342  11.713  0.1992 -0.1527 -0.0354
19965TIP3    H181386   4.678   4.384  11.665 -0.3438  0.1530  1.0153
19965TIP3    H281387   4.808   4.414  11.737  0.8294 -0.3916 -0.8192
19966TIP3   OH281388   3.327   0.888   4.103  0.0021 -0.1218  0.1051
19966TIP3    H181389   3.268   0.848   4.167 -0.0078 -0.4075 -0.0760
19966TIP3    H281390   3.346   0.975   4.138 -1.9314  0.6846 -0.6753
19967TIP3   OH281391   1.148   6.145   3.869 -0.0690  0.2102 -0.0698
19967TIP3    H181392   1.240   6.137   3.893  0.3233  0.1122 -1.4946
19967TIP3    H281393   1.149   6.159   3.774 -1.4611  1.4348  0.0498
19968TIP3   OH281394   3.472   5.672  16.277 -0.3614 -0.4246  0.5512
19968TIP3    H181395   3.563   5.650  16.295 -0.7085 -2.6347 -0.0590
19968TIP3    H281396   3.422   5.622  16.341 -1.2275 -1.3499 -0.8113
19969TIP3   OH281397   2.634   5.128   2.276 -0.3821 -0.2599 -0.3434
19969TIP3    H181398   2.687   5.189   2.224 -1.0428  0.4496 -0.1985
19969TIP3    H281399   2.688   5.110   2.353 -0.2683  0.3360 -0.2739
19970TIP3   OH281400   3.650   5.547  14.830  0.3607  0.4469  0.3669
19970TIP3    H181401   3.653   5.453  14.847  1.9347  0.5319  0.7449
19970TIP3    H281402   3.592   5.582  14.897  1.2553 -0.0345  1.4203
19971TIP3   OH281403   2.082   4.532   4.402  0.1867 -0.4449  1.1952
19971TIP3    H181404   2.154   4.472   4.384  0.5161  0.3900 -0.4526
19971TIP3    H281405   2.022   4.521   4.328  0.5846  1.6854  0.4975
19972TIP3   OH281406   4.672   6.190   0.889 -0.0441 -0.0613  0.1224
19972TIP3    H181407   4.713   6.245   0.956 -1.1125  2.2838 -1.0209
19972TIP3    H281408   4.713   6.218   0.807 -1.2784 -0.3200 -0.6012
19973TIP3   OH281409   0.096   0.428  12.144  0.3075  0.0346 -0.4792
19973TIP3    H181410   0.133   0.351  12.187 -1.6684 -0.1904  0.9675
19973TIP3    H281411   0.165   0.494  12.148  0.5657 -0.2741  2.3041
19974TIP3   OH281412   0.754   2.033   3.414 -0.1656  0.6590 -0.6438
19974TIP3    H181413   0.834   2.008   3.367 -1.0042 -0.3070 -1.5817
19974TIP3    H281414   0.717   1.951   3.445  0.5956  1.2680  2.2201
19975TIP3   OH281415   0.199   1.763   1.497  0.3110  0.4001 -0.3346
19975TIP3    H181416   0.179   1.678   1.536  2.1901  0.0328 -0.0467
19975TIP3    H281417   0.223   1.743   1.406  0.1366  0.7067 -0.4509
19976TIP3   OH281418   3.450   0.154   0.770  0.7927 -0.2803 -0.2838
19976TIP3    H181419   3.369   0.147   0.719  0.1718 -0.1757  0.6384
19976TIP3    H281420   3.519   0.164   0.706  0.2558 -1.9166 -1.1842
19977TIP3   OH281421   1.583   5.504  13.096 -0.1367  0.2302  0.1551
19977TIP3    H181422   1.632   5.580  13.127 -0.3996  0.0515  1.0369
19977TIP3    H281423   1.505   5.541  13.054 -0.2316  0.4584  0.5239
19978TIP3   OH281424   3.604   5.286   3.363  0.5481  0.5118  0.2842
19978TIP3    H181425   3.512   5.267   3.345  1.0461 -0.7172 -1.2381
19978TIP3    H281426   3.617   5.262   3.454  0.0725 -2.4823 -0.3415
19979TIP3   OH281427   2.138   5.803  14.532  0.6515  0.2112  0.1795
19979TIP3    H181428   2.169   5.793  14.622  1.3711 -0.2004 -0.1023
19979TIP3    H281429   2.160   5.720  14.490 -0.3263  0.1268 -0.1965
19980TIP3   OH281430   3.659   4.268  13.723 -0.0379  0.2165 -0.1759
19980TIP3    H181431   3.726   4.246  13.658 -0.5257 -0.4567 -0.4620
19980TIP3    H281432   3.708   4.309  13.794  0.6977 -0.3710 -0.3238
19981TIP3   OH281433   1.039   5.182  14.640  0.0734 -0.2853  0.1130
19981TIP3    H181434   0.951   5.156  14.666 -0.5641 -0.7149 -2.2492
19981TIP3    H281435   1.056   5.263  14.689 -1.5794 -0.2384  0.6567
19982TIP3   OH281436   3.145   3.944  15.090 -0.4208  0.0934  0.3331
19982TIP3    H181437   3.208   4.014  15.075 -0.4918 -0.3073 -2.1656
19982TIP3    H281438   3.064   3.975  15.050  0.1135 -2.1801 -2.8669
19983TIP3   OH281439   1.719   1.793  15.863  0.3913  0.6877  0.5250
19983TIP3    H181440   1.694   1.876  15.821  0.4044  0.3674 -0.1238
19983TIP3    H281441   1.644   1.736  15.850  0.3019  0.6522  1.1478
19984TIP3   OH281442   3.675   3.748   6.053 -0.8117 -0.6385  0.0126
19984TIP3    H181443   3.764   3.718   6.037 -0.3749  0.3633  0.4906
19984TIP3    H281444   3.659   3.728   6.145 -1.1621 -0.9959 -0.1225
19985TIP3   OH281445   4.503   4.610   2.848  0.2242 -0.0031  0.4667
19985TIP3    H181446   4.586   4.568   2.870  0.7659 -0.3522 -1.9589
19985TIP3    H281447   4.487   4.672   2.920  1.6834 -1.1516  1.8360
19986TIP3   OH281448   0.964   2.096   0.952 -0.1404  0.3089 -0.1950
19986TIP3    H181449   1.035   2.059   1.004  0.3670 -0.7257 -1.5562
19986TIP3    H281450   0.993   2.184   0.930  0.6223 -0.0217 -0.5372
19987TIP3   OH281451   6.438   0.934   4.782 -0.4477  0.2218  0.0712
19987TIP3    H181452   6.463   0.860   4.839  1.4312 -1.3767 -2.6003
19987TIP3    H281453   6.514   0.992   4.784 -0.9297  0.8542  0.2431
19988TIP3   OH281454   1.115   2.230   0.150 -0.1934 -0.4988 -0.4382
19988TIP3    H181455   1.088   2.285   0.223  1.9067  1.9297 -1.3442
19988TIP3    H281456   1.201   2.197   0.175  0.9023  0.9794 -2.0309
19989TIP3   OH281457   3.445   4.660   4.555  0.0736 -0.3800 -0.3585
19989TIP3    H181458   3.512   4.687   4.492  0.8858 -0.8759  0.2586
19989TIP3    H281459   3.386   4.735   4.561  0.6516  0.1256 -0.8153
19990TIP3   OH281460   4.698   2.218  14.468  0.3980 -0.0019  0.0461
19990TIP3    H181461   4.781   2.258  14.493  0.6394  0.8370 -1.8841
19990TIP3    H281462   4.693   2.231  14.373 -2.3042  0.6658  0.2081
19991TIP3   OH281463   1.359   6.555   4.828 -0.0043 -0.0675 -0.6504
19991TIP3    H181464   1.449   6.564   4.859 -0.1709  2.2181 -0.6107
19991TIP3    H281465   1.309   6.527   4.904  0.0978  2.4464  0.4399
19992TIP3   OH281466   5.153   2.299  14.114 -0.3222  0.2806  0.5997
19992TIP3    H181467   5.066   2.269  14.141 -0.8334 -3.3119 -3.8157
19992TIP3    H281468   5.141   2.391  14.090 -3.0527 -0.2491 -0.3240
19993TIP3   OH281469   4.496   6.814  14.017 -0.2347  0.3072 -0.2630
19993TIP3    H181470   4.462   6.809  13.928  0.6532  0.6985 -0.6293
19993TIP3    H281471   4.516   6.723  14.040 -1.3682  0.0865 -0.0912
19994TIP3   OH281472   3.559   5.658  14.086 -0.5442 -0.1243  0.4275
19994TIP3    H181473   3.524   5.584  14.136  0.5694 -0.6185  0.4969
19994TIP3    H281474   3.507   5.733  14.116 -1.3119 -0.7699  0.7721
19995TIP3   OH281475   3.179   1.649  11.159 -0.0773 -0.0489  0.3220
19995TIP3    H181476   3.245   1.642  11.090 -0.0651 -0.4937  0.3736
19995TIP3    H281477   3.229   1.651  11.240 -0.0768  0.7731  0.3119
19996TIP3   OH281478   5.552   6.278  12.719  0.3518  0.0202 -0.0762
19996TIP3    H181479   5.548   6.235  12.805 -1.5029  0.0682 -0.1136
19996TIP3    H281480   5.539   6.207  12.656 -0.7892  0.3378 -0.2109
19997TIP3   OH281481   4.775   1.920   1.061  0.2283  0.3119  0.5963
19997TIP3    H181482   4.821   1.920   1.144  0.5478  1.7927  0.4491
19997TIP3    H281483   4.797   1.836   1.021  1.0577  0.0985  1.4605
19998TIP3   OH281484   4.076   3.766   3.965  0.1000 -0.1726 -0.3862
19998TIP3    H181485   4.000   3.711   3.985  1.0902 -1.5565 -0.2671
19998TIP3    H281486   4.081   3.765   3.869 -0.2232  0.1935 -0.4076
19999TIP3   OH281487   6.797   4.074   2.269 -0.1649 -0.1096  0.6695
19999TIP3    H181488   6.839   4.135   2.207  0.0778 -3.4364 -2.7842
19999TIP3    H281489   6.868   4.050   2.330  0.9325 -0.0930 -0.5511
20000TIP3   OH281490   2.382   3.023  16.470 -0.8675 -0.3941  0.8995
20000TIP3    H181491   2.316   3.091  16.470  0.5630  1.0668  0.8647
20000TIP3    H281492   2.405   3.012  16.377 -1.3694 -1.2428  0.8620
20001TIP3   OH281493   4.733   4.788  12.197 -0.2704 -0.5437 -0.1434
20001TIP3    H181494   4.738   4.806  12.291  2.3620  0.6919 -0.4276
20001TIP3    H281495   4.804   4.725  12.180 -0.3858 -0.3767 -1.3828
20002TIP3   OH281496   3.823   4.576  13.739 -0.4239 -0.4444 -0.0151
20002TIP3    H181497   3.894   4.560  13.801 -0.2200 -0.9054 -0.3610
20002TIP3    H281498   3.743   4.573  13.792 -0.1569  0.7538  0.5009
20003TIP3   OH281499   5.182   1.167  14.318 -0.2920  0.0154 -0.1623
20003TIP3    H181500   5.104   1.194  14.366 -1.0433 -1.3154 -0.5644
20003TIP3    H281501   5.254   1.213  14.361 -1.1585  0.3492  0.9871
20004TIP3   OH281502   4.947   6.753   2.904 -0.2814 -0.2051  0.5283
20004TIP3    H181503   5.036   6.788   2.896 -0.6898  0.5361 -0.9861
20004TIP3    H281504   4.904   6.810   2.968 -0.4061  1.0131 -0.6106
20005TIP3   OH281505   6.558   3.792  15.820 -0.6467  0.2445 -0.6446
20005TIP3    H181506   6.523   3.724  15.762 -1.9783 -1.1676  1.6624
20005TIP3    H281507   6.485   3.852  15.834 -0.7850 -0.1922  0.6121
20006TIP3   OH281508   4.282   6.340  13.367 -0.3908 -0.5995  0.5760
20006TIP3    H181509   4.331   6.422  13.378 -2.8299  1.8070 -3.7200
20006TIP3    H281510   4.230   6.333  13.447  1.0891  1.0903  1.7823
20007TIP3   OH281511   1.330   6.214  12.182  0.3786  0.1372 -0.1989
20007TIP3    H181512   1.243   6.251  12.198  0.1831  0.0898 -1.1297
20007TIP3    H281513   1.344   6.154  12.256 -0.2306  0.4091  0.1417
20008TIP3   OH281514   2.197   6.700   1.994 -0.0824 -0.1735 -0.4740
20008TIP3    H181515   2.241   6.699   2.079  0.8855 -0.3930 -0.9698
20008TIP3    H281516   2.259   6.742   1.935 -1.7923  2.5146 -0.5443
20009TIP3   OH281517   0.368   4.498  16.605 -0.4181 -0.4911  0.3636
20009TIP3    H181518   0.286   4.547  16.597  0.1270  0.1671 -1.6451
20009TIP3    H281519   0.364   4.433  16.535  0.1560 -1.3971  1.1587
20010TIP3   OH281520   3.123   3.484  10.115  0.0336  0.0841  0.1507
20010TIP3    H181521   3.119   3.561  10.058 -0.1550  0.0640  0.1348
20010TIP3    H281522   3.037   3.482  10.157 -0.0224 -0.2144  0.0244
20011TIP3   OH281523   5.485   4.362   5.490 -0.0007 -0.3674  0.2033
20011TIP3    H181524   5.487   4.400   5.402 -0.3141  1.0930  0.8032
20011TIP3    H281525   5.507   4.269   5.476 -0.7326 -0.3282 -1.4874
20012TIP3   OH281526   3.001   2.462   4.274 -0.3369  0.0325 -0.6501
20012TIP3    H181527   3.055   2.536   4.247  1.2533 -1.4495 -1.7833
20012TIP3    H281528   3.035   2.437   4.360 -0.6047  0.3640 -0.4470
20013TIP3   OH281529   6.784   2.197   0.079 -0.0431 -0.1813  0.1041
20013TIP3    H181530   6.794   2.278   0.029 -0.1378  0.1445  0.6056
20013TIP3    H281531   6.696   2.203   0.115  0.7371  0.5808  2.0262
20014TIP3   OH281532   4.655   0.112  12.828 -0.1200 -0.0238 -0.0614
20014TIP3    H181533   4.746   0.091  12.805 -0.3348 -1.8031  0.5321
20014TIP3    H281534   4.661   0.152  12.915  0.0865 -0.4256  0.1132
20015TIP3   OH281535   4.805   1.838  13.469  0.6322  0.1429  0.0700
20015TIP3    H181536   4.855   1.789  13.403  0.2944 -1.4971  0.9802
20015TIP3    H281537   4.794   1.925  13.430 -0.1804 -0.9543 -2.3934
20016TIP3   OH281538   1.645   0.312   0.985  0.3812 -0.4460  0.6855
20016TIP3    H181539   1.577   0.248   0.965  1.3986 -1.0730 -0.9850
20016TIP3    H281540   1.598   0.387   1.021 -1.2001 -0.8985 -0.3440
20017TIP3   OH281541   0.442   4.730  17.012 -0.3372 -0.0771 -0.1263
20017TIP3    H181542   0.407   4.700  17.096 -0.9874  2.4013  0.5513
20017TIP3    H281543   0.475   4.650  16.971 -1.8469 -1.6745  1.5739
20018TIP3   OH281544   3.644   0.759   1.618  0.3072 -0.4391  0.1312
20018TIP3    H181545   3.559   0.788   1.586  0.9510  1.8462  0.2790
20018TIP3    H281546   3.648   0.665   1.599 -1.2976 -0.1292 -1.9455
20019TIP3   OH281547   5.198   0.113   0.159 -0.3074  0.2456  0.3197
20019TIP3    H181548   5.285   0.073   0.166 -1.1870 -1.7393  0.8291
20019TIP3    H281549   5.181   0.117   0.065  0.4833  1.0557  0.1942
20020TIP3   OH281550   0.156   3.498   4.196  0.1746 -1.0290 -0.1792
20020TIP3    H181551   0.126   3.498   4.287 -0.2902  1.4034 -0.2510
20020TIP3    H281552   0.077   3.481   4.145  0.5385 -2.9675 -0.1522
20021TIP3   OH281553   5.680   4.469   4.405 -0.4061  0.0101 -0.2754
20021TIP3    H181554   5.669   4.473   4.310 -1.1625 -0.4589 -0.2133
20021TIP3    H281555   5.644   4.384   4.431  1.0172 -0.4572  0.2825
20022TIP3   OH281556   3.232   3.057   1.831 -0.5305 -0.5088 -0.5968
20022TIP3    H181557   3.202   3.025   1.745  2.8376 -0.1180 -2.0799
20022TIP3    H281558   3.230   2.979   1.887 -0.9082 -1.2346 -1.5798
20023TIP3   OH281559   6.457   6.637   3.209 -0.1931  0.2892 -0.2980
20023TIP3    H181560   6.428   6.644   3.118  2.1260 -2.9963 -1.4808
20023TIP3    H281561   6.399   6.570   3.247 -0.5142  0.9431  0.4093
20024TIP3   OH281562   2.009   1.603   5.319 -0.2819 -0.2044  0.0171
20024TIP3    H181563   1.978   1.576   5.233  0.6413 -2.5641  0.3401
20024TIP3    H281564   2.097   1.639   5.303 -0.3609 -0.0631 -0.0973
20025TIP3   OH281565   6.054   3.268  13.124  0.8940  0.3287  0.2404
20025TIP3    H181566   6.091   3.356  13.128 -1.2804  1.3935 -0.8340
20025TIP3    H281567   6.030   3.257  13.031  0.0257 -0.8903  0.5834
20026TIP3   OH281568   3.613   0.372  13.800  0.2889 -0.7172 -0.3364
20026TIP3    H181569   3.579   0.359  13.889  0.3159  2.3627  0.2504
20026TIP3    H281570   3.550   0.328  13.743 -1.5109 -0.1063  1.0782
20027TIP3   OH281571   5.583   3.136   1.990  0.1075  0.0940  0.1507
20027TIP3    H181572   5.500   3.130   2.038  0.0748 -1.2449 -0.0355
20027TIP3    H281573   5.647   3.162   2.056 -0.2981  0.2540  0.4867
20028TIP3   OH281574   1.314   4.837   5.041  0.3556  0.5879  0.1797
20028TIP3    H181575   1.279   4.853   4.953  0.5445 -2.3850 -0.5627
20028TIP3    H281576   1.401   4.875   5.040  0.8476 -0.4593 -1.4261
20029TIP3   OH281577   2.972   1.899  11.139 -0.2977  0.2230 -0.1280
20029TIP3    H181578   2.882   1.909  11.169 -0.8661 -1.2105 -1.2394
20029TIP3    H281579   3.002   1.817  11.179  0.4453  0.5589  0.0358
20030TIP3   OH281580   4.112   4.164  12.596 -0.3717  0.0225  0.4477
20030TIP3    H181581   4.168   4.182  12.671 -1.9174 -1.3597  2.0163
20030TIP3    H281582   4.026   4.198  12.621 -1.1838 -1.4573 -0.1967
20031TIP3   OH281583   0.982   6.108  15.870  0.0623  0.8132 -0.0722
20031TIP3    H181584   0.978   6.027  15.921  0.2448  1.1817  0.5425
20031TIP3    H281585   1.052   6.159  15.911  1.4433  0.4001 -1.7876
20032TIP3   OH281586   6.697   4.007   1.823 -0.0007  0.5207  0.5229
20032TIP3    H181587   6.616   3.956   1.827 -0.1651  0.8805  2.0530
20032TIP3    H281588   6.668   4.098   1.822  0.2642  0.7066 -2.7840
20033TIP3   OH281589   2.171   0.931   0.967  0.2722  0.2684 -0.1103
20033TIP3    H181590   2.241   0.911   0.905  0.5597 -1.5963  0.7378
20033TIP3    H281591   2.111   0.856   0.960 -1.2475  1.4501 -0.2462
20034TIP3   OH281592   3.197   3.301  14.265 -0.6070  0.0707 -0.0483
20034TIP3    H181593   3.152   3.294  14.181  0.1152  1.7782 -0.6328
20034TIP3    H281594   3.181   3.218  14.308 -0.6502 -1.0331 -2.0589
20035TIP3   OH281595   1.386   4.666   2.704 -0.2563 -0.1237  0.1273
20035TIP3    H181596   1.364   4.706   2.788 -2.6021 -1.8902  0.4768
20035TIP3    H281597   1.471   4.624   2.718  0.0829  0.8757  1.1335
20036TIP3   OH281598   3.828   0.227  11.626 -0.2730 -0.3941 -0.2266
20036TIP3    H181599   3.797   0.160  11.566  0.5927 -0.6166 -0.4477
20036TIP3    H281600   3.885   0.180  11.687 -0.1888  0.0264  0.0261
20037TIP3   OH281601   3.016   1.979   4.073 -0.0033 -0.4230  0.7720
20037TIP3    H181602   3.090   1.967   4.133  1.4595  1.3404 -0.5358
20037TIP3    H281603   2.986   2.068   4.090 -0.8567 -0.5978  0.2480
20038TIP3   OH281604   3.872   2.033   2.924 -0.4685  0.0260 -0.6915
20038TIP3    H181605   3.932   2.093   2.879 -0.3369  0.1433 -0.3669
20038TIP3    H281606   3.879   2.059   3.016 -0.4751 -0.4348 -0.5625
20039TIP3   OH281607   6.497   0.495   0.203 -0.0287  0.2647  0.7407
20039TIP3    H181608   6.520   0.476   0.294 -0.7066 -0.4379  0.7768
20039TIP3    H281609   6.561   0.446   0.151  1.2759  1.8159  0.8100
20040TIP3   OH281610   1.652   3.708  16.976  0.4401  0.1714 -0.0266
20040TIP3    H181611   1.731   3.727  17.026  1.5822 -2.1939 -0.7848
20040TIP3    H281612   1.671   3.737  16.887  0.9780 -1.4737 -0.4797
20041TIP3   OH281613   1.867   3.590  15.700  0.5507 -0.6682  0.2634
20041TIP3    H181614   1.951   3.607  15.658  0.6360 -1.4089  0.1181
20041TIP3    H281615   1.848   3.670  15.749  1.1110 -0.3168 -0.0790
20042TIP3   OH281616   5.603   1.148   3.542 -0.4028  0.0349  0.1812
20042TIP3    H181617   5.631   1.233   3.575  0.2575 -0.1911  0.2126
20042TIP3    H281618   5.572   1.166   3.453 -0.4487  0.3402  0.2578
20043TIP3   OH281619   2.853   3.110   1.578  0.6951  0.8375 -0.5753
20043TIP3    H181620   2.819   3.056   1.649  0.3804  1.1024 -0.5227
20043TIP3    H281621   2.867   3.048   1.505  1.6133  0.4528 -0.0998
20044TIP3   OH281622   4.761   5.290  14.311  0.1609  0.1435 -0.0921
20044TIP3    H181623   4.753   5.251  14.398 -1.8548  0.7245  0.0289
20044TIP3    H281624   4.769   5.384  14.328  1.5826  0.1188 -0.4987
20045TIP3   OH281625   4.923   6.022   1.742  0.4740 -0.2871 -0.0060
20045TIP3    H181626   4.894   6.056   1.657  0.7074  0.2415  0.1230
20045TIP3    H281627   4.846   5.976   1.776 -0.4713  1.6922  0.6439
20046TIP3   OH281628   4.887   3.130   4.999 -0.2413  0.4818 -1.0602
20046TIP3    H181629   4.923   3.046   4.968  1.8822  0.5525  0.9201
20046TIP3    H281630   4.825   3.105   5.067 -0.1674  0.4952 -0.9880
20047TIP3   OH281631   3.626   6.198  12.831  0.3354  0.4388 -0.8271
20047TIP3    H181632   3.691   6.176  12.764  1.6494 -2.1718  1.1084
20047TIP3    H281633   3.663   6.274  12.876  0.6822  0.6640 -1.4805
20048TIP3   OH281634   2.769   5.826  14.078 -0.1724  0.0427  0.4205
20048TIP3    H181635   2.681   5.794  14.060 -0.2234 -0.2292  1.1069
20048TIP3    H281636   2.779   5.815  14.173  0.4382  0.4763  0.4101
20049TIP3   OH281637   0.408   3.377   5.751  0.5075 -0.0953  0.2749
20049TIP3    H181638   0.402   3.336   5.665  0.8656  1.5385 -0.5761
20049TIP3    H281639   0.351   3.324   5.807  0.1913 -1.1369 -0.9831
20050TIP3   OH281640   3.949   1.193  11.596 -0.0640  0.2457 -0.4971
20050TIP3    H181641   4.009   1.122  11.618 -0.2161 -0.0229 -0.9471
20050TIP3    H281642   3.992   1.239  11.523  1.0527  1.8999  1.1068
20051TIP3   OH281643   6.816   2.745   0.430 -0.2831 -0.3314  0.1947
20051TIP3    H181644   6.827   2.652   0.451 -1.2209 -0.1998  1.3874
20051TIP3    H281645   6.808   2.788   0.516 -1.7911  0.5976 -0.3703
20052TIP3   OH281646   4.086   0.049   0.085  0.8483  0.6735  0.3354
20052TIP3    H181647   4.041   0.106   0.023 -1.4052 -0.2532  1.0108
20052TIP3    H281648   4.018  -0.010   0.117  2.1453  0.3921  2.8535
20053TIP3   OH281649   3.727   1.385   0.715 -0.3572 -0.0669 -0.7043
20053TIP3    H181650   3.798   1.411   0.657  2.3719 -0.7780  2.0758
20053TIP3    H281651   3.749   1.295   0.741 -2.2805 -0.2952  0.2899
20054TIP3   OH281652   2.578   2.835   3.587  0.0097 -0.0422  0.8855
20054TIP3    H181653   2.576   2.931   3.597  0.4132  0.2262 -1.1358
20054TIP3    H281654   2.501   2.805   3.634 -0.9311  1.4245  0.3722
20055TIP3   OH281655   4.452   5.611   2.163 -0.5978 -0.2115  0.4055
20055TIP3    H181656   4.452   5.644   2.073  3.4316 -4.1865 -1.4111
20055TIP3    H281657   4.515   5.666   2.208 -1.2641  0.6347  0.3376
20056TIP3   OH281658   4.259   3.858  14.886  0.5532 -0.6565 -0.2540
20056TIP3    H181659   4.178   3.835  14.931  0.3190  1.4055  0.4909
20056TIP3    H281660   4.329   3.829  14.945  0.2999 -0.4832  0.1335
20057TIP3   OH281661   5.083   5.605   0.762 -0.0573  0.3911  0.2796
20057TIP3    H181662   5.173   5.637   0.750 -0.0942  0.5633  0.4658
20057TIP3    H281663   5.061   5.565   0.678  0.4555 -0.3074  0.4577
20058TIP3   OH281664   4.940   1.627  15.572  0.9387  0.0555  0.2012
20058TIP3    H181665   4.966   1.536  15.588  0.2854 -0.0284  0.7975
20058TIP3    H281666   4.851   1.621  15.537  0.9916  0.4489 -0.0037
20059TIP3   OH281667   1.908   4.290   1.825  0.1408  0.0674  0.5403
20059TIP3    H181668   1.830   4.265   1.874 -0.0455  1.6742  1.1374
20059TIP3    H281669   1.878   4.298   1.734 -0.8398  2.2250  0.9829
20060TIP3   OH281670   3.877   3.888   6.530 -0.2410 -0.1186 -0.0406
20060TIP3    H181671   3.972   3.896   6.543 -0.0588 -2.7385  0.9151
20060TIP3    H281672   3.857   3.799   6.559 -2.6857 -0.3467 -2.0987
20061TIP3   OH281673   4.522   4.039   3.705 -0.0263 -0.2048 -0.1000
20061TIP3    H181674   4.494   3.959   3.661  0.0374  0.8915 -2.2290
20061TIP3    H281675   4.618   4.034   3.705  0.0131  0.2734 -1.0940
20062TIP3   OH281676   6.145   3.255   4.995 -0.2141 -0.2022 -0.0436
20062TIP3    H181677   6.234   3.229   4.972 -0.4034 -2.2567  1.2902
20062TIP3    H281678   6.156   3.316   5.068  0.1406 -3.0460  2.4685
20063TIP3   OH281679   3.992   3.439  14.020  0.1571 -0.8052  0.1704
20063TIP3    H181680   3.987   3.466  14.112  0.9350  0.6235 -0.1758
20063TIP3    H281681   3.966   3.517  13.970  1.4583 -0.9877 -0.8479
20064TIP3   OH281682   2.083   3.916  10.284  0.3576  0.5135 -0.1069
20064TIP3    H181683   2.138   3.838  10.284  0.7143  0.7575  0.5005
20064TIP3    H281684   1.994   3.883  10.281  0.5320  0.1103 -0.9842
20065TIP3   OH281685   0.332   1.501  13.040  0.6545  0.3373 -0.5745
20065TIP3    H181686   0.303   1.567  12.978  0.9119 -0.4735 -1.5880
20065TIP3    H281687   0.259   1.491  13.101 -0.4213 -0.2352 -1.8956
20066TIP3   OH281688   3.761   1.260   1.999  0.1340 -0.3282 -0.8035
20066TIP3    H181689   3.791   1.206   2.072  0.8135  0.7407 -0.2745
20066TIP3    H281690   3.680   1.300   2.030 -1.6292 -2.7055 -1.9983
20067TIP3   OH281691   3.434   0.271   2.190 -0.0789  0.4243  0.2611
20067TIP3    H181692   3.520   0.268   2.148  1.1664 -2.3533  2.6728
20067TIP3    H281693   3.387   0.196   2.153 -0.1679 -0.0993  1.4161
20068TIP3   OH281694   6.000   5.104  12.225 -0.5701 -0.1370  0.2158
20068TIP3    H181695   5.936   5.139  12.163 -0.4217  0.2845  0.2943
20068TIP3    H281696   5.996   5.164  12.300  0.1769  0.1116  0.0677
20069TIP3   OH281697   1.893   4.568   4.587 -0.1154 -0.2800  0.0561
20069TIP3    H181698   1.969   4.554   4.531 -0.0365 -1.8865  0.5169
20069TIP3    H281699   1.818   4.551   4.530 -0.1902  1.7629 -0.5258
20070TIP3   OH281700   3.983   6.512   3.879  0.2607  0.1592 -0.3119
20070TIP3    H181701   4.042   6.517   3.803  0.2695  1.3281 -0.2365
20070TIP3    H281702   3.999   6.592   3.928 -2.8628  1.5715 -1.3653
20071TIP3   OH281703   2.673   5.326  11.669 -0.1010 -0.3821  0.3277
20071TIP3    H181704   2.601   5.290  11.721 -0.4386 -0.7000 -0.3464
20071TIP3    H281705   2.643   5.320  11.579  0.1495  0.9019  0.1404
20072TIP3   OH281706   4.416   4.540   3.658  0.1832  0.0383 -0.0293
20072TIP3    H181707   4.435   4.446   3.655 -0.9379 -0.1874 -0.3143
20072TIP3    H281708   4.403   4.559   3.751 -1.1005 -0.4180 -0.0969
20073TIP3   OH281709   5.256   5.932  11.895 -0.3143  0.4720  0.4429
20073TIP3    H181710   5.297   5.923  11.809 -0.3339  1.6478  0.3023
20073TIP3    H281711   5.295   6.012  11.932 -0.0239 -0.2094  1.6862
20074TIP3   OH281712   3.949   5.488  15.956 -0.1738 -0.1968  0.1533
20074TIP3    H181713   3.907   5.573  15.967  1.1670  0.6865 -1.1822
20074TIP3    H281714   4.041   5.508  15.939  0.1134 -1.8857 -0.5123
20075TIP3   OH281715   1.916   0.886   4.465 -0.0025  0.4595 -0.0221
20075TIP3    H181716   1.990   0.834   4.497 -1.3732 -1.7255 -0.1610
20075TIP3    H281717   1.850   0.878   4.534 -0.6617  1.1219 -0.5674
20076TIP3   OH281718   1.780   4.197  15.491 -0.2632 -0.8096 -0.1569
20076TIP3    H181719   1.702   4.144  15.476 -2.0702  2.2375 -2.7098
20076TIP3    H281720   1.802   4.232  15.404  2.8550 -0.0662  0.8036
20077TIP3   OH281721   4.195   0.811   3.505  0.1688 -0.2874 -0.0166
20077TIP3    H181722   4.272   0.853   3.468 -0.6193  0.4650 -0.8630
20077TIP3    H281723   4.167   0.750   3.436 -0.9619  0.6845 -0.4521
20078TIP3   OH281724   4.127   1.605  15.191  0.3445 -0.4969 -0.4133
20078TIP3    H181725   4.093   1.584  15.278 -1.3531  1.4321 -0.5154
20078TIP3    H281726   4.082   1.543  15.133  0.1892 -0.6901 -0.0947
20079TIP3   OH281727   6.061   1.443   0.645  0.3904 -0.5927  0.2248
20079TIP3    H181728   6.108   1.368   0.609 -1.4955 -1.4416 -0.6465
20079TIP3    H281729   6.056   1.505   0.572 -0.8062 -1.0131 -0.0732
20080TIP3   OH281730   2.581   2.313  15.745  0.1328 -0.1018 -0.0332
20080TIP3    H181731   2.618   2.394  15.708  1.7150 -0.5961  0.3746
20080TIP3    H281732   2.501   2.298  15.695  1.4516  0.0224 -2.3270
20081TIP3   OH281733   6.602   6.681   2.474  0.0362 -0.7107 -0.2376
20081TIP3    H181734   6.614   6.649   2.563  0.2280 -1.3932 -0.5049
20081TIP3    H281735   6.542   6.618   2.433 -0.4225 -0.1484 -0.4568
20082TIP3   OH281736   6.231   0.179  14.650 -0.1911  0.3597 -0.8388
20082TIP3    H181737   6.234   0.171  14.555 -0.2678  0.6946 -0.8710
20082TIP3    H281738   6.146   0.218  14.668  0.5384  2.0198 -0.7682
20083TIP3   OH281739   1.814   5.260   2.565  0.7582 -0.2338 -0.3414
20083TIP3    H181740   1.820   5.278   2.472 -1.1798 -2.5609 -1.0288
20083TIP3    H281741   1.887   5.201   2.583  0.4060 -0.7970 -0.7113
20084TIP3   OH281742   2.675   4.860  10.928 -0.0844 -0.3664  0.3291
20084TIP3    H181743   2.715   4.777  10.953 -0.3157 -0.9200 -1.0247
20084TIP3    H281744   2.703   4.873  10.837  0.1642  1.1764  0.5918
20085TIP3   OH281745   2.385   3.905   3.263 -0.0861 -0.1017 -0.0222
20085TIP3    H181746   2.365   3.812   3.265  2.3919 -0.6945  0.5236
20085TIP3    H281747   2.456   3.913   3.199  0.6047  1.1821  0.8625
20086TIP3   OH281748   2.542   6.555  15.595 -0.0277 -0.3874 -0.1782
20086TIP3    H181749   2.487   6.533  15.670 -0.3382  0.1117 -0.2521
20086TIP3    H281750   2.480   6.581  15.526  0.2022 -1.6770 -0.9126
20087TIP3   OH281751   0.147   1.504   1.086  0.3365  0.2347  0.3574
20087TIP3    H181752   0.056   1.487   1.109  0.2895  1.0646  0.8481
20087TIP3    H281753   0.144   1.529   0.994 -0.0257  0.8697  0.5330
20088TIP3   OH281754   2.004   2.923  14.969 -0.3999 -0.1317 -0.2324
20088TIP3    H181755   2.030   3.010  14.937 -2.1242  0.0212 -1.3252
20088TIP3    H281756   1.911   2.917  14.949 -0.5948 -1.7399  1.0186
20089TIP3   OH281757   5.107   0.377  16.494  0.1265 -0.4564  0.2729
20089TIP3    H181758   5.113   0.283  16.476 -0.4160 -0.5819  0.7226
20089TIP3    H281759   5.188   0.413  16.458  0.4550 -1.1314  0.3155
20090TIP3   OH281760   3.976   6.271  11.489  0.2440 -1.0759  0.0620
20090TIP3    H181761   4.058   6.317  11.477 -0.5451  0.7273  1.1261
20090TIP3    H281762   3.983   6.232  11.577 -0.3218 -0.1869  0.5245
20091TIP3   OH281763   1.410   2.043   4.666 -0.4746 -0.6424 -1.2696
20091TIP3    H181764   1.325   2.081   4.686 -0.8253 -0.7508 -2.4900
20091TIP3    H281765   1.473   2.103   4.706 -1.0783  0.3715 -1.8076
20092TIP3   OH281766   1.417   3.424  13.540 -0.2749  0.0144 -0.0106
20092TIP3    H181767   1.447   3.510  13.509  1.0457 -0.5292 -0.2839
20092TIP3    H281768   1.484   3.397  13.603  0.1225 -1.4798 -1.0423
20093TIP3   OH281769   3.676   4.337   2.324 -0.0228  0.0953  0.6817
20093TIP3    H181770   3.742   4.405   2.340  0.6567 -0.6824  1.2912
20093TIP3    H281771   3.638   4.360   2.240  1.7044  0.0439 -0.1640
20094TIP3   OH281772   2.484   6.690  15.147 -0.2147 -0.2288  0.0412
20094TIP3    H181773   2.490   6.607  15.194  1.7477  0.5357  1.2454
20094TIP3    H281774   2.460   6.754  15.214  1.1106  0.6381 -0.2837
20095TIP3   OH281775   5.579   4.607  14.672 -0.2504  0.2255  0.2687
20095TIP3    H181776   5.627   4.621  14.754 -0.2853  0.7440  0.2063
20095TIP3    H281777   5.646   4.612  14.604 -0.4736  1.6394  0.1286
20096TIP3   OH281778   3.454   4.402  16.760  0.4756 -0.4090  0.1222
20096TIP3    H181779   3.534   4.375  16.715 -0.3851 -3.6901  0.3007
20096TIP3    H281780   3.408   4.320  16.779 -2.7196  1.2959  0.4598
20097TIP3   OH281781   2.440   2.273  14.274 -0.2269  0.7660  0.6863
20097TIP3    H181782   2.409   2.196  14.321  0.7745  0.8387  1.4992
20097TIP3    H281783   2.375   2.287  14.205  0.4315 -1.8659 -0.6310
20098TIP3   OH281784   6.264   1.492  15.108  0.0896  0.8833  0.3453
20098TIP3    H181785   6.266   1.572  15.161  0.8684  1.9513 -1.2017
20098TIP3    H281786   6.190   1.504  15.049  0.6318  0.8035 -0.3680
20099TIP3   OH281787   5.986   2.684   4.300  0.2087  0.5295  0.2608
20099TIP3    H181788   6.018   2.697   4.211 -1.1139  1.2153 -0.1539
20099TIP3    H281789   5.970   2.773   4.332 -0.0813  0.2570  0.8891
20100TIP3   OH281790   5.178   2.691  12.360 -0.2001 -0.4912 -0.3698
20100TIP3    H181791   5.083   2.683  12.375 -0.5592 -1.3509 -2.7288
20100TIP3    H281792   5.188   2.773  12.312  0.3765 -0.0398  0.4900
20101TIP3   OH281793   4.258   4.880  12.992 -0.0556  0.0694  0.1891
20101TIP3    H181794   4.218   4.889  13.078 -1.1978  0.1764 -0.3377
20101TIP3    H281795   4.251   4.967  12.953 -0.1085 -0.1287 -0.2456
20102TIP3   OH281796   1.867   5.068   4.176  0.4430  0.5114  0.1169
20102TIP3    H181797   1.892   5.156   4.203  1.4185  0.3554 -0.2426
20102TIP3    H281798   1.926   5.011   4.225  1.8091  0.1866 -1.8108
20103TIP3   OH281799   1.709   3.853  15.439  0.4619  0.0850  0.1684
20103TIP3    H181800   1.670   3.903  15.368  1.3726 -0.6529 -0.8878
20103TIP3    H281801   1.793   3.824  15.404 -0.0388 -2.1908  0.7196
20104TIP3   OH281802   2.087   5.587  13.411  0.7040 -0.3236 -0.1835
20104TIP3    H181803   2.172   5.562  13.446  0.4672 -0.4259  0.3297
20104TIP3    H281804   2.051   5.648  13.476  1.1665  1.1879 -1.3012
20105TIP3   OH281805   0.071   3.252   3.370  0.3828 -0.1215  0.0731
20105TIP3    H181806   0.061   3.224   3.460 -0.9501  0.2890  0.0693
20105TIP3    H281807   0.162   3.284   3.364  0.6739 -0.7385  1.0788
20106TIP3   OH281808   5.069   3.990   3.838 -0.0951 -0.1188  0.3506
20106TIP3    H181809   5.087   4.067   3.891 -0.7220 -0.1919  0.6802
20106TIP3    H281810   5.142   3.931   3.855  0.7475  0.6646 -0.4299
20107TIP3   OH281811   1.072   4.939  14.282  0.3513 -0.3455 -0.6163
20107TIP3    H181812   0.992   4.973  14.322  0.1195 -0.2905 -1.1182
20107TIP3    H281813   1.049   4.926  14.190  1.1588  0.4950 -0.9621
20108TIP3   OH281814   2.007   0.157   4.468 -0.2646  0.2416  0.0299
20108TIP3    H181815   2.077   0.115   4.517 -1.1820 -2.0194 -0.4474
20108TIP3    H281816   1.938   0.173   4.533  0.2608  1.5465  0.3041
20109TIP3   OH281817   3.570   4.162   1.162 -0.2736 -0.0118 -0.1914
20109TIP3    H181818   3.518   4.230   1.204  0.4744 -0.3068  1.2669
20109TIP3    H281819   3.506   4.095   1.139 -0.8593  0.6818 -0.6291
20110TIP3   OH281820   1.739   2.784  14.846  0.3083 -0.6919  0.1245
20110TIP3    H181821   1.712   2.875  14.841 -0.0250 -0.7527  0.6782
20110TIP3    H281822   1.692   2.740  14.775 -0.0615 -0.5596  0.2878
20111TIP3   OH281823   5.841   0.408   5.599  0.3529  0.2759  0.4004
20111TIP3    H181824   5.831   0.313   5.593 -1.8202  0.3484  1.7230
20111TIP3    H281825   5.932   0.425   5.576  1.4166 -2.3471  2.2295
20112TIP3   OH281826   2.277   4.248  14.825 -0.1901 -0.8683 -0.2591
20112TIP3    H181827   2.223   4.168  14.826 -2.4267  0.5536 -0.8170
20112TIP3    H281828   2.312   4.252  14.736 -2.1591  0.0143 -1.0567
20113TIP3   OH281829   4.701   3.265  16.744 -0.1518  0.2914  0.4530
20113TIP3    H181830   4.680   3.290  16.834  1.3120 -0.5923  1.0548
20113TIP3    H281831   4.781   3.214  16.750 -0.0777  0.1184 -1.3520
20114TIP3   OH281832   4.529   2.551  14.957 -0.0285 -0.0754  0.1358
20114TIP3    H181833   4.502   2.633  14.917 -0.5895 -0.6819 -0.7628
20114TIP3    H281834   4.619   2.538  14.928  0.1948  0.3936  0.5901
20115TIP3   OH281835   4.077   4.481  10.572 -0.1302  1.0037  0.2416
20115TIP3    H181836   4.144   4.412  10.574  0.5130  1.5221  3.8978
20115TIP3    H281837   4.080   4.514  10.482  2.6189 -0.8080 -0.4802
20116TIP3   OH281838   0.669   2.730  16.435  0.2516 -0.6408 -0.5754
20116TIP3    H181839   0.667   2.640  16.468 -2.1239 -0.2347  0.5889
20116TIP3    H281840   0.730   2.776  16.493 -0.2630 -1.0029  0.2676
20117TIP3   OH281841   3.719   3.084   0.442  0.4664 -0.3141  0.1969
20117TIP3    H181842   3.741   3.051   0.529 -0.7549 -4.1095 -0.7409
20117TIP3    H281843   3.629   3.054   0.427  1.4359 -2.0140 -3.2330
20118TIP3   OH281844   2.249   1.763   1.116 -0.5574  0.6137 -0.1872
20118TIP3    H181845   2.269   1.782   1.025  0.8515  3.0675  0.5427
20118TIP3    H281846   2.278   1.840   1.164 -0.5360 -0.9021  2.4586
20119TIP3   OH281847   5.945   2.181   2.370 -0.2865  0.3067 -0.0714
20119TIP3    H181848   6.003   2.253   2.394  0.2698  0.3153 -1.3709
20119TIP3    H281849   5.879   2.179   2.440  0.8982  0.7007  1.0905
20120TIP3   OH281850   0.330   0.117   3.337  0.0909  0.3420 -0.2533
20120TIP3    H181851   0.348   0.028   3.368  1.0561  1.0923  1.5120
20120TIP3    H281852   0.234   0.122   3.335 -0.0133 -0.1863  1.4346
20121TIP3   OH281853   6.756   6.588  16.380 -0.4225 -0.7072  0.0808
20121TIP3    H181854   6.670   6.549  16.367 -0.4591 -0.6924  0.2849
20121TIP3    H281855   6.786   6.553  16.463 -2.1108  2.6876  2.3740
20122TIP3   OH281856   6.539   3.300   3.520 -0.6099 -0.3422 -0.3824
20122TIP3    H181857   6.529   3.382   3.471 -1.8691  1.3277  2.3875
20122TIP3    H281858   6.630   3.301   3.549 -1.0978  1.2486  1.3295
20123TIP3   OH281859   2.520   2.718  13.387  0.0349 -0.1994 -0.2977
20123TIP3    H181860   2.431   2.739  13.358 -0.8735  1.1962  2.9729
20123TIP3    H281861   2.572   2.718  13.307 -2.3407  2.1069 -2.0355
20124TIP3   OH281862   2.186   0.967   5.476  0.4124 -0.2239  0.0039
20124TIP3    H181863   2.110   1.019   5.503  1.3296  0.6999  0.8389
20124TIP3    H281864   2.210   1.003   5.391 -0.7421 -1.2713 -0.8152
20125TIP3   OH281865   6.169   4.121   3.931 -0.9232 -0.7808 -0.3446
20125TIP3    H181866   6.261   4.137   3.908 -0.8309 -0.7284  0.0361
20125TIP3    H281867   6.153   4.031   3.905 -0.5780 -0.9899  0.1346
20126TIP3   OH281868   4.007   3.525  14.281  0.5383 -0.1416  0.1440
20126TIP3    H181869   4.087   3.480  14.310 -0.5198 -0.7355  2.3677
20126TIP3    H281870   4.027   3.618  14.292  1.0431 -0.2648  0.3023
20127TIP3   OH281871   5.166   4.060   0.239  0.1871  0.1346  0.3310
20127TIP3    H181872   5.165   4.145   0.195 -0.3179 -1.0001 -2.0155
20127TIP3    H281873   5.258   4.044   0.259  0.3962  0.8205 -0.0504
20128TIP3   OH281874   2.943   3.739   3.802 -0.3409  0.3301  0.3065
20128TIP3    H181875   3.037   3.719   3.797 -0.7986 -2.4803  1.2155
20128TIP3    H281876   2.937   3.832   3.782  2.7249  0.7923  1.0808
20129TIP3   OH281877   0.249   4.661  12.592 -0.0931 -0.2817 -0.4194
20129TIP3    H181878   0.202   4.666  12.676  0.3496  0.7743 -0.2156
20129TIP3    H281879   0.244   4.569  12.567 -1.9799 -0.2559 -0.2420
20130TIP3   OH281880   0.204   4.229  15.321 -0.5336 -0.0334  0.3078
20130TIP3    H181881   0.205   4.137  15.294 -2.7021 -0.1176  0.3193
20130TIP3    H281882   0.236   4.277  15.245 -0.3847 -0.7217 -0.0737
20131TIP3   OH281883   2.491   3.066   4.548 -0.3849 -0.6096 -0.4201
20131TIP3    H181884   2.554   3.020   4.492  0.0091 -1.0780  0.3711
20131TIP3    H281885   2.527   3.056   4.637 -0.1549  1.4472 -0.2326
20132TIP3   OH281886   2.463   2.619   2.758 -0.0936 -0.7360  0.0284
20132TIP3    H181887   2.385   2.568   2.740 -0.5014 -0.4353  0.9103
20132TIP3    H281888   2.533   2.554   2.769 -0.4539 -1.0605  0.4002
20133TIP3   OH281889   6.694   3.717  13.886  0.0568 -0.0442  0.5435
20133TIP3    H181890   6.621   3.697  13.828  0.7240  0.5802 -0.5554
20133TIP3    H281891   6.656   3.717  13.974 -1.5685  1.6063 -0.0973
20134TIP3   OH281892   4.006   4.210  16.056  0.2487  0.0873 -0.4584
20134TIP3    H181893   3.986   4.301  16.080 -0.5015 -0.2483  0.2550
20134TIP3    H281894   3.949   4.192  15.981  1.0109  0.4552 -1.1420
20135TIP3   OH281895   4.758   2.700   5.111 -0.1115  0.4127 -0.0659
20135TIP3    H181896   4.725   2.653   5.034  0.1649 -1.7250  1.0460
20135TIP3    H281897   4.682   2.710   5.167  0.3622 -1.4907  1.0101
20136TIP3   OH281898   0.208   2.762  15.497 -0.0967 -0.3842  0.0749
20136TIP3    H181899   0.228   2.833  15.436 -0.9890  1.2306  1.5882
20136TIP3    H281900   0.119   2.779  15.527 -0.5688 -2.4961  0.0577
20137TIP3   OH281901   5.590   1.825  13.021  0.5708 -0.5145 -0.2671
20137TIP3    H181902   5.551   1.900  13.067  2.5121 -0.0798  0.7806
20137TIP3    H281903   5.520   1.760  13.018 -1.0603  1.1794 -0.8742
20138TIP3   OH281904   0.980   0.432   2.474 -0.2589  0.2150  0.3966
20138TIP3    H181905   1.012   0.502   2.530 -0.1868  2.1478 -1.8808
20138TIP3    H281906   1.033   0.439   2.394 -2.9353  0.2824 -1.5123
20139TIP3   OH281907   5.184   3.404   1.959 -0.0495  0.3828  0.1820
20139TIP3    H181908   5.092   3.415   1.935  0.2553 -0.0473 -1.3036
20139TIP3    H281909   5.224   3.365   1.882  1.2988  0.1474  0.9711
20140TIP3   OH281910   0.702   1.541  12.283  0.0277  0.0154 -0.5593
20140TIP3    H181911   0.636   1.590  12.331  1.9624  1.1157  1.1596
20140TIP3    H281912   0.699   1.453  12.320 -1.9512 -0.6320 -2.1044
20141TIP3   OH281913   5.963   0.801   3.702 -0.1013 -0.4376  0.0160
20141TIP3    H181914   5.908   0.725   3.719 -0.2197  0.0290  2.0022
20141TIP3    H281915   5.901   0.870   3.677 -0.0202 -0.8867 -1.5012
20142TIP3   OH281916   6.817   5.823  12.527 -0.8625 -0.5725 -0.2691
20142TIP3    H181917   6.743   5.786  12.576 -1.5933  1.1480  0.0074
20142TIP3    H281918   6.895   5.789  12.571 -1.4992 -1.0129  0.5435
20143TIP3   OH281919   3.137   1.942   3.767 -0.7652 -0.1530 -0.4752
20143TIP3    H181920   3.210   1.910   3.820  0.6565  0.1888 -2.1249
20143TIP3    H281921   3.144   1.893   3.685 -2.2941  0.0315 -0.7492
20144TIP3   OH281922   5.879   5.666  12.319 -0.0223 -0.1824 -0.1534
20144TIP3    H181923   5.797   5.645  12.363  0.9571 -3.3261  0.4121
20144TIP3    H281924   5.942   5.604  12.355  2.0763  0.6105 -2.2183
20145TIP3   OH281925   3.929   2.476  11.243  0.1818 -0.2682 -0.1279
20145TIP3    H181926   3.935   2.558  11.195 -0.3737 -0.2856 -0.2279
20145TIP3    H281927   4.013   2.433  11.228  0.7665  0.6171  0.5363
20146TIP3   OH281928   1.901   3.903   2.855  0.2501 -0.2762  0.2844
20146TIP3    H181929   1.858   3.821   2.881  1.1550  0.0508  3.0592
20146TIP3    H281930   1.991   3.894   2.885  0.6883  1.2953 -0.4551
20147TIP3   OH281931   0.743   2.787   4.483 -0.3832 -0.0803  0.2701
20147TIP3    H181932   0.677   2.855   4.496  2.1264  2.4077  1.0928
20147TIP3    H281933   0.786   2.811   4.400  0.2022 -0.9656  0.3056
20148TIP3   OH281934   4.315   2.215  10.237 -0.3873  0.1787 -0.2684
20148TIP3    H181935   4.387   2.278  10.237  0.0765 -0.3205 -1.3871
20148TIP3    H281936   4.236   2.269  10.228  0.0706  0.5634 -2.3429
20149TIP3   OH281937   2.567   1.481   0.603  0.4209 -0.2574 -0.1033
20149TIP3    H181938   2.622   1.407   0.578 -0.3795 -0.1402 -2.4610
20149TIP3    H281939   2.484   1.442   0.628  0.3461 -0.2256 -0.2996
20150TIP3   OH281940   6.145   0.840   0.265 -0.0766 -0.5059  0.8823
20150TIP3    H181941   6.186   0.763   0.227  0.5677 -0.2960  1.1522
20150TIP3    H281942   6.217   0.890   0.304 -0.4617  0.3217  0.5617
20151TIP3   OH281943   3.209   6.345   2.761  0.2413 -0.1752 -0.2481
20151TIP3    H181944   3.264   6.420   2.738  0.1168  0.1484  0.4887
20151TIP3    H281945   3.121   6.371   2.735 -0.2479  1.0159  2.3057
20152TIP3   OH281946   3.164   5.256  14.790 -0.2661 -0.5047 -0.3798
20152TIP3    H181947   3.163   5.350  14.808  0.6009 -0.3078 -1.2892
20152TIP3    H281948   3.073   5.235  14.769 -0.3254  0.2853 -0.9368
20153TIP3   OH281949   1.042   4.414  14.016  0.2036  0.1530 -0.1402
20153TIP3    H181950   0.959   4.372  14.039  0.6231 -0.6206 -0.0218
20153TIP3    H281951   1.075   4.363  13.942  1.5478 -0.8265  1.0899
20154TIP3   OH281952   0.323   5.355  10.037 -0.4669  0.2230  0.0858
20154TIP3    H181953   0.297   5.324   9.950  0.6788 -0.5271 -0.0088
20154TIP3    H281954   0.416   5.376  10.027  0.8526 -3.7161  2.0718
20155TIP3   OH281955   3.989   4.598  14.715 -0.0326  0.1115  0.2590
20155TIP3    H181956   3.956   4.542  14.786 -1.5568 -0.7815 -1.0909
20155TIP3    H281957   3.916   4.606  14.654  1.3081  0.6303 -1.3696
20156TIP3   OH281958   1.833   4.213   2.870  0.0064  0.0082 -0.5641
20156TIP3    H181959   1.855   4.124   2.840 -0.3643 -1.0012  1.9082
20156TIP3    H281960   1.738   4.215   2.872  0.0148  0.0489  0.4107
20157TIP3   OH281961   1.113   3.940   5.367 -0.0362  0.9429  0.1396
20157TIP3    H181962   1.030   3.984   5.350  0.8090  3.2604  1.4593
20157TIP3    H281963   1.121   3.940   5.463  0.1809 -1.9326  0.2043
20158TIP3   OH281964   0.535   5.125  14.246  0.0600 -0.2728  0.0839
20158TIP3    H181965   0.576   5.050  14.290  1.2103 -0.5776 -1.4243
20158TIP3    H281966   0.539   5.104  14.153 -1.7149  0.6464 -0.2477
20159TIP3   OH281967   2.138   1.354  13.379 -0.3455  0.0177 -0.2061
20159TIP3    H181968   2.192   1.418  13.331 -1.0023  0.4056 -0.4446
20159TIP3    H281969   2.149   1.273  13.330 -1.6974  0.6080 -1.5732
20160TIP3   OH281970   1.238   3.499  12.050  0.0431  0.0297 -0.1809
20160TIP3    H181971   1.251   3.528  11.960  2.1727  0.1295  0.1039
20160TIP3    H281972   1.164   3.551  12.082 -1.2794 -0.5896 -2.0885
20161TIP3   OH281973   5.407   1.292  16.401  0.2345 -0.3064 -0.5241
20161TIP3    H181974   5.407   1.365  16.339  1.2625  1.0201  0.9649
20161TIP3    H281975   5.459   1.224  16.358 -1.4464 -0.5723 -2.3059
20162TIP3   OH281976   2.392   2.812  12.169 -0.3793  0.3665  0.4433
20162TIP3    H181977   2.406   2.889  12.113 -2.2875 -1.4606 -2.8340
20162TIP3    H281978   2.469   2.758  12.154 -1.6730 -0.9349 -2.0707
20163TIP3   OH281979   1.161   1.379   5.766 -0.5745 -0.3067  0.0663
20163TIP3    H181980   1.215   1.353   5.841  0.1604  2.0355  0.4137
20163TIP3    H281981   1.096   1.438   5.803 -1.2343 -0.4008 -0.9094
20164TIP3   OH281982   2.760   5.737   1.737 -0.4671  0.6733  0.2468
20164TIP3    H181983   2.805   5.778   1.663  0.7649 -1.3611 -0.1997
20164TIP3    H281984   2.681   5.790   1.749 -0.9398  0.8120 -2.7992
20165TIP3   OH281985   1.466   2.884  13.400  0.0778  0.1577 -0.0622
20165TIP3    H181986   1.462   2.792  13.376  0.4524  0.0372  0.3237
20165TIP3    H281987   1.378   2.906  13.429 -0.0523 -0.0365 -0.3137
20166TIP3   OH281988   0.207   6.798  12.104 -0.6354  0.4454  0.0701
20166TIP3    H181989   0.180   6.723  12.157 -0.4216  0.8270  0.7199
20166TIP3    H281990   0.202   6.766  12.014  2.8761 -1.5022  0.4241
20167TIP3   OH281991   6.041   3.079   5.629 -0.6022 -0.0453 -0.4313
20167TIP3    H181992   6.086   3.163   5.617  0.3755 -0.3585  0.7684
20167TIP3    H281993   6.000   3.061   5.544 -1.0587  1.7560 -0.6347
20168TIP3   OH281994   4.848   4.857   5.807 -0.1141  0.0730 -0.2722
20168TIP3    H181995   4.864   4.807   5.727  0.3751 -1.6853  0.8607
20168TIP3    H281996   4.796   4.798   5.862 -0.2946  1.1721  0.7826
20169TIP3   OH281997   2.607   2.818   2.861  0.4313  0.1765  0.3181
20169TIP3    H181998   2.556   2.762   2.803 -2.0986  2.1998  0.4402
20169TIP3    H281999   2.692   2.825   2.817 -0.3939 -0.7655 -1.5803
20170TIP3   OH282000   3.481   3.788  13.736  0.2077  0.3916  0.9043
20170TIP3    H182001   3.452   3.845  13.807  0.2266  1.7543 -0.1488
20170TIP3    H282002   3.545   3.730  13.777  0.7339  1.5996  1.8651
20171TIP3   OH282003   0.938   6.806   0.184 -0.3546  0.2058  0.1466
20171TIP3    H182004   0.925   6.738   0.251 -0.0974  0.7437  0.7439
20171TIP3    H282005   0.861   6.862   0.192  0.0757  0.7459  0.5559
20172TIP3   OH282006   0.897   5.626   1.018  0.4720 -0.1851 -0.5436
20172TIP3    H182007   0.913   5.603   1.110 -0.7692  0.9275 -0.0142
20172TIP3    H282008   0.848   5.552   0.983  0.8350 -0.5601 -0.2622
20173TIP3   OH282009   6.378   2.885  14.293 -0.0390  0.1905 -0.6959
20173TIP3    H182010   6.405   2.972  14.322 -2.3387  1.0387 -0.8208
20173TIP3    H282011   6.421   2.873  14.209  1.1542  0.7382 -0.1816
20174TIP3   OH282012   2.281   2.632  14.437 -0.0447  0.1762  0.0352
20174TIP3    H182013   2.211   2.567  14.439 -0.1225  0.2677  0.9279
20174TIP3    H282014   2.287   2.662  14.528 -0.4946  1.9272 -0.4872
20175TIP3   OH282015   5.113   4.213  14.823 -0.1192  0.3013 -0.9619
20175TIP3    H182016   5.165   4.289  14.797  0.7050 -0.0669 -0.4403
20175TIP3    H282017   5.175   4.156  14.870 -0.6280 -0.8502 -1.6365
20176TIP3   OH282018   4.637   5.239  14.792 -0.2095  0.3427  0.4844
20176TIP3    H182019   4.562   5.180  14.805 -0.5458  0.7423  0.3670
20176TIP3    H282020   4.700   5.212  14.859 -0.4770  0.0389  0.6200
20177TIP3   OH282021   3.660   3.581   4.171  0.6307  0.3021  0.4088
20177TIP3    H182022   3.639   3.556   4.081  0.5675  0.6499  0.3252
20177TIP3    H282023   3.602   3.655   4.189 -0.0221 -0.3490  1.0562
20178TIP3   OH282024   0.332   0.831  10.390  0.3782 -0.1336 -0.2493
20178TIP3    H182025   0.360   0.917  10.360 -1.3842  0.8425  0.7715
20178TIP3    H282026   0.265   0.804  10.327 -1.1585  0.5813  1.0127
20179TIP3   OH282027   3.246   4.226  12.351 -0.1196  0.0844 -0.6974
20179TIP3    H182028   3.290   4.142  12.366  0.1489  0.2596 -0.5007
20179TIP3    H282029   3.186   4.209  12.279 -0.1234 -0.2993 -0.6057
20180TIP3   OH282030   3.091   1.532  15.942 -0.1936 -0.3229 -0.6493
20180TIP3    H182031   3.160   1.550  16.006 -0.7904  1.0905 -0.3535
20180TIP3    H282032   3.137   1.527  15.859  0.5281 -1.6422 -0.1937
20181TIP3   OH282033   4.600   2.477  16.405 -0.3383 -0.2630  0.4700
20181TIP3    H182034   4.568   2.392  16.376 -0.4105 -0.0357 -0.1474
20181TIP3    H282035   4.528   2.514  16.456 -0.2019 -0.6846  0.9661
20182TIP3   OH282036   4.153   5.378  15.393 -0.4753 -0.1799  0.3591
20182TIP3    H182037   4.213   5.327  15.447 -0.3606  1.5248  1.9129
20182TIP3    H282038   4.072   5.383  15.444 -1.3518 -0.8340 -0.8772
20183TIP3   OH282039   6.498   2.961  14.058  0.5466  0.0736 -0.0394
20183TIP3    H182040   6.563   2.944  13.990 -0.3817  1.2214 -1.2655
20183TIP3    H282041   6.522   3.047  14.092  1.2007 -0.6328  1.3542
20184TIP3   OH282042   2.703   3.779   0.903  0.2612 -0.2971 -0.7447
20184TIP3    H182043   2.691   3.707   0.966 -0.8677  0.3286 -0.2162
20184TIP3    H282044   2.794   3.807   0.916 -0.1342  0.2533  1.0954
20185TIP3   OH282045   1.517   5.251   4.102  0.0566 -0.0295  0.7976
20185TIP3    H182046   1.572   5.329   4.093 -0.2392  0.2815  1.6228
20185TIP3    H282047   1.568   5.181   4.060  0.6118  0.4702  0.6314
20186TIP3   OH282048   1.433   5.252  11.837 -0.3872 -0.7658 -0.0693
20186TIP3    H182049   1.505   5.191  11.821  0.0572 -0.0073 -1.1149
20186TIP3    H282050   1.461   5.302  11.913 -0.8373 -1.9611  0.9097
20187TIP3   OH282051   3.717   6.548   2.549  0.4001 -0.2902 -0.4660
20187TIP3    H182052   3.733   6.472   2.604 -1.0555  0.7156  1.4676
20187TIP3    H282053   3.642   6.592   2.590  1.2609  2.2447 -1.4343
20188TIP3   OH282054   4.940   4.439  15.424  0.0386  0.2254 -0.3123
20188TIP3    H182055   5.004   4.509  15.430 -1.7787  1.9170  0.4270
20188TIP3    H282056   4.990   4.362  15.397  2.4705  1.2685  0.9703
20189TIP3   OH282057   5.570   6.081  12.905 -0.0881 -0.0964  0.2704
20189TIP3    H182058   5.562   6.126  12.990 -1.2309  0.2066  0.0223
20189TIP3    H282059   5.645   6.023  12.916 -1.2464 -1.3627  2.0909
20190TIP3   OH282060   0.022   4.830   4.173 -0.0811 -0.5835 -0.2321
20190TIP3    H182061  -0.045   4.769   4.202  0.1283 -0.1340  1.3207
20190TIP3    H282062   0.019   4.900   4.238  1.8394 -0.5241 -0.1665
20191TIP3   OH282063   6.416   2.379   2.521  0.3733  0.2403 -0.8707
20191TIP3    H182064   6.398   2.419   2.606  0.2706 -0.9199 -0.3306
20191TIP3    H282065   6.479   2.438   2.479 -1.6418  2.3247 -1.1712
20192TIP3   OH282066   5.276   3.783   3.068  0.0239  0.3220 -0.0897
20192TIP3    H182067   5.330   3.714   3.105 -0.9380 -0.5707 -0.2997
20192TIP3    H282068   5.217   3.737   3.007 -1.7401  1.0891  0.9765
20193TIP3   OH282069   2.674   0.950   2.610  0.0848 -0.1593  0.1800
20193TIP3    H182070   2.690   0.940   2.516  2.4095 -0.0228  0.5167
20193TIP3    H282071   2.610   1.022   2.616 -1.2882 -1.1810 -1.3164
20194TIP3   OH282072   1.913   6.290  14.641 -0.1843  0.1943  0.9396
20194TIP3    H182073   1.982   6.225  14.632  0.3025  0.8775 -0.5987
20194TIP3    H282074   1.941   6.347  14.713  0.7680  0.3490  0.4575
20195TIP3   OH282075   1.236   5.523   2.733 -0.2462  0.0235 -0.5844
20195TIP3    H182076   1.243   5.552   2.824 -0.7370 -1.8408  0.0980
20195TIP3    H282077   1.309   5.462   2.722 -0.3060  0.0869 -1.3677
20196TIP3   OH282078   0.255   5.946   3.632  0.3777  0.3348  0.2181
20196TIP3    H182079   0.297   5.998   3.563 -0.0285  1.1845  0.5876
20196TIP3    H282080   0.232   6.010   3.699  0.4947 -0.4381  1.0140
20197TIP3   OH282081   4.908   3.598   1.038 -0.1305 -0.0083  0.5966
20197TIP3    H182082   4.940   3.519   0.996  0.0180 -0.8094  2.1375
20197TIP3    H282083   4.816   3.604   1.012 -0.7494 -1.9115  2.1421
20198TIP3   OH282084   5.746   3.720  15.325 -0.4814  0.4382  0.8148
20198TIP3    H182085   5.816   3.765  15.278  0.1733 -0.5442  0.8230
20198TIP3    H282086   5.665   3.747  15.280  0.2183 -1.8483 -2.1141
20199TIP3   OH282087   1.261   1.152  15.397 -0.0605  0.1634  0.6465
20199TIP3    H182088   1.326   1.171  15.330  0.3286 -0.1199  0.9411
20199TIP3    H282089   1.240   1.237  15.435 -0.2568  0.3230  0.1954
20200TIP3   OH282090   4.535   4.994  16.746  0.0937 -0.1471  0.1040
20200TIP3    H182091   4.618   4.970  16.789 -0.9469 -1.1596  1.6575
20200TIP3    H282092   4.546   5.086  16.722  0.9753  0.3117  2.0695
20201TIP3   OH282093   3.271   0.719  14.528 -0.1934 -0.1987 -0.3927
20201TIP3    H182094   3.200   0.659  14.552 -0.7302  1.1809  1.7235
20201TIP3    H282095   3.334   0.711  14.599 -0.6502  2.2523  0.3752
20202TIP3   OH282096   3.287   6.579   1.993 -0.2462  0.0945 -0.3672
20202TIP3    H182097   3.377   6.549   1.976 -0.3499  0.3100 -1.3394
20202TIP3    H282098   3.293   6.625   2.077  0.7051  0.7328 -0.7680
20203TIP3   OH282099   1.224   6.020   5.282 -0.2296  0.3178 -0.2202
20203TIP3    H182100   1.168   6.071   5.341  0.1585 -0.1247  0.5627
20203TIP3    H282101   1.177   6.017   5.199 -2.5857 -2.0482  1.0334
20204TIP3   OH282102   0.839   1.868   5.456 -0.4173  0.1452  0.0886
20204TIP3    H182103   0.883   1.926   5.393 -2.6440  0.5430 -1.2163
20204TIP3    H282104   0.831   1.921   5.535  1.4622  0.0217  0.4143
20205TIP3   OH282105   4.127   2.836  14.723 -0.6993 -0.1420  0.6872
20205TIP3    H182106   4.077   2.843  14.642  0.0597  2.4007  0.3331
20205TIP3    H282107   4.061   2.833  14.793 -1.3413 -1.0492  0.0580
20206TIP3   OH282108   0.687   5.956   1.690 -0.7500 -0.3541  0.0447
20206TIP3    H182109   0.610   6.010   1.676  0.5411  1.4054 -0.6812
20206TIP3    H282110   0.711   5.970   1.781 -1.1855 -0.8097  0.2372
20207TIP3   OH282111   4.619   4.812  14.354  0.7845  0.0747 -0.6720
20207TIP3    H182112   4.577   4.875  14.413 -0.7258 -1.1780 -0.3200
20207TIP3    H282113   4.645   4.863  14.278  0.5830  1.3056  0.0586
20208TIP3   OH282114   5.521   4.082  10.269  0.4655  0.1142 -0.6232
20208TIP3    H182115   5.464   4.151  10.236  0.2760  0.4674  0.3901
20208TIP3    H282116   5.489   4.002  10.227 -2.4971 -0.1495  1.7358
20209TIP3   OH282117   6.689   4.965  11.730  0.3266 -0.1087 -0.4973
20209TIP3    H182118   6.661   4.976  11.639 -0.6410  0.0308 -0.2000
20209TIP3    H282119   6.755   5.033  11.743 -0.3557  0.6213 -0.7739
20210TIP3   OH282120   3.019   6.256  15.604 -0.2264  0.2160 -0.2916
20210TIP3    H182121   3.115   6.259  15.597 -0.2644  0.4615 -0.7392
20210TIP3    H282122   2.993   6.348  15.609 -0.5815  0.2587 -2.2143
20211TIP3   OH282123   5.240   6.321  16.927 -0.1339 -0.1425 -0.3733
20211TIP3    H182124   5.322   6.299  16.881 -0.9571 -2.4579 -0.8520
20211TIP3    H282125   5.205   6.237  16.955 -2.1377  0.8383  0.2263
20212TIP3   OH282126   5.189   3.059   6.272  0.2964 -0.8588  0.2243
20212TIP3    H182127   5.255   3.109   6.225  0.6323 -0.1672  1.4032
20212TIP3    H282128   5.183   3.101   6.357 -2.2334 -0.3894 -0.0988
20213TIP3   OH282129   4.128   0.346   2.757 -0.1339  0.2013 -0.0121
20213TIP3    H182130   4.106   0.326   2.666 -4.0060  1.5374  0.4339
20213TIP3    H282131   4.059   0.304   2.808  1.4788  0.1724  2.2737
20214TIP3   OH282132   2.648   2.726   3.321 -0.1242 -0.3827 -0.3950
20214TIP3    H182133   2.586   2.796   3.340 -0.5965 -0.4677 -1.5190
20214TIP3    H282134   2.627   2.658   3.385  1.2432  0.9932  1.5969
20215TIP3   OH282135   3.904   5.629   0.611  0.4508  0.0376 -0.5358
20215TIP3    H182136   3.821   5.581   0.606  1.4000 -1.6586 -0.9174
20215TIP3    H282137   3.897   5.680   0.692 -0.4766 -1.0403  0.1023
20216TIP3   OH282138   2.786   6.697   4.290  0.4271 -0.2537 -0.3461
20216TIP3    H182139   2.822   6.785   4.302 -0.4647  0.1783 -0.7666
20216TIP3    H282140   2.710   6.694   4.348 -1.7356  0.5700 -2.9429
20217TIP3   OH282141   0.982   6.718  14.986  0.2689  0.3585 -0.5190
20217TIP3    H182142   0.936   6.765  14.917 -2.6882 -0.9365  0.4127
20217TIP3    H282143   1.039   6.656  14.939  0.5010  1.4435 -1.7273
20218TIP3   OH282144   6.420   0.174  17.113 -0.1655 -0.4323 -0.5614
20218TIP3    H182145   6.450   0.265  17.107  1.2844 -0.8029  0.5785
20218TIP3    H282146   6.473   0.127  17.049  2.5823 -1.2561  2.0996
20219TIP3   OH282147   1.245   6.270   0.555 -0.5176 -0.3765 -0.4596
20219TIP3    H182148   1.200   6.295   0.474  0.1667  0.8307 -0.4819
20219TIP3    H282149   1.180   6.284   0.624 -0.0502  1.9857 -0.4150
20220TIP3   OH282150   0.572   5.214  15.513 -0.4511  0.0961  0.0790
20220TIP3    H182151   0.488   5.174  15.536 -0.1617 -0.6067 -0.0455
20220TIP3    H282152   0.614   5.232  15.597 -0.1584 -0.8082  0.1391
20221TIP3   OH282153   6.779   4.692   3.020 -0.1657  0.0897 -0.3825
20221TIP3    H182154   6.820   4.610   2.993 -1.5372 -0.5596 -0.5767
20221TIP3    H282155   6.737   4.672   3.103 -1.0586  0.4057 -0.7459
20222TIP3   OH282156   5.880   3.871  14.267 -0.0703  0.4296 -0.0209
20222TIP3    H182157   5.870   3.781  14.235 -0.4633  0.1359  0.8829
20222TIP3    H282158   5.791   3.897  14.290  0.1677  0.6972  0.6193
20223TIP3   OH282159   1.342   3.994  14.534  0.0535  0.1394 -0.5293
20223TIP3    H182160   1.276   4.062  14.547  0.6848  1.0858 -2.0099
20223TIP3    H282161   1.297   3.925  14.485 -0.1458  0.2735 -0.5336
20224TIP3   OH282162   3.275   0.485   4.337  0.3340 -0.4515  0.5672
20224TIP3    H182163   3.315   0.399   4.342  1.0568 -0.2068 -0.5237
20224TIP3    H282164   3.347   0.546   4.355 -0.1218 -0.0668  1.1199
20225TIP3   OH282165   5.845   5.168   5.137  0.2775  0.3173  0.0543
20225TIP3    H182166   5.934   5.202   5.130  0.3682 -0.0396 -0.6466
20225TIP3    H282167   5.856   5.073   5.137 -0.1123  0.2697 -0.1043
20226TIP3   OH282168   1.259   0.050  11.424  0.7962  0.2832  0.5168
20226TIP3    H182169   1.315   0.098  11.363  1.9615  2.3020  3.0125
20226TIP3    H282170   1.319  -0.007  11.472 -0.1052 -1.2852 -0.1469
20227TIP3   OH282171   5.378   5.461   1.508 -0.0561  0.3304 -0.8948
20227TIP3    H182172   5.449   5.398   1.517 -0.7579 -0.3891 -0.2116
20227TIP3    H282173   5.387   5.519   1.583  0.7694  1.2523 -1.6848
20228TIP3   OH282174   6.709   6.252  14.974 -0.0598 -0.3326 -0.7338
20228TIP3    H182175   6.750   6.174  15.011  0.5179  0.8877  1.4065
20228TIP3    H282176   6.776   6.287  14.915  0.8950  0.0791  0.5355
20229TIP3   OH282177   0.240   4.181  12.667  0.1460 -0.4135 -0.3690
20229TIP3    H182178   0.241   4.158  12.760 -0.7710  1.4507  0.1497
20229TIP3    H282179   0.165   4.133  12.631 -1.5658  1.4105  0.6229
20230TIP3   OH282180   5.823   6.435  13.539 -0.3157  0.1097 -0.6223
20230TIP3    H182181   5.763   6.493  13.491  0.4576  0.3759 -1.2983
20230TIP3    H282182   5.904   6.485  13.545  0.4461 -0.9746 -1.4344
20231TIP3   OH282183   3.264   2.851  11.299 -0.2747  0.3900  0.1944
20231TIP3    H182184   3.195   2.786  11.310  0.5766 -0.5928 -0.1622
20231TIP3    H282185   3.314   2.821  11.223 -1.8186  3.2335 -2.1620
20232TIP3   OH282186   2.279   6.703  16.771 -0.7995  0.4493  0.1502
20232TIP3    H182187   2.349   6.665  16.825 -0.7086  0.6716  0.1901
20232TIP3    H282188   2.293   6.798  16.778  0.2750  0.4719 -1.6106
20233TIP3   OH282189   4.839   6.656   3.770  0.6127  0.3110  0.1543
20233TIP3    H182190   4.841   6.589   3.839  0.4806  0.1963  0.0471
20233TIP3    H282191   4.833   6.607   3.689 -0.3669  0.4611  0.1153
20234TIP3   OH282192   2.909   4.331  16.123  0.3878 -0.4613 -0.0851
20234TIP3    H182193   2.847   4.383  16.072 -1.4931 -1.9202  0.6041
20234TIP3    H282194   2.994   4.349  16.082 -0.5252  1.2054 -1.3942
20235TIP3   OH282195   4.906   4.249  14.999  0.8272 -0.2189  0.3243
20235TIP3    H182196   4.975   4.249  14.933  0.6034  0.3232  0.0809
20235TIP3    H282197   4.827   4.276  14.951  1.2139  3.1357  1.3480
20236TIP3   OH282198   3.919   4.652  11.422  0.2045 -0.0080 -0.2706
20236TIP3    H182199   3.871   4.624  11.344 -2.2834  0.9146  0.8281
20236TIP3    H282200   3.929   4.571  11.473  1.4691 -0.5343 -1.2799
20237TIP3   OH282201   3.739   1.709   0.516 -0.1421  0.1361  0.0738
20237TIP3    H182202   3.789   1.662   0.583  2.9913 -0.4662 -2.4575
20237TIP3    H282203   3.806   1.749   0.460 -2.6023  1.2388 -2.2771
20238TIP3   OH282204   6.677   6.664  14.517  0.2397  0.0534  0.2654
20238TIP3    H182205   6.619   6.656  14.594 -1.0908 -2.3527 -0.8729
20238TIP3    H282206   6.737   6.591  14.525 -0.6055 -0.8767 -1.4837
20239TIP3   OH282207   4.416   3.555   4.499  0.2559  0.1585  0.1361
20239TIP3    H182208   4.337   3.543   4.552  1.7767 -2.6020  2.0494
20239TIP3    H282209   4.469   3.618   4.548 -0.0237  0.7184 -0.2700
20240TIP3   OH282210   0.407   3.313   2.715 -0.3051 -0.0182  0.3734
20240TIP3    H182211   0.488   3.269   2.741 -0.2797 -0.7524 -0.8561
20240TIP3    H282212   0.337   3.257   2.747 -0.2728 -1.1738 -1.3982
20241TIP3   OH282213   2.019   0.928  15.870  0.2187 -0.2284  0.1056
20241TIP3    H182214   2.038   0.894  15.957  1.2224 -0.5855 -0.2305
20241TIP3    H282215   2.104   0.926  15.825 -0.3699 -0.5375 -1.0430
20242TIP3   OH282216   2.376   4.422   1.545 -0.3764  0.1976 -0.1023
20242TIP3    H182217   2.333   4.430   1.630 -0.6304 -0.5501 -0.1533
20242TIP3    H282218   2.305   4.427   1.481 -0.0580  2.1777 -0.3740
20243TIP3   OH282219   4.595   5.268   5.809 -0.6132  0.1418  0.0583
20243TIP3    H182220   4.534   5.319   5.862 -3.2315 -0.0813 -2.4302
20243TIP3    H282221   4.605   5.185   5.856  0.4120  1.3700  2.1080
20244TIP3   OH282222   6.487   0.432   1.165 -0.3928 -0.0639 -0.3571
20244TIP3    H182223   6.421   0.406   1.229  0.3407 -1.1359  0.0041
20244TIP3    H282224   6.467   0.379   1.087  1.2456 -2.0370  0.4585
20245TIP3   OH282225   6.119   4.546   0.134 -0.1323 -0.6691  0.3077
20245TIP3    H182226   6.164   4.630   0.122 -1.2339 -0.0874  0.0966
20245TIP3    H282227   6.059   4.562   0.208 -0.2738 -1.3061  0.3304
20246TIP3   OH282228   6.760   2.166  12.339 -0.4602  0.2884 -0.7616
20246TIP3    H182229   6.675   2.131  12.365 -0.0508  0.1692  0.5156
20246TIP3    H282230   6.744   2.212  12.257 -1.1232 -2.4651 -2.2939
20247TIP3   OH282231   6.219   2.134   0.082 -0.2387  0.2064 -0.7208
20247TIP3    H182232   6.264   2.098   0.006 -0.3972 -0.2767 -0.5867
20247TIP3    H282233   6.244   2.227   0.083  1.5160 -0.2282 -0.0941
20248TIP3   OH282234   6.443   2.586   1.059  0.4394 -0.2134 -0.3578
20248TIP3    H182235   6.357   2.584   1.017 -0.4576  0.9700  1.3500
20248TIP3    H282236   6.489   2.658   1.016  0.0266  0.1324 -0.2166
20249TIP3   OH282237   2.700   5.523   5.461  0.0312 -0.1401 -0.1089
20249TIP3    H182238   2.620   5.493   5.420  0.5744  0.1337 -1.4093
20249TIP3    H282239   2.674   5.598   5.515 -0.5459  0.1166 -0.7392
20250TIP3   OH282240   1.910   0.393  16.374  0.8721 -0.1886 -0.2840
20250TIP3    H182241   1.982   0.398  16.312  0.4774  0.0665 -0.7305
20250TIP3    H282242   1.838   0.440  16.332  0.1199 -1.3041 -0.3184
20251TIP3   OH282243   6.506   3.759  10.776 -0.6789  0.4130 -0.0366
20251TIP3    H182244   6.412   3.746  10.789 -0.7525 -1.5334 -1.7922
20251TIP3    H282245   6.515   3.852  10.755 -2.1685  0.6963  0.4647
20252TIP3   OH282246   0.496   5.315  16.824 -0.0973  0.1265 -0.0714
20252TIP3    H182247   0.569   5.377  16.820  0.6461 -0.7252 -0.0877
20252TIP3    H282248   0.419   5.369  16.843  0.6464  0.9590  0.6541
20253TIP3   OH282249   2.867   2.897   1.384 -0.5153 -0.1559 -0.2055
20253TIP3    H182250   2.892   2.841   1.457 -1.1761 -0.2564 -0.0515
20253TIP3    H282251   2.828   2.838   1.320 -3.8118  0.3923  1.1007
20254TIP3   OH282252   1.906   5.694   3.181 -0.0845  0.1288 -0.3461
20254TIP3    H182253   1.884   5.601   3.189 -0.1172  0.1237 -0.4755
20254TIP3    H282254   1.834   5.729   3.127  0.3029  0.0831 -0.9035
20255TIP3   OH282255   3.261   2.788   1.375  0.1633 -0.3246 -0.4718
20255TIP3    H182256   3.244   2.705   1.419 -1.4053  0.4332  0.4509
20255TIP3    H282257   3.335   2.770   1.317  1.3314 -1.7552  1.3639
20256TIP3   OH282258   4.834   4.868  13.466  0.6923  0.4569 -0.0567
20256TIP3    H182259   4.840   4.773  13.475  0.3613  0.3690 -0.7112
20256TIP3    H282260   4.815   4.899  13.555 -1.7041 -0.3057 -0.2257
20257TIP3   OH282261   1.421   2.854  10.132 -0.1594 -0.0505 -0.0717
20257TIP3    H182262   1.466   2.876  10.213 -1.7585  0.3586  0.7541
20257TIP3    H282263   1.472   2.782  10.095  0.7493 -0.0794  1.1696
20258TIP3   OH282264   0.152   5.005  15.738  0.4349 -0.1111  0.5234
20258TIP3    H182265   0.080   5.031  15.795  0.7437  1.4062  0.2772
20258TIP3    H282266   0.120   4.926  15.694 -0.8479  0.1981  0.8457
20259TIP3   OH282267   4.213   4.110  16.625  0.5977 -0.1151 -0.2690
20259TIP3    H182268   4.271   4.175  16.584 -0.9735  0.1688 -2.2136
20259TIP3    H282269   4.191   4.050  16.554 -1.3132 -0.3233  0.4484
20260TIP3   OH282270   3.511   3.881  14.836 -0.1208 -0.3913 -0.6224
20260TIP3    H182271   3.503   3.963  14.787  0.0608  0.5271  0.8253
20260TIP3    H282272   3.440   3.826  14.802  1.7719 -0.9753 -3.9907
20261TIP3   OH282273   3.040   5.748  11.982  0.4618  0.4241  0.0470
20261TIP3    H182274   3.054   5.653  11.975 -0.2585  0.2146  1.2039
20261TIP3    H282275   3.062   5.768  12.073  0.7494  1.3992 -0.2320
20262TIP3   OH282276   0.165   4.411   5.433 -0.2866 -0.1276  0.2308
20262TIP3    H182277   0.126   4.494   5.458 -0.0266 -0.0277  0.3066
20262TIP3    H282278   0.090   4.355   5.411 -0.4753  0.0346  0.4536
20263LIG     O182279   3.017   3.166  16.718 -0.4370 -0.4349 -0.6958
20263LIG     O282280   3.263   3.138  16.743 -0.2104 -0.7382 -0.7630
20263LIG     O382281   3.194   2.926  16.778 -0.1676  0.3881 -0.0819
20263LIG     O482282   3.073   3.441  16.802  0.2895 -0.2177  0.2644
20263LIG     O582283   3.015   3.317  17.044 -0.4344  0.2761 -0.3034
20263LIG     O682284   3.431   3.072  16.515 -0.2717  0.5307  0.1723
20263LIG     O782285   3.539   3.020  16.780 -0.1167 -0.0368  0.1354
20263LIG     O882286   3.513   2.750  16.869  1.2931 -0.1676 -0.5539
20263LIG     O982287   3.296   3.347  16.548  0.1207  0.1488 -0.4735
20263LIG    O1082288   2.963   2.942  16.910 -0.6039  0.1949 -0.3660
20263LIG    O1182289   3.184   2.833  17.070  0.4324 -0.1679 -0.1467
20263LIG     C182290   3.153   3.230  16.714 -0.0852  0.4145  0.2645
20263LIG     C282291   3.145   3.323  16.838  0.6669  0.3904  0.3510
20263LIG     C382292   3.062   3.238  16.933  0.0969  0.1608 -0.4763
20263LIG     C482293   2.952   3.174  16.846 -0.2147  0.5296  0.1512
20263LIG     C582294   3.246   3.015  16.680 -0.1851 -0.0895  0.3606
20263LIG     C682295   3.375   2.978  16.606  0.8362  0.2054 -0.1935
20263LIG     C782296   3.479   2.921  16.696 -0.9528  0.1805 -0.1159
20263LIG     C882297   3.410   2.814  16.783 -0.4397 -0.3021 -0.6031
20263LIG     C982298   3.300   2.877  16.860  0.1255 -0.3140 -1.2396
20263LIG    C1082299   3.168   3.291  16.578  0.3423 -0.2443 -0.1372
20263LIG    C1182300   2.873   3.050  16.890 -1.0211  1.1236 -0.1116
20263LIG    C1282301   3.226   2.775  16.947 -0.4856 -0.5323 -0.3337
20263LIG     H182302   3.245   3.347  16.877  1.3733 -0.4104 -0.8737
20263LIG     H282303   3.132   3.160  16.966 -0.1077  0.0788 -0.2355
20263LIG     H382304   2.884   3.260  16.843  0.1004  0.8368  1.4128
20263LIG     H482305   3.175   3.026  16.595 -1.2795  1.5191  1.4395
20263LIG     H582306   3.352   2.891  16.540  1.3698 -0.3973  0.3991
20263LIG     H682307   3.551   2.868  16.631  0.0724  0.3235  0.8627
20263LIG     H782308   3.362   2.738  16.718 -2.5789  0.4794 -0.0012
20263LIG     H882309   3.342   2.957  16.926  0.9480 -1.6552 -0.0721
20263LIG     H982310   3.143   3.206  16.511 -0.7889 -0.4938  0.5642
20263LIG    H1082311   3.099   3.375  16.556  1.0842  0.4187  0.0351
20263LIG    H1182312   2.813   3.067  16.981 -0.8015  1.3826 -0.0127
20263LIG    H1282313   2.806   3.029  16.804 -2.5689 -0.4949  1.4327
20263LIG    H1382314   3.135   2.741  16.892 -1.0346  1.2796 -0.6012
20263LIG    H1482315   3.292   2.689  16.973  4.5009  2.9861 -0.1220
20263LIG    H1582316   3.107   3.508  16.861  0.1627 -0.1083  0.2139
20263LIG    H1682317   3.003   3.407  17.012  0.4043  0.2407 -0.7320
20263LIG    H1782318   3.431   3.161  16.551  1.4276  0.0253  1.5164
20263LIG    H1882319   3.632   3.019  16.757 -0.1098 -1.5726  0.1223
20263LIG    H1982320   3.529   2.818  16.935 -3.1440  2.1347 -1.4528
20263LIG    H2082321   3.293   3.389  16.461  1.4899 -0.1918 -0.7106
20263LIG    H2182322   3.031   2.940  16.842  1.3886 -4.1508  1.3919
20263LIG    H2282323   3.099   2.875  17.057  0.3494 -0.2726  0.0457
   6.84072   6.84072  17.15737
